Title
81342
    1CHL1    C3    1   1.732   3.596  10.222 -0.3925 -0.0539  0.1415
    1CHL1    H3    2   1.621   3.600  10.223 -0.3963  1.1858 -1.2830
    1CHL1    O3    3   1.784   3.615  10.349  0.2462  0.5120 -0.3886
    1CHL1   H3'    4   1.834   3.697  10.345  0.7059  0.1996 -2.6596
    1CHL1    C4    5   1.791   3.464  10.159  0.6626  0.0458  0.4852
    1CHL1   H4A    6   1.900   3.479  10.174  0.8251 -1.1754  0.6012
    1CHL1   H4B    7   1.764   3.381  10.227  0.7546 -1.0893 -0.8188
    1CHL1    C5    8   1.738   3.435  10.014  0.1335 -0.7412 -0.2970
    1CHL1    C6    9   1.663   3.330   9.983  1.5606 -0.0661  0.8654
    1CHL1    H6   10   1.639   3.277  10.077 -0.8131  1.4200  1.1822
    1CHL1    C7   11   1.619   3.293   9.840 -0.6251 -0.5362 -0.1149
    1CHL1   H7A   12   1.633   3.185   9.819  3.9831 -0.1045 -0.2781
    1CHL1   H7B   13   1.516   3.328   9.814  0.5600  2.1023 -1.6797
    1CHL1    C8   14   1.707   3.375   9.738 -0.4062 -1.2660 -0.3009
    1CHL1    H8   15   1.808   3.331   9.734 -0.2868 -1.1149  0.6815
    1CHL1   C14   16   1.645   3.363   9.598  0.1421 -0.4696 -0.0780
    1CHL1   H14   17   1.543   3.406   9.607 -0.4493 -1.5284 -1.2362
    1CHL1   C15   18   1.623   3.222   9.550  0.0196  0.0518 -0.0520
    1CHL1  H15A   19   1.717   3.166   9.567  0.1360  0.9649  2.8440
    1CHL1  H15B   20   1.536   3.174   9.600 -0.9405  0.0260 -1.6881
    1CHL1   C16   21   1.587   3.241   9.405 -0.0580 -0.0589 -0.2802
    1CHL1  H16A   22   1.636   3.171   9.334 -0.2559  1.1040 -1.6215
    1CHL1  H16B   23   1.477   3.234   9.391 -0.2072  3.6944 -2.3407
    1CHL1   C17   24   1.626   3.392   9.363  0.0052 -0.5300  0.1853
    1CHL1   H17   25   1.524   3.436   9.368  0.6476  1.0407  0.3269
    1CHL1   C13   26   1.709   3.444   9.488 -0.0229  0.6514  0.0804
    1CHL1   C18   27   1.852   3.406   9.466  0.0564 -0.2313 -0.0702
    1CHL1  H18A   28   1.907   3.397   9.562  0.5478 -0.8479 -0.3980
    1CHL1  H18B   29   1.860   3.313   9.406  3.9369  0.8497 -1.5624
    1CHL1  H18C   30   1.900   3.485   9.405 -0.6770  0.9919  0.8995
    1CHL1   C12   31   1.697   3.588   9.529  1.0774 -0.2803  0.3066
    1CHL1  H12A   32   1.738   3.657   9.452  0.1812 -2.1327 -1.9397
    1CHL1  H12B   33   1.590   3.617   9.537  0.3474 -2.2321 -1.5054
    1CHL1   C11   34   1.774   3.614   9.652 -0.0164 -0.1928 -0.2406
    1CHL1  H11A   35   1.884   3.603   9.636  0.5523  1.2779  2.0976
    1CHL1  H11B   36   1.770   3.718   9.691  0.3550 -0.3932  0.3451
    1CHL1    C9   37   1.717   3.528   9.774  0.3237 -0.0866  0.9126
    1CHL1    H9   38   1.609   3.552   9.780  0.6236  1.0491  1.9625
    1CHL1   C10   39   1.777   3.551   9.915  0.3695 -1.0505 -0.1380
    1CHL1   C19   40   1.924   3.554   9.889 -0.5017  0.0379 -0.0340
    1CHL1  H19A   41   1.980   3.545   9.984 -0.9365  0.2053  0.2419
    1CHL1  H19B   42   1.959   3.471   9.824  0.7733  1.2423 -0.9546
    1CHL1  H19C   43   1.965   3.647   9.845 -0.3348  0.4169  0.8969
    1CHL1    C1   44   1.732   3.689   9.978 -0.0240 -0.0272 -0.0119
    1CHL1   H1A   45   1.770   3.768   9.910 -0.1300  2.2458  2.4043
    1CHL1   H1B   46   1.622   3.704   9.981  0.1342  1.1878  0.0933
    1CHL1    C2   47   1.784   3.706  10.126  0.1888 -0.1554  0.6627
    1CHL1   H2A   48   1.756   3.805  10.169  0.9803 -0.5980  2.2516
    1CHL1   H2B   49   1.895   3.702  10.118  0.4060  1.6431  2.0688
    1CHL1   C20   50   1.666   3.412   9.225  0.6071 -0.3689  0.0606
    1CHL1   H20   51   1.767   3.371   9.207  0.9369  0.2422  0.4927
    1CHL1   C21   52   1.685   3.559   9.194  0.5850 -0.5226  0.7457
    1CHL1  H21A   53   1.719   3.568   9.088 -0.9823  3.2511  0.3892
    1CHL1  H21B   54   1.771   3.604   9.247  0.5385 -0.8242  1.0777
    1CHL1  H21C   55   1.591   3.618   9.195 -0.2743 -1.8207  0.0947
    1CHL1   C22   56   1.560   3.340   9.129  0.5667  0.0968  0.3574
    1CHL1  H22A   57   1.567   3.229   9.135  0.1992  0.0951  0.9161
    1CHL1  H22B   58   1.456   3.363   9.164  1.4434  1.1440  2.4751
    1CHL1   C23   59   1.575   3.386   8.986  0.7939  0.3532  0.9473
    1CHL1  H23A   60   1.558   3.495   8.975  1.1477  0.2680 -0.7582
    1CHL1  H23B   61   1.675   3.362   8.943 -0.5685 -0.8225 -1.8437
    1CHL1   C24   62   1.463   3.322   8.897  0.3188 -0.0549  0.5062
    1CHL1  H24A   63   1.460   3.211   8.900 -0.2652 -0.0699 -0.3715
    1CHL1  H24B   64   1.370   3.367   8.937 -0.5601  0.8077 -2.3133
    1CHL1   C25   65   1.484   3.369   8.747 -0.1427  0.5543  0.4923
    1CHL1   H25   66   1.484   3.479   8.759  0.0625  0.7327 -0.8993
    1CHL1   C26   67   1.610   3.330   8.675 -0.4963  0.3864 -0.1431
    1CHL1  H26A   68   1.610   3.382   8.577  0.3477 -1.1214 -0.9842
    1CHL1  H26B   69   1.698   3.358   8.736  0.1060  1.2274 -1.3483
    1CHL1  H26C   70   1.610   3.223   8.642 -1.3353  0.3233  0.0356
    1CHL1   C27   71   1.362   3.329   8.660  0.3263  0.2138  0.0509
    1CHL1  H27A   72   1.366   3.218   8.653 -1.1393  0.0137  1.9006
    1CHL1  H27B   73   1.272   3.361   8.716 -1.4133 -1.5833 -1.5897
    1CHL1  H27C   74   1.355   3.378   8.560  1.8042 -1.2101 -0.7953
    2CHL1    C3   75   2.441   3.586  10.014 -0.2022 -0.1477  0.1120
    2CHL1    H3   76   2.520   3.663  10.008 -0.4721  0.3141  1.8748
    2CHL1    O3   77   2.436   3.531  10.148  0.1828 -0.8316 -0.0366
    2CHL1   H3'   78   2.341   3.521  10.150 -0.6857  4.3141 -1.2089
    2CHL1    C4   79   2.312   3.651   9.976  0.0008 -0.6045  0.7656
    2CHL1   H4A   80   2.228   3.581   9.993  0.3722 -1.1992  0.1786
    2CHL1   H4B   81   2.286   3.740  10.038 -1.9163 -0.7608  0.2587
    2CHL1    C5   82   2.322   3.696   9.832 -0.1566  0.1391  0.5183
    2CHL1    C6   83   2.302   3.820   9.789 -0.4548 -0.2434 -0.7019
    2CHL1    H6   84   2.283   3.905   9.856  0.9868 -0.5395  0.1252
    2CHL1    C7   85   2.305   3.869   9.648 -0.3924  0.9398  1.1341
    2CHL1   H7A   86   2.227   3.947   9.633 -1.2200  0.3663  2.2576
    2CHL1   H7B   87   2.406   3.906   9.623 -0.5285  0.8540  0.4577
    2CHL1    C8   88   2.281   3.752   9.550  0.3603  0.2298  0.4584
    2CHL1    H8   89   2.177   3.715   9.563  1.0517 -0.7385  5.1075
    2CHL1   C14   90   2.305   3.796   9.405  0.3227  0.4902 -0.5428
    2CHL1   H14   91   2.408   3.837   9.412  0.9320 -1.0828  0.4216
    2CHL1   C15   92   2.228   3.923   9.345  0.1263  0.4701 -0.3179
    2CHL1  H15A   93   2.123   3.911   9.378  0.2740  1.0945  0.4108
    2CHL1  H15B   94   2.276   4.012   9.390  2.8366  0.7037 -3.2959
    2CHL1   C16   95   2.240   3.909   9.194 -0.1108 -0.0315 -0.2297
    2CHL1  H16A   96   2.136   3.924   9.159 -0.5618 -0.2501  0.9691
    2CHL1  H16B   97   2.304   3.987   9.148  1.5544 -1.2606 -0.0977
    2CHL1   C17   98   2.302   3.771   9.164  0.3117  0.5250  0.5553
    2CHL1   H17   99   2.412   3.782   9.153  0.3258  0.1173  0.2626
    2CHL1   C13  100   2.284   3.691   9.294 -0.4706  0.0518 -0.1626
    2CHL1   C18  101   2.137   3.639   9.308 -0.3639  0.4842 -0.8027
    2CHL1  H18A  102   2.129   3.554   9.237  0.2938  0.8675 -1.3463
    2CHL1  H18B  103   2.099   3.608   9.408 -3.7107  3.7975 -0.8484
    2CHL1  H18C  104   2.070   3.720   9.273 -0.3393  0.7444 -0.2552
    2CHL1   C12  105   2.376   3.577   9.322 -0.2736  0.8647 -0.1765
    2CHL1  H12A  106   2.337   3.488   9.268  1.0214  0.1340  0.0657
    2CHL1  H12B  107   2.479   3.599   9.289  0.1420 -0.4166  0.2060
    2CHL1   C11  108   2.357   3.528   9.472 -0.2177  0.1687  0.5012
    2CHL1  H11A  109   2.259   3.478   9.482 -0.5973  0.6702 -0.5733
    2CHL1  H11B  110   2.427   3.445   9.497 -0.2658  0.5908  2.2008
    2CHL1    C9  111   2.370   3.638   9.577 -0.0827  0.1396 -0.1373
    2CHL1    H9  112   2.472   3.681   9.564 -0.1734  0.4558  0.1994
    2CHL1   C10  113   2.358   3.592   9.728 -0.5060 -0.6811 -0.3383
    2CHL1   C19  114   2.244   3.489   9.725 -0.6996 -0.4982 -0.3183
    2CHL1  H19A  115   2.263   3.393   9.672 -0.7693 -0.0752 -1.1276
    2CHL1  H19B  116   2.220   3.456   9.828  2.7182  1.4853  1.3075
    2CHL1  H19C  117   2.157   3.531   9.670  1.2434  0.3884 -2.9521
    2CHL1    C1  118   2.489   3.525   9.773 -0.0965 -0.6392 -0.2118
    2CHL1   H1A  119   2.510   3.445   9.698 -0.8639 -0.1402 -0.9731
    2CHL1   H1B  120   2.569   3.602   9.766  0.1128 -0.8013  0.3078
    2CHL1    C2  121   2.477   3.475   9.926 -0.5456 -0.4517 -0.2584
    2CHL1   H2A  122   2.570   3.419   9.951  0.4447 -1.1095 -4.5844
    2CHL1   H2B  123   2.400   3.395   9.924 -0.6600 -0.4247  1.5014
    2CHL1   C20  124   2.248   3.720   9.024  0.0203  0.7471  0.3609
    2CHL1   H20  125   2.140   3.697   9.035 -0.3784  2.6334  0.7528
    2CHL1   C21  126   2.332   3.594   8.989  0.4904  0.3807  0.1545
    2CHL1  H21A  127   2.330   3.522   9.073 -0.7510  0.7552  0.4787
    2CHL1  H21B  128   2.435   3.634   8.975  0.6649 -0.1618 -0.1295
    2CHL1  H21C  129   2.307   3.546   8.892  2.1849  1.8499 -1.0903
    2CHL1   C22  130   2.257   3.823   8.907  0.7800 -0.4068  0.1993
    2CHL1  H22A  131   2.166   3.885   8.924  0.7258 -0.4623  0.1097
    2CHL1  H22B  132   2.351   3.882   8.912  1.1438 -1.0565  1.3462
    2CHL1   C23  133   2.238   3.781   8.756  0.2637  0.4978 -0.0825
    2CHL1  H23A  134   2.312   3.701   8.734 -0.7363  0.0580 -2.1287
    2CHL1  H23B  135   2.145   3.721   8.746  0.3730  0.5604 -1.7427
    2CHL1   C24  136   2.250   3.900   8.668  1.1048  0.0107  0.5259
    2CHL1  H24A  137   2.178   3.979   8.699 -0.8798 -1.7179  0.5444
    2CHL1  H24B  138   2.351   3.943   8.684  0.5713  1.8377 -0.6906
    2CHL1   C25  139   2.244   3.863   8.515  0.4918 -0.6256 -0.0000
    2CHL1   H25  140   2.343   3.816   8.496  1.4726 -0.4206  3.7580
    2CHL1   C26  141   2.126   3.770   8.486 -0.1688  0.1786  0.0701
    2CHL1  H26A  142   2.131   3.743   8.379 -1.8857  0.4421 -0.1037
    2CHL1  H26B  143   2.131   3.675   8.544 -3.2049 -0.8310 -1.1268
    2CHL1  H26C  144   2.036   3.831   8.511 -0.7565 -0.3201 -0.7833
    2CHL1   C27  145   2.237   3.995   8.433 -0.5900  0.3025 -0.1922
    2CHL1  H27A  146   2.313   4.058   8.484  0.8497  0.4727 -2.4145
    2CHL1  H27B  147   2.265   3.978   8.327 -1.2552 -0.8240 -0.1962
    2CHL1  H27C  148   2.137   4.043   8.441 -0.6500  1.2877 -4.4542
    3CHL1    C3  149   4.233   3.020  10.327  0.4900 -0.3388  0.4866
    3CHL1    H3  150   4.328   2.979  10.289  2.3582  1.9876  2.3633
    3CHL1    O3  151   4.210   2.982  10.463 -0.4151  0.6867  0.0325
    3CHL1   H3'  152   4.131   3.030  10.487 -0.3322  1.8869 -1.8625
    3CHL1    C4  153   4.241   3.174  10.305 -0.2390 -0.1057  0.3066
    3CHL1   H4A  154   4.146   3.212  10.349 -0.8230 -2.5933  1.3362
    3CHL1   H4B  155   4.325   3.214  10.365 -0.6517 -1.7906  2.0943
    3CHL1    C5  156   4.266   3.213  10.159 -0.3864 -0.0929  0.9476
    3CHL1    C6  157   4.376   3.285  10.115 -0.2076  0.5178  0.7356
    3CHL1    H6  158   4.442   3.325  10.193 -0.3952  0.2081  1.0549
    3CHL1    C7  159   4.400   3.329   9.977  0.1500 -0.6552  0.9066
    3CHL1   H7A  160   4.422   3.438   9.971  1.2054 -0.9381 -1.8079
    3CHL1   H7B  161   4.491   3.285   9.929  1.1306  1.9657  0.1866
    3CHL1    C8  162   4.277   3.315   9.886 -0.0227 -0.9384  0.3606
    3CHL1    H8  163   4.207   3.395   9.918 -0.8237 -0.8668 -1.4943
    3CHL1   C14  164   4.322   3.314   9.740  0.3258  0.5831 -0.0756
    3CHL1   H14  165   4.384   3.222   9.729 -0.6830 -0.3483  1.6057
    3CHL1   C15  166   4.404   3.430   9.693 -0.6969 -0.3712 -0.1378
    3CHL1  H15A  167   4.385   3.527   9.743 -0.2493 -1.5717  2.5036
    3CHL1  H15B  168   4.509   3.399   9.713 -0.6316 -1.0772 -1.4058
    3CHL1   C16  169   4.378   3.442   9.544  0.3421 -0.3731  0.3105
    3CHL1  H16A  170   4.325   3.539   9.538 -1.7611 -1.4738 -0.1878
    3CHL1  H16B  171   4.474   3.445   9.488 -0.1422  0.9319 -0.5102
    3CHL1   C17  172   4.278   3.326   9.512  0.1566 -1.0823 -0.3132
    3CHL1   H17  173   4.339   3.234   9.502  0.8302 -0.6651 -0.0897
    3CHL1   C13  174   4.204   3.306   9.643 -0.6707 -0.0099  0.0243
    3CHL1   C18  175   4.110   3.425   9.666 -0.1896  0.1614  0.3750
    3CHL1  H18A  176   4.155   3.501   9.734  1.7157 -0.7534  0.2211
    3CHL1  H18B  177   4.093   3.487   9.576  1.7921 -0.7929 -0.7327
    3CHL1  H18C  178   4.014   3.391   9.709 -1.0594  1.0348 -0.8120
    3CHL1   C12  179   4.129   3.172   9.660 -0.0273  0.1549 -0.5743
    3CHL1  H12A  180   4.039   3.171   9.596 -0.0802  2.3414 -0.5965
    3CHL1  H12B  181   4.204   3.097   9.625  0.5424  0.2326  0.4350
    3CHL1   C11  182   4.086   3.144   9.800  0.4947  0.1032  0.2011
    3CHL1  H11A  183   3.997   3.206   9.823  0.7407  0.0538  1.3570
    3CHL1  H11B  184   4.064   3.036   9.808  1.5105  0.0007  2.7733
    3CHL1    C9  185   4.200   3.176   9.909 -0.6563 -0.1720 -0.3254
    3CHL1    H9  186   4.279   3.100   9.894  0.0981  0.5168  0.0854
    3CHL1   C10  187   4.158   3.161  10.058  0.0520  0.2143 -0.0944
    3CHL1   C19  188   4.038   3.254  10.075 -0.1518  0.1769 -0.7074
    3CHL1  H19A  189   4.004   3.272  10.180  1.3399  0.2771 -0.2176
    3CHL1  H19B  190   4.052   3.356  10.033 -2.2028  0.5675 -0.5823
    3CHL1  H19C  191   3.952   3.207  10.024  1.2773 -1.4774 -1.6672
    3CHL1    C1  192   4.124   3.006  10.085  0.4173 -0.0036 -0.1828
    3CHL1   H1A  193   4.030   2.989  10.029 -1.0266 -2.9430  2.7825
    3CHL1   H1B  194   4.212   2.945  10.056  2.1213  0.6249  3.1014
    3CHL1    C2  195   4.114   2.963  10.235 -0.2125  0.0090  0.1058
    3CHL1   H2A  196   4.105   2.855  10.258 -0.9912  0.1270  0.3970
    3CHL1   H2B  197   4.019   3.001  10.280  0.2193  2.1053 -0.6448
    3CHL1   C20  198   4.189   3.331   9.386 -0.4288 -0.2960 -0.5794
    3CHL1   H20  199   4.081   3.345   9.405 -0.3894 -0.1492 -0.4599
    3CHL1   C21  200   4.172   3.188   9.322 -0.4266  0.1652  0.5166
    3CHL1  H21A  201   4.084   3.179   9.256 -0.7049 -0.2604  0.9431
    3CHL1  H21B  202   4.173   3.110   9.401 -1.3378  0.2130  0.5827
    3CHL1  H21C  203   4.258   3.158   9.258  0.4590 -0.2143  1.8444
    3CHL1   C22  204   4.233   3.433   9.281 -0.0895  0.5143 -0.2882
    3CHL1  H22A  205   4.214   3.532   9.330  2.1031  1.9441 -2.1153
    3CHL1  H22B  206   4.341   3.437   9.255  0.2111 -0.1458  0.7833
    3CHL1   C23  207   4.153   3.440   9.148 -0.0224 -0.6399  0.3563
    3CHL1  H23A  208   4.201   3.390   9.061 -1.1495  0.0357 -0.6962
    3CHL1  H23B  209   4.047   3.405   9.148 -0.5747  0.9119 -0.4802
    3CHL1   C24  210   4.139   3.588   9.102  0.4495 -0.1529  0.2011
    3CHL1  H24A  211   4.066   3.639   9.169  1.1337 -0.9102  1.5598
    3CHL1  H24B  212   4.229   3.650   9.119 -1.2766  3.5078 -2.4283
    3CHL1   C25  213   4.094   3.607   8.958 -0.0394  0.1150 -1.1896
    3CHL1   H25  214   4.138   3.541   8.881 -2.6314 -0.9808 -1.8410
    3CHL1   C26  215   3.947   3.580   8.939 -0.4006  0.3246  0.2728
    3CHL1  H26A  216   3.914   3.488   8.992  0.0718  1.1458  2.0769
    3CHL1  H26B  217   3.902   3.665   8.996  4.1788  3.2844 -0.0503
    3CHL1  H26C  218   3.905   3.595   8.837  0.0143  0.4912  0.1260
    3CHL1   C27  219   4.125   3.742   8.909 -0.3467 -0.0577  0.1475
    3CHL1  H27A  220   4.069   3.751   8.814 -2.1537  1.2273  1.2654
    3CHL1  H27B  221   4.080   3.821   8.974 -1.4945 -0.0590 -0.6110
    3CHL1  H27C  222   4.232   3.765   8.890 -0.6693  0.5826 -0.9836
    4CHL1    C3  223   3.130   4.731  10.344  0.0107  0.8432  0.3691
    4CHL1    H3  224   3.033   4.680  10.329  0.5265 -0.1403  0.3114
    4CHL1    O3  225   3.153   4.776  10.479  1.0630 -0.6712 -0.1672
    4CHL1   H3'  226   3.241   4.813  10.469  0.9980 -0.1688  0.9975
    4CHL1    C4  227   3.249   4.641  10.294  0.3509  0.2189 -0.2416
    4CHL1   H4A  228   3.340   4.698  10.318 -0.1187  1.5473 -1.4831
    4CHL1   H4B  229   3.245   4.555  10.364 -0.2056  2.0252  2.0758
    4CHL1    C5  230   3.248   4.609  10.145  0.9994  0.0497  0.0918
    4CHL1    C6  231   3.248   4.485  10.105 -0.5891  0.1642  1.1275
    4CHL1    H6  232   3.237   4.401  10.175 -1.0739 -1.2293 -0.5337
    4CHL1    C7  233   3.256   4.446   9.959 -0.2218 -0.3827 -0.0047
    4CHL1   H7A  234   3.337   4.371   9.945  2.7641  2.5557  0.3765
    4CHL1   H7B  235   3.156   4.408   9.927 -0.0328 -2.3810  1.5955
    4CHL1    C8  236   3.290   4.569   9.861 -0.2308  0.0879  0.2201
    4CHL1    H8  237   3.400   4.582   9.861  0.4123 -3.8948  0.9922
    4CHL1   C14  238   3.253   4.535   9.723  0.3284  0.1157  0.6197
    4CHL1   H14  239   3.148   4.498   9.726  1.5822 -3.9554  0.5989
    4CHL1   C15  240   3.311   4.405   9.662 -0.4708  0.2299 -0.2768
    4CHL1  H15A  241   3.414   4.375   9.689 -0.3680  0.7551 -0.0798
    4CHL1  H15B  242   3.253   4.317   9.699  0.9618 -0.8271 -0.4541
    4CHL1   C16  243   3.306   4.429   9.511 -0.5924 -1.2100  0.5498
    4CHL1  H16A  244   3.409   4.418   9.471 -0.1836  0.8310  0.9245
    4CHL1  H16B  245   3.234   4.356   9.468 -0.3549 -1.1021 -0.0323
    4CHL1   C17  246   3.256   4.573   9.488  0.1511  0.3080 -0.6109
    4CHL1   H17  247   3.145   4.568   9.493  0.2136 -0.3818  0.4231
    4CHL1   C13  248   3.284   4.645   9.623  0.2355  0.0443 -0.5506
    4CHL1   C18  249   3.438   4.681   9.619  0.0945 -0.2515 -0.0364
    4CHL1  H18A  250   3.479   4.709   9.718  1.6766 -0.2791 -0.6581
    4CHL1  H18B  251   3.508   4.601   9.587  0.0878  0.2469 -1.3573
    4CHL1  H18C  252   3.444   4.774   9.558  4.1816 -0.7112 -0.6248
    4CHL1   C12  253   3.196   4.765   9.655  0.3350 -0.7011 -0.2582
    4CHL1  H12A  254   3.216   4.851   9.587  1.0929  1.2904  2.3064
    4CHL1  H12B  255   3.094   4.725   9.640 -0.7625 -0.5924  4.9431
    4CHL1   C11  256   3.218   4.817   9.807  0.4580 -0.1674 -0.2954
    4CHL1  H11A  257   3.323   4.854   9.805  0.9986 -1.6251 -0.3433
    4CHL1  H11B  258   3.140   4.894   9.825 -0.1857 -1.0566  0.8997
    4CHL1    C9  259   3.207   4.696   9.907 -0.1582  0.0230  0.3980
    4CHL1    H9  260   3.102   4.661   9.908  0.5471 -2.2695  0.1455
    4CHL1   C10  261   3.247   4.730  10.054  0.2153 -0.2878 -0.1812
    4CHL1   C19  262   3.380   4.793  10.057 -0.5523  0.8713  0.1097
    4CHL1  H19A  263   3.402   4.829  10.160  0.5167 -0.2220  0.2892
    4CHL1  H19B  264   3.456   4.714  10.043 -1.6192 -0.0631 -0.5829
    4CHL1  H19C  265   3.399   4.873   9.983 -2.7237 -0.0025 -1.4785
    4CHL1    C1  266   3.129   4.827  10.098  0.9614 -0.3904 -0.4603
    4CHL1   H1A  267   3.121   4.923  10.043 -1.4469  0.2876  0.9213
    4CHL1   H1B  268   3.037   4.774  10.067  0.2661  1.1558 -1.1512
    4CHL1    C2  269   3.120   4.854  10.251 -0.3382  0.0074  0.2470
    4CHL1   H2A  270   3.030   4.917  10.267  1.4161  2.5295  0.7084
    4CHL1   H2B  271   3.219   4.901  10.269  1.4472 -3.3256 -0.1574
    4CHL1   C20  272   3.308   4.628   9.357  0.7660  0.1527 -0.0724
    4CHL1   H20  273   3.419   4.623   9.355  0.7565 -0.0802 -0.0765
    4CHL1   C21  274   3.254   4.766   9.337  0.9902 -0.6572  0.7517
    4CHL1  H21A  275   3.319   4.827   9.404 -1.4217 -0.5135  3.0938
    4CHL1  H21B  276   3.148   4.773   9.369  0.8420 -0.6398  0.2637
    4CHL1  H21C  277   3.276   4.805   9.235  1.8731 -0.0788  1.1440
    4CHL1   C22  278   3.270   4.548   9.229  0.0279 -0.2340 -0.2469
    4CHL1  H22A  279   3.313   4.598   9.139 -1.2336 -0.6468 -1.0951
    4CHL1  H22B  280   3.312   4.446   9.243 -1.3782 -1.0728 -1.8120
    4CHL1   C23  281   3.121   4.538   9.194  0.0878  0.5395  0.4424
    4CHL1  H23A  282   3.072   4.453   9.245  3.7147 -2.2372 -0.2912
    4CHL1  H23B  283   3.074   4.636   9.218  2.8001  1.6569  1.5943
    4CHL1   C24  284   3.103   4.504   9.045 -0.6224  0.6474 -0.8680
    4CHL1  H24A  285   3.162   4.582   8.992 -0.3040  1.6521  0.8813
    4CHL1  H24B  286   3.162   4.410   9.042  0.6820  1.1512  3.0368
    4CHL1   C25  287   2.963   4.498   8.990 -0.2006  0.2149  0.7275
    4CHL1   H25  288   2.896   4.433   9.051  0.3077 -0.9043  0.1347
    4CHL1   C26  289   2.904   4.641   8.970 -0.4603  0.3377  0.3128
    4CHL1  H26A  290   2.847   4.680   9.058 -0.4113  1.8468 -0.2899
    4CHL1  H26B  291   2.989   4.710   8.954  0.1399  0.2502  2.7498
    4CHL1  H26C  292   2.836   4.653   8.883  1.1287  0.7814 -0.8996
    4CHL1   C27  293   2.970   4.426   8.853 -0.0232  0.1775  0.3983
    4CHL1  H27A  294   2.990   4.319   8.873  1.1034  0.4635  0.8674
    4CHL1  H27B  295   2.874   4.428   8.797 -0.1488 -0.6734  0.5771
    4CHL1  H27C  296   3.043   4.470   8.782 -0.5051  1.5538  0.7177
    5CHL1    C3  297   4.004   2.411  10.213  0.5465 -0.4005 -0.1426
    5CHL1    H3  298   4.101   2.463  10.229  0.3276 -0.1756  0.5034
    5CHL1    O3  299   3.961   2.356  10.335  0.3480 -0.1834 -0.1273
    5CHL1   H3'  300   3.905   2.421  10.377 -0.5839  0.0208 -1.6528
    5CHL1    C4  301   3.905   2.502  10.149 -0.0462 -0.1556 -0.2023
    5CHL1   H4A  302   3.808   2.449  10.136  0.2021 -0.4830 -0.7384
    5CHL1   H4B  303   3.885   2.581  10.225 -1.3488  0.4895 -1.1621
    5CHL1    C5  304   3.940   2.556  10.011  0.1086  0.4864  0.6547
    5CHL1    C6  305   3.949   2.687   9.989  0.2696  0.5157  0.6193
    5CHL1    H6  306   3.925   2.749  10.077 -0.6484 -2.7934  2.8692
    5CHL1    C7  307   4.001   2.749   9.860 -0.0842 -0.2367 -0.3687
    5CHL1   H7A  308   3.937   2.840   9.852  0.0264  0.2790  3.1253
    5CHL1   H7B  309   4.097   2.803   9.875  0.5703 -1.0405 -1.4659
    5CHL1    C8  310   4.002   2.649   9.738  0.9733  0.6433 -0.7600
    5CHL1    H8  311   3.895   2.626   9.719  0.5162  1.6866  0.3569
    5CHL1   C14  312   4.078   2.691   9.615 -0.4198  0.1129 -0.5128
    5CHL1   H14  313   4.185   2.706   9.643 -1.1564  0.3826  2.4817
    5CHL1   C15  314   4.037   2.822   9.551  0.1696 -0.4711  0.3607
    5CHL1  H15A  315   3.931   2.818   9.520  0.2705 -1.4393  0.0856
    5CHL1  H15B  316   4.053   2.919   9.603 -1.0873 -1.1323  2.0561
    5CHL1   C16  317   4.117   2.824   9.417  0.1869 -0.6027 -0.0349
    5CHL1  H16A  318   4.041   2.846   9.339 -3.0397 -1.2536  2.6827
    5CHL1  H16B  319   4.200   2.898   9.415 -0.5318  0.2514 -2.9958
    5CHL1   C17  320   4.165   2.675   9.391  0.3994 -0.8514  0.4757
    5CHL1   H17  321   4.271   2.683   9.423 -0.0792 -1.8298  2.4274
    5CHL1   C13  322   4.091   2.590   9.494 -0.1939  0.2015  0.2036
    5CHL1   C18  323   3.950   2.546   9.436  0.0852 -0.5852 -0.6294
    5CHL1  H18A  324   3.902   2.636   9.392 -0.0661 -0.5684 -0.4325
    5CHL1  H18B  325   3.960   2.460   9.366  0.1073 -0.0199 -1.3293
    5CHL1  H18C  326   3.888   2.516   9.523 -0.7566  1.7354 -0.3526
    5CHL1   C12  327   4.163   2.471   9.560  0.1163  0.3181  0.1932
    5CHL1  H12A  328   4.176   2.395   9.481 -1.3605  1.1429 -0.8868
    5CHL1  H12B  329   4.270   2.496   9.581  0.9477 -0.4647 -2.7088
    5CHL1   C11  330   4.081   2.418   9.676  0.2665  0.2869 -0.4562
    5CHL1  H11A  331   3.988   2.372   9.636  0.8887 -1.4917  0.0209
    5CHL1  H11B  332   4.137   2.333   9.721  1.5559  0.2832 -1.9724
    5CHL1    C9  333   4.061   2.518   9.789  0.6519 -0.1012 -0.2408
    5CHL1    H9  334   4.157   2.556   9.828  0.1885  1.3852 -0.4721
    5CHL1   C10  335   3.980   2.455   9.911  0.2541 -0.0268  0.0882
    5CHL1   C19  336   3.845   2.394   9.856  1.1863 -0.3766  0.2026
    5CHL1  H19A  337   3.783   2.360   9.941 -1.9282  1.1726 -1.3080
    5CHL1  H19B  338   3.783   2.472   9.807  1.3900  0.1600  0.7963
    5CHL1  H19C  339   3.848   2.299   9.798 -2.7968 -0.4362 -0.1572
    5CHL1    C1  340   4.059   2.345   9.979 -0.8674  0.4820  0.5329
    5CHL1   H1A  341   4.069   2.262   9.906  0.5780  1.2361 -0.1879
    5CHL1   H1B  342   4.165   2.379   9.987 -0.7594 -0.0167  1.1876
    5CHL1    C2  343   4.028   2.295  10.118 -0.0474 -0.3076 -0.5862
    5CHL1   H2A  344   4.086   2.208  10.156  2.5556  0.8814 -1.6056
    5CHL1   H2B  345   3.926   2.250  10.119 -0.9162  1.5475 -0.7394
    5CHL1   C20  346   4.178   2.638   9.241  0.5802 -0.9922  0.7375
    5CHL1   H20  347   4.080   2.635   9.189  1.0533 -3.5581 -0.1660
    5CHL1   C21  348   4.252   2.503   9.240 -0.6380  0.7803  0.4688
    5CHL1  H21A  349   4.189   2.427   9.291  2.2485 -0.8159  1.9091
    5CHL1  H21B  350   4.353   2.513   9.285 -0.8212 -0.1543  1.1230
    5CHL1  H21C  351   4.273   2.468   9.137 -1.2600  0.9231  0.2889
    5CHL1   C22  352   4.271   2.740   9.169  0.4889  0.3335 -0.7513
    5CHL1  H22A  353   4.220   2.837   9.185 -0.4403 -0.5329  2.2229
    5CHL1  H22B  354   4.373   2.749   9.211 -0.4472 -0.6195  1.9765
    5CHL1   C23  355   4.291   2.710   9.021  0.2377 -0.5017  0.4248
    5CHL1  H23A  356   4.326   2.607   9.000  1.7012  0.3554 -1.6229
    5CHL1  H23B  357   4.186   2.708   8.982 -0.3736  1.9111  1.7606
    5CHL1   C24  358   4.370   2.820   8.947  0.0598  0.1377  0.1292
    5CHL1  H24A  359   4.316   2.911   8.980 -1.4903 -0.1456 -1.4773
    5CHL1  H24B  360   4.475   2.820   8.981  0.6306  0.3020 -1.5318
    5CHL1   C25  361   4.375   2.819   8.795  0.3364 -0.7832  0.4577
    5CHL1   H25  362   4.270   2.809   8.761  0.7544  0.5606 -1.4324
    5CHL1   C26  363   4.444   2.953   8.744  0.3104 -0.3276 -0.3615
    5CHL1  H26A  364   4.431   2.976   8.637  0.6329  0.1121 -0.3079
    5CHL1  H26B  365   4.400   3.035   8.805  0.2553 -0.7872  0.2369
    5CHL1  H26C  366   4.551   2.949   8.772  1.0920 -0.8624 -3.1230
    5CHL1   C27  367   4.457   2.704   8.742 -0.4267  0.5240 -0.2996
    5CHL1  H27A  368   4.546   2.695   8.809  0.5681 -0.2895 -1.6855
    5CHL1  H27B  369   4.405   2.606   8.743  0.4659 -0.0348 -2.6407
    5CHL1  H27C  370   4.490   2.732   8.640  0.9403  1.6955  0.4180
    6CHL1    C3  371   2.754   0.962  10.250  0.5845  0.1211  0.2494
    6CHL1    H3  372   2.737   0.855  10.229 -3.7155  0.4827  1.0440
    6CHL1    O3  373   2.773   0.989  10.391 -0.3539  0.0448 -0.1966
    6CHL1   H3'  374   2.779   1.084  10.396 -1.3913  0.1373 -0.4317
    6CHL1    C4  375   2.891   1.002  10.182 -0.0315 -0.3130 -0.6402
    6CHL1   H4A  376   2.933   1.096  10.223  0.6175 -0.7830 -0.1916
    6CHL1   H4B  377   2.955   0.916  10.213 -0.3618 -0.7140 -1.0724
    6CHL1    C5  378   2.886   1.020  10.031  0.1574 -0.0906  0.2203
    6CHL1    C6  379   2.969   0.950   9.952  0.4858  0.3111 -0.1017
    6CHL1    H6  380   3.052   0.886   9.987 -0.5868 -0.7351  0.6016
    6CHL1    C7  381   2.967   0.966   9.804 -0.4843 -0.1182  0.2834
    6CHL1   H7A  382   3.074   0.980   9.777 -0.2077  0.2825  1.5376
    6CHL1   H7B  383   2.929   0.870   9.764  0.1283 -0.1153 -0.3352
    6CHL1    C8  384   2.886   1.085   9.747 -0.4524 -0.6388  0.2880
    6CHL1    H8  385   2.946   1.178   9.758 -0.3627 -0.7910  1.1437
    6CHL1   C14  386   2.855   1.067   9.601 -0.1710  0.7844  0.2579
    6CHL1   H14  387   2.790   0.977   9.602 -0.5783  1.0327  2.6864
    6CHL1   C15  388   2.977   1.040   9.517  0.7957  0.7723  0.0628
    6CHL1  H15A  389   3.060   1.110   9.543  4.1899 -2.6885 -0.4992
    6CHL1  H15B  390   3.018   0.937   9.531  0.5197  0.4568 -1.3097
    6CHL1   C16  391   2.926   1.065   9.373 -0.2613 -0.1785  0.7115
    6CHL1  H16A  392   3.000   1.132   9.325 -0.6968 -0.7798 -0.8660
    6CHL1  H16B  393   2.914   0.972   9.313  1.7104 -1.2426  1.8523
    6CHL1   C17  394   2.789   1.142   9.386 -0.2037  0.3887 -0.5057
    6CHL1   H17  395   2.725   1.052   9.376 -0.1424  0.4755 -1.9994
    6CHL1   C13  396   2.779   1.184   9.535  0.0722 -0.0049 -0.5056
    6CHL1   C18  397   2.870   1.314   9.546  0.2696  1.2811 -0.1042
    6CHL1  H18A  398   2.971   1.299   9.501  0.6922  1.4412  0.7735
    6CHL1  H18B  399   2.822   1.400   9.495  0.9416  1.8237  0.1685
    6CHL1  H18C  400   2.882   1.336   9.654  0.4213  0.1750  0.1198
    6CHL1   C12  401   2.642   1.188   9.610  1.0528 -0.5118 -0.5089
    6CHL1  H12A  402   2.581   1.266   9.561  0.3998 -0.9786 -0.4439
    6CHL1  H12B  403   2.595   1.087   9.606  1.1961 -0.7289  1.7361
    6CHL1   C11  404   2.666   1.214   9.763 -1.1001 -1.0372  0.6635
    6CHL1  H11A  405   2.713   1.314   9.777  0.6115 -1.9138  1.5559
    6CHL1  H11B  406   2.571   1.223   9.819 -1.5586 -1.6077 -0.0086
    6CHL1    C9  407   2.755   1.103   9.827 -0.7755  0.1451  0.3539
    6CHL1    H9  408   2.694   1.012   9.806  0.0724 -0.4465  0.4372
    6CHL1   C10  409   2.769   1.108   9.981 -0.2994 -0.5533  0.8573
    6CHL1   C19  410   2.786   1.258  10.020 -0.0850 -0.2967 -0.0104
    6CHL1  H19A  411   2.814   1.261  10.128  1.5258 -0.2626 -0.4035
    6CHL1  H19B  412   2.862   1.303   9.953 -1.3292  0.5256 -0.9219
    6CHL1  H19C  413   2.696   1.319  10.000 -0.2509 -0.3276  0.6236
    6CHL1    C1  414   2.641   1.050  10.053  0.7807  0.3992  0.8244
    6CHL1   H1A  415   2.551   1.106  10.021  0.5458  0.7426  2.0241
    6CHL1   H1B  416   2.616   0.950  10.012 -1.8244  1.4972 -0.5278
    6CHL1    C2  417   2.639   1.055  10.205  0.1877 -0.6024 -0.3439
    6CHL1   H2A  418   2.535   1.028  10.233  1.0479 -1.7062  2.0234
    6CHL1   H2B  419   2.651   1.159  10.239 -0.2499 -0.6856  0.0721
    6CHL1   C20  420   2.757   1.237   9.284  0.2958  0.9963  0.5180
    6CHL1   H20  421   2.823   1.325   9.297  2.2979 -0.2903 -0.4940
    6CHL1   C21  422   2.609   1.275   9.273 -0.5503 -0.5600  1.1019
    6CHL1  H21A  423   2.572   1.339   9.356 -1.8239 -2.1719  1.8408
    6CHL1  H21B  424   2.548   1.182   9.265  0.1487 -0.9332 -0.3041
    6CHL1  H21C  425   2.581   1.338   9.185 -0.1726  0.5116  1.7365
    6CHL1   C22  426   2.804   1.185   9.139  0.0186 -0.1397 -1.0535
    6CHL1  H22A  427   2.901   1.131   9.136  1.4453  2.2748 -1.4952
    6CHL1  H22B  428   2.727   1.117   9.099  0.2339 -1.5936  0.8465
    6CHL1   C23  429   2.795   1.284   9.021 -0.1725  0.1593  0.8441
    6CHL1  H23A  430   2.690   1.306   8.992  0.3829  1.0848 -0.6342
    6CHL1  H23B  431   2.825   1.384   9.060 -1.4783  1.3820 -1.0634
    6CHL1   C24  432   2.873   1.227   8.906 -0.6644  0.4719  0.9425
    6CHL1  H24A  433   2.979   1.254   8.923 -0.0821 -1.4373  0.5477
    6CHL1  H24B  434   2.876   1.116   8.899  0.9114  0.5971 -1.2782
    6CHL1   C25  435   2.845   1.296   8.765 -0.3197  0.5704 -0.2637
    6CHL1   H25  436   2.820   1.401   8.787  1.1827  1.1035 -0.9528
    6CHL1   C26  437   2.978   1.300   8.682  0.2506 -0.2960  0.5502
    6CHL1  H26A  438   3.058   1.345   8.743 -2.2687 -0.0390  3.9898
    6CHL1  H26B  439   3.000   1.195   8.653  1.9848  0.0541  0.4902
    6CHL1  H26C  440   2.967   1.343   8.581  0.7117 -0.6223  0.3602
    6CHL1   C27  441   2.730   1.222   8.687 -0.9577  0.3376 -0.3669
    6CHL1  H27A  442   2.739   1.111   8.689  1.0568  0.3751 -2.7182
    6CHL1  H27B  443   2.641   1.249   8.748  0.2589 -1.5084  2.4173
    6CHL1  H27C  444   2.716   1.249   8.580  1.6682 -2.6425 -1.6197
    7CHL1    C3  445   5.924   3.736  10.398  0.0549  0.0564 -0.0786
    7CHL1    H3  446   5.841   3.797  10.355 -0.0312 -0.5728 -0.8334
    7CHL1    O3  447   5.907   3.713  10.534  0.1459  0.0487 -0.6600
    7CHL1   H3'  448   5.916   3.799  10.574  0.7755 -0.6361  0.7342
    7CHL1    C4  449   5.930   3.598  10.330  0.7178  0.1294  0.2926
    7CHL1   H4A  450   6.012   3.540  10.378  1.1063  0.3233 -0.1315
    7CHL1   H4B  451   5.844   3.538  10.366 -0.8094  1.6582 -0.6882
    7CHL1    C5  452   5.939   3.619  10.182  0.2800 -0.2794 -0.6661
    7CHL1    C6  453   5.843   3.581  10.096  1.1085  0.2502 -0.4648
    7CHL1    H6  454   5.772   3.509  10.139  2.0913 -0.3735  0.1628
    7CHL1    C7  455   5.846   3.590   9.949 -0.4520 -0.1363  0.1999
    7CHL1   H7A  456   5.815   3.498   9.894  2.3183 -0.4834 -0.9278
    7CHL1   H7B  457   5.777   3.669   9.914  1.8131  1.6527 -0.4447
    7CHL1    C8  458   5.983   3.624   9.902 -0.1503 -0.5217  0.4330
    7CHL1    H8  459   6.046   3.534   9.916  2.3140  1.2715  1.6190
    7CHL1   C14  460   5.975   3.661   9.753 -0.2936 -0.0037 -1.0715
    7CHL1   H14  461   5.904   3.746   9.747 -0.1120  0.1291 -1.4071
    7CHL1   C15  462   5.919   3.558   9.657  0.0079 -0.7966  0.1397
    7CHL1  H15A  463   5.962   3.458   9.678 -0.9800 -0.8045  2.4387
    7CHL1  H15B  464   5.810   3.542   9.673  0.0468  0.8571  2.6251
    7CHL1   C16  465   5.953   3.613   9.519  0.0061 -0.0568  0.2201
    7CHL1  H16A  466   6.006   3.534   9.462 -0.7733 -0.7655  0.4632
    7CHL1  H16B  467   5.864   3.648   9.462  0.2920  1.1207  0.4633
    7CHL1   C17  468   6.048   3.745   9.543 -0.3990  1.4151 -0.1663
    7CHL1   H17  469   5.981   3.834   9.544 -0.6810  1.1956  0.5393
    7CHL1   C13  470   6.103   3.718   9.688 -0.4389  0.7821  0.2883
    7CHL1   C18  471   6.210   3.603   9.681  0.6207  0.8815 -0.5427
    7CHL1  H18A  472   6.166   3.513   9.632 -2.5417  0.3859  2.8165
    7CHL1  H18B  473   6.305   3.638   9.634  0.8251  0.5943 -0.3454
    7CHL1  H18C  474   6.252   3.579   9.781  3.0576  2.1068 -1.2016
    7CHL1   C12  475   6.146   3.835   9.774  0.3193  0.3771 -0.2005
    7CHL1  H12A  476   6.225   3.894   9.721 -0.1214 -0.6252 -2.0532
    7CHL1  H12B  477   6.057   3.901   9.762 -0.8286 -0.5699  2.3641
    7CHL1   C11  478   6.155   3.810   9.929  0.2238  0.4572 -0.0699
    7CHL1  H11A  479   6.243   3.742   9.934  0.5189  0.8928  1.0375
    7CHL1  H11B  480   6.192   3.896   9.988 -0.6354  1.5071 -1.0160
    7CHL1    C9  481   6.033   3.743   9.992 -0.6856  0.3490  0.3654
    7CHL1    H9  482   5.948   3.814   9.978  0.7337  1.9301 -0.5770
    7CHL1   C10  483   6.056   3.711  10.142  0.1669  0.7637 -0.5341
    7CHL1   C19  484   6.185   3.626  10.153 -0.1813  0.5806 -0.3987
    7CHL1  H19A  485   6.201   3.560  10.065 -0.8187 -1.1070  0.6939
    7CHL1  H19B  486   6.278   3.686  10.150  2.7025 -3.4954 -0.6594
    7CHL1  H19C  487   6.198   3.572  10.249 -0.6896 -2.0825 -1.7431
    7CHL1    C1  488   6.058   3.837  10.226 -0.6399 -0.4027  0.4411
    7CHL1   H1A  489   6.152   3.892  10.201  0.0266 -0.4210  2.6504
    7CHL1   H1B  490   5.969   3.897  10.198 -0.1640  0.5183  0.8176
    7CHL1    C2  491   6.049   3.820  10.377 -0.0680 -0.3726 -0.0514
    7CHL1   H2A  492   6.030   3.917  10.427  2.6300 -0.4168  1.2385
    7CHL1   H2B  493   6.134   3.763  10.421 -0.2052 -2.5214 -2.3318
    7CHL1   C20  494   6.149   3.769   9.431 -0.3277  0.2792  0.2550
    7CHL1   H20  495   6.240   3.705   9.434 -1.9957 -2.2529 -0.4991
    7CHL1   C21  496   6.166   3.920   9.431 -0.4791  0.0941  0.1218
    7CHL1  H21A  497   6.246   3.950   9.359  0.3873 -1.7929  0.2514
    7CHL1  H21B  498   6.191   3.967   9.528  1.4279 -0.2082 -0.1852
    7CHL1  H21C  499   6.068   3.967   9.408 -1.7383 -2.0919  0.7434
    7CHL1   C22  500   6.074   3.741   9.293 -0.9374  0.4722 -0.4374
    7CHL1  H22A  501   6.065   3.630   9.283  2.1370  0.1472 -0.6685
    7CHL1  H22B  502   5.973   3.786   9.288 -1.3781 -0.6062 -1.9402
    7CHL1   C23  503   6.145   3.786   9.161  0.7137 -0.3994  0.5874
    7CHL1  H23A  504   6.068   3.773   9.081 -0.1812  0.1129  1.3404
    7CHL1  H23B  505   6.172   3.894   9.157  2.1955 -0.7666 -0.0326
    7CHL1   C24  506   6.267   3.703   9.122 -0.2363 -0.6858  0.5155
    7CHL1  H24A  507   6.349   3.721   9.196  0.3367 -0.7303 -0.0944
    7CHL1  H24B  508   6.238   3.596   9.119  0.3458 -0.8575  0.9198
    7CHL1   C25  509   6.340   3.732   8.988  0.5460 -0.2741 -0.7108
    7CHL1   H25  510   6.400   3.640   8.974  1.9322  0.4046  0.4945
    7CHL1   C26  511   6.245   3.748   8.864  0.5199 -0.7857  0.5003
    7CHL1  H26A  512   6.151   3.696   8.890 -0.9571  2.0935  1.3804
    7CHL1  H26B  513   6.223   3.856   8.850  1.1664 -0.5967  0.8771
    7CHL1  H26C  514   6.285   3.709   8.768 -0.8780 -1.9624  0.3802
    7CHL1   C27  515   6.444   3.845   8.995 -0.1577  0.0642  0.2435
    7CHL1  H27A  516   6.474   3.868   8.890 -1.2812  4.4817  0.7061
    7CHL1  H27B  517   6.404   3.941   9.031 -1.8308 -0.3657 -0.3704
    7CHL1  H27C  518   6.538   3.815   9.047  0.8709  0.7196 -1.1631
    8CHL1    C3  519   5.126   5.279  10.204  0.3354 -0.2878 -0.3422
    8CHL1    H3  520   5.084   5.182  10.170 -0.1719 -0.3368  0.3939
    8CHL1    O3  521   5.172   5.264  10.340  0.0851  0.0574  0.6884
    8CHL1   H3'  522   5.090   5.265  10.390 -1.4196  2.0693 -1.5794
    8CHL1    C4  523   5.247   5.308  10.116  0.1448 -0.2646 -0.2299
    8CHL1   H4A  524   5.298   5.404  10.140  0.2956 -0.5734  0.7306
    8CHL1   H4B  525   5.319   5.223  10.126  0.9744 -0.0794 -3.3854
    8CHL1    C5  526   5.192   5.314   9.976  0.0748  0.2687 -0.2973
    8CHL1    C6  527   5.225   5.222   9.884 -0.0820 -0.7146 -0.1562
    8CHL1    H6  528   5.303   5.150   9.910  2.1229  0.5236 -2.8343
    8CHL1    C7  529   5.200   5.242   9.737  0.2785  0.0090  0.2260
    8CHL1   H7A  530   5.290   5.206   9.683 -0.0575 -1.6817  0.7489
    8CHL1   H7B  531   5.118   5.171   9.714  1.9545 -1.0352 -3.0828
    8CHL1    C8  532   5.153   5.386   9.703  0.0021 -0.7904  0.4848
    8CHL1    H8  533   5.239   5.455   9.715 -1.5642  1.2520  0.5419
    8CHL1   C14  534   5.099   5.387   9.560  0.5190  0.2512  0.6149
    8CHL1   H14  535   5.011   5.320   9.567  1.3195 -0.8541  0.2848
    8CHL1   C15  536   5.188   5.335   9.450 -0.0873  0.7698  0.2515
    8CHL1  H15A  537   5.293   5.370   9.459  0.7858 -1.5128 -0.4496
    8CHL1  H15B  538   5.191   5.224   9.454 -3.3715  0.5941  2.6185
    8CHL1   C16  539   5.128   5.397   9.323  0.3738  0.2983 -0.5654
    8CHL1  H16A  540   5.204   5.460   9.272  0.5848 -0.2321 -0.9159
    8CHL1  H16B  541   5.097   5.317   9.252 -1.7088 -0.1930  0.7814
    8CHL1   C17  542   5.006   5.480   9.368 -0.1917 -0.2579 -0.5463
    8CHL1   H17  543   4.921   5.408   9.366 -0.4560  0.0286  0.0153
    8CHL1   C13  544   5.042   5.517   9.516  0.4252  0.5258  0.2506
    8CHL1   C18  545   5.148   5.627   9.518 -0.4332  0.2399 -0.9828
    8CHL1  H18A  546   5.241   5.590   9.471 -1.9744 -0.0052 -4.1078
    8CHL1  H18B  547   5.105   5.721   9.476  1.7187  0.4149 -2.9358
    8CHL1  H18C  548   5.176   5.644   9.625 -2.3372 -0.6640 -0.2986
    8CHL1   C12  549   4.930   5.548   9.606 -0.2979 -0.4515 -0.2521
    8CHL1  H12A  550   4.877   5.642   9.579 -0.1939 -0.3826 -0.2134
    8CHL1  H12B  551   4.840   5.484   9.593 -0.4733  0.0292 -1.6201
    8CHL1   C11  552   4.967   5.551   9.756  0.5243  0.0796  0.6004
    8CHL1  H11A  553   5.022   5.645   9.779 -0.7898  1.1564 -0.4882
    8CHL1  H11B  554   4.872   5.558   9.813  0.4395 -0.5888  0.5550
    8CHL1    C9  555   5.048   5.428   9.801 -0.8085  0.3047  0.3047
    8CHL1    H9  556   4.981   5.340   9.796  0.1417 -0.3763 -1.3688
    8CHL1   C10  557   5.100   5.436   9.951  0.2068  0.4061 -0.2529
    8CHL1   C19  558   5.171   5.574   9.970 -0.0823  0.6877 -0.1790
    8CHL1  H19A  559   5.247   5.587   9.890 -2.0324 -0.3327 -2.3174
    8CHL1  H19B  560   5.089   5.649   9.961 -2.1725 -1.3599  0.7157
    8CHL1  H19C  561   5.215   5.570  10.072 -1.7855  2.9389  0.7344
    8CHL1    C1  562   4.976   5.421  10.054  0.1906  0.2748 -0.5620
    8CHL1   H1A  563   4.916   5.514  10.063 -0.9731 -0.5974  1.4929
    8CHL1   H1B  564   4.915   5.333  10.023  0.9416 -0.7282  0.6764
    8CHL1    C2  565   5.013   5.381  10.202  0.3086 -0.4119  0.3230
    8CHL1   H2A  566   4.922   5.346  10.256 -0.7177  1.7838  0.1325
    8CHL1   H2B  567   5.051   5.477  10.243 -0.8440  0.0152  0.4285
    8CHL1   C20  568   4.969   5.593   9.269 -0.4600  0.0518  0.1146
    8CHL1   H20  569   5.068   5.639   9.254  0.0686 -1.6169 -1.9178
    8CHL1   C21  570   4.875   5.701   9.314 -0.0143 -0.5845 -0.1765
    8CHL1  H21A  571   4.781   5.656   9.352 -0.8032  0.0971 -1.2672
    8CHL1  H21B  572   4.856   5.770   9.229 -1.1718 -1.4798 -0.6689
    8CHL1  H21C  573   4.922   5.766   9.390 -1.6319 -0.5452  0.8321
    8CHL1   C22  574   4.929   5.536   9.128  0.1562  0.2311 -0.3691
    8CHL1  H22A  575   4.996   5.458   9.086 -0.0324  0.5301 -1.2449
    8CHL1  H22B  576   4.826   5.497   9.145  0.5801 -0.0143  1.9425
    8CHL1   C23  577   4.920   5.640   9.017  0.3153 -0.3358  0.5077
    8CHL1  H23A  578   4.817   5.682   9.021 -1.1547 -3.5223 -0.7392
    8CHL1  H23B  579   4.981   5.728   9.047  0.7913 -0.8004  0.9288
    8CHL1   C24  580   4.962   5.579   8.879 -1.2220  0.7390 -0.2179
    8CHL1  H24A  581   5.067   5.545   8.895 -1.2256 -1.3922 -3.6592
    8CHL1  H24B  582   4.909   5.486   8.850  1.0121 -0.6090 -0.2329
    8CHL1   C25  583   4.963   5.689   8.770 -0.3898 -0.6150  0.3354
    8CHL1   H25  584   5.035   5.769   8.795 -0.6273 -0.2651 -0.0974
    8CHL1   C26  585   5.024   5.615   8.651  0.7188  0.5328 -0.1974
    8CHL1  H26A  586   4.941   5.551   8.615  1.7139 -1.8360  1.4089
    8CHL1  H26B  587   5.046   5.688   8.571  0.3434  0.9672  0.0911
    8CHL1  H26C  588   5.106   5.550   8.690  0.6169  0.8753  0.6208
    8CHL1   C27  589   4.822   5.739   8.737  0.7321  0.2758  0.5915
    8CHL1  H27A  590   4.779   5.794   8.823 -2.0471  0.4548 -0.7891
    8CHL1  H27B  591   4.839   5.805   8.649  1.1071 -1.7561 -0.9450
    8CHL1  H27C  592   4.761   5.651   8.704  1.2097 -0.1187  0.7440
    9CHL1    C3  593   1.144   0.693  10.292 -0.3345 -0.2147 -0.3887
    9CHL1    H3  594   1.117   0.796  10.260 -4.4464 -0.2199  2.3784
    9CHL1    O3  595   1.102   0.673  10.424  0.7273 -0.1584  0.0982
    9CHL1   H3'  596   1.149   0.597  10.457 -2.4482 -1.7084  1.4951
    9CHL1    C4  597   1.075   0.588  10.206  0.4045 -0.0070 -0.0330
    9CHL1   H4A  598   1.106   0.487  10.241  1.6800  0.4617  0.2414
    9CHL1   H4B  599   0.965   0.601  10.211  0.5003  0.6058  0.4564
    9CHL1    C5  600   1.127   0.585  10.060  0.2300  0.0789  0.0370
    9CHL1    C6  601   1.051   0.603   9.950  0.2690 -0.1840 -0.0191
    9CHL1    H6  602   0.944   0.608   9.974  0.2350 -0.9249  0.0149
    9CHL1    C7  603   1.100   0.606   9.804  0.4591 -0.1877 -0.5823
    9CHL1   H7A  604   1.021   0.557   9.743 -0.5716 -2.5449  2.4115
    9CHL1   H7B  605   1.104   0.709   9.764 -3.3214  1.9426  3.6868
    9CHL1    C8  606   1.240   0.535   9.790 -0.1543  0.6560 -0.4848
    9CHL1    H8  607   1.219   0.427   9.803  1.6025  0.5308  2.0203
    9CHL1   C14  608   1.302   0.575   9.651  0.0866  0.4006 -0.5972
    9CHL1   H14  609   1.319   0.684   9.661  1.3596  0.1507  0.1863
    9CHL1   C15  610   1.203   0.543   9.535  0.9144 -0.1320 -0.3065
    9CHL1  H15A  611   1.177   0.435   9.540  1.6724 -0.5210 -2.8923
    9CHL1  H15B  612   1.125   0.617   9.508  2.2620  1.7176  0.6470
    9CHL1   C16  613   1.303   0.545   9.411  0.3700  0.9337  0.4010
    9CHL1  H16A  614   1.298   0.447   9.359 -2.1727  1.6463 -0.8325
    9CHL1  H16B  615   1.280   0.623   9.335 -1.6654 -0.2559 -0.2520
    9CHL1   C17  616   1.447   0.564   9.464 -0.0602  0.0554 -0.0353
    9CHL1   H17  617   1.463   0.674   9.463  1.5061 -0.1216 -2.0322
    9CHL1   C13  618   1.435   0.517   9.617  0.1572 -0.1195  0.0957
    9CHL1   C18  619   1.443   0.364   9.632 -0.4509  0.6209 -0.2960
    9CHL1  H18A  620   1.547   0.330   9.615 -0.1044  0.5909  1.6570
    9CHL1  H18B  621   1.418   0.332   9.735 -0.3027  1.4664  0.0173
    9CHL1  H18C  622   1.377   0.312   9.560 -1.0626 -1.1197  1.4586
    9CHL1   C12  623   1.522   0.589   9.715 -0.5966  0.9456 -0.8843
    9CHL1  H12A  624   1.624   0.548   9.697 -0.9195 -1.0340  1.3679
    9CHL1  H12B  625   1.521   0.697   9.690 -1.2106  0.9902 -0.6829
    9CHL1   C11  626   1.483   0.568   9.866 -0.7413  0.3610  0.4618
    9CHL1  H11A  627   1.502   0.460   9.885  1.2438  0.7659  0.9400
    9CHL1  H11B  628   1.548   0.633   9.928 -0.4673  0.1037  0.4477
    9CHL1    C9  629   1.332   0.600   9.894 -0.3357  0.3552 -0.3025
    9CHL1    H9  630   1.335   0.709   9.875  0.5718  0.3549 -0.2038
    9CHL1   C10  631   1.287   0.578  10.046  0.4595  0.1750  0.1205
    9CHL1   C19  632   1.327   0.434  10.083  0.3702 -0.1692  0.0420
    9CHL1  H19A  633   1.437   0.435  10.094  0.3022 -1.2872  1.0452
    9CHL1  H19B  634   1.291   0.391  10.179  1.0558  2.3782  1.5232
    9CHL1  H19C  635   1.310   0.367   9.996 -3.0412 -1.0918  1.2429
    9CHL1    C1  636   1.351   0.692  10.137 -0.6317  0.4746  0.5356
    9CHL1   H1A  637   1.461   0.700  10.123 -0.3644 -2.1663  0.6238
    9CHL1   H1B  638   1.299   0.784  10.103 -1.8011  0.1745  1.4682
    9CHL1    C2  639   1.306   0.686  10.279  0.1808 -0.2982  0.9732
    9CHL1   H2A  640   1.357   0.761  10.343  1.5489  0.1832 -0.6186
    9CHL1   H2B  641   1.341   0.591  10.323  2.5956  0.2078  0.3242
    9CHL1   C20  642   1.565   0.507   9.379 -0.1738  0.0118  0.1878
    9CHL1   H20  643   1.556   0.399   9.401 -2.5949  0.6525  2.9441
    9CHL1   C21  644   1.698   0.569   9.429 -0.2291 -0.1915  0.5681
    9CHL1  H21A  645   1.785   0.533   9.370 -1.1555 -1.5077 -0.0436
    9CHL1  H21B  646   1.714   0.541   9.536  0.7489  1.0428  0.7721
    9CHL1  H21C  647   1.704   0.680   9.423  2.5636 -0.2398  1.1476
    9CHL1   C22  648   1.547   0.541   9.225  0.2874 -0.3322 -1.0311
    9CHL1  H22A  649   1.442   0.508   9.209  0.0722 -0.3461  0.2852
    9CHL1  H22B  650   1.541   0.652   9.214  1.6604 -0.1873 -0.4526
    9CHL1   C23  651   1.648   0.473   9.132  0.3786 -0.4100  0.5580
    9CHL1  H23A  652   1.752   0.508   9.154  1.4544 -2.3806 -1.0720
    9CHL1  H23B  653   1.646   0.362   9.142 -0.1958 -0.3524  1.1209
    9CHL1   C24  654   1.622   0.516   8.986  0.5931 -0.4110 -0.0908
    9CHL1  H24A  655   1.513   0.503   8.971  0.9405 -1.5936 -2.0810
    9CHL1  H24B  656   1.640   0.623   8.962  0.2275 -0.2010  0.5545
    9CHL1   C25  657   1.684   0.430   8.879 -0.5205 -0.0081  0.3604
    9CHL1   H25  658   1.674   0.321   8.896 -1.0006 -0.0444 -0.1322
    9CHL1   C26  659   1.631   0.465   8.741  0.0247 -0.1461  1.0234
    9CHL1  H26A  660   1.679   0.403   8.662 -0.6626  1.9935 -1.1884
    9CHL1  H26B  661   1.521   0.453   8.732 -0.2653  1.4996  1.9318
    9CHL1  H26C  662   1.648   0.572   8.715  0.7931 -0.5912 -0.3964
    9CHL1   C27  663   1.836   0.441   8.867 -0.0151 -0.3165 -0.6243
    9CHL1  H27A  664   1.860   0.383   8.775  1.8441  0.0427 -0.4215
    9CHL1  H27B  665   1.869   0.545   8.847  1.3303 -0.8761 -1.5200
    9CHL1  H27C  666   1.884   0.395   8.956 -3.4663 -0.6991  1.1681
   10CHL1    C3  667   0.611   5.312   9.872 -0.3856 -0.2695  0.6316
   10CHL1    H3  668   0.533   5.255   9.817  0.0666 -0.0538 -0.2558
   10CHL1    O3  669   0.630   5.246   9.993  0.5563 -0.2552  0.0390
   10CHL1   H3'  670   0.700   5.296  10.036  0.4468  0.8257 -0.9955
   10CHL1    C4  671   0.733   5.295   9.779  0.5600 -0.4299  0.1497
   10CHL1   H4A  672   0.806   5.361   9.830  0.4120  0.2040 -0.4410
   10CHL1   H4B  673   0.757   5.187   9.770  2.7506 -0.0079  0.5311
   10CHL1    C5  674   0.713   5.352   9.640  1.2785  0.5014 -0.1732
   10CHL1    C6  675   0.739   5.282   9.529  0.3919 -0.4814  0.1842
   10CHL1    H6  676   0.785   5.182   9.530 -3.3157 -2.4030  1.6385
   10CHL1    C7  677   0.723   5.339   9.391  0.1881  0.0284 -0.6347
   10CHL1   H7A  678   0.814   5.314   9.332 -0.8256 -4.1698 -0.7284
   10CHL1   H7B  679   0.637   5.290   9.341  1.1371 -1.7560 -0.5696
   10CHL1    C8  680   0.707   5.491   9.392 -0.0308 -0.3567  0.0646
   10CHL1    H8  681   0.807   5.537   9.399  0.5909 -1.5880 -0.4622
   10CHL1   C14  682   0.649   5.534   9.256 -0.1746 -1.1668 -0.1267
   10CHL1   H14  683   0.557   5.474   9.248 -1.7823  1.1124  0.3532
   10CHL1   C15  684   0.734   5.492   9.138 -0.6056  0.1102  1.2008
   10CHL1  H15A  685   0.836   5.517   9.177 -0.5065  2.2406 -0.2526
   10CHL1  H15B  686   0.724   5.385   9.110 -0.5406  0.6947 -1.3189
   10CHL1   C16  687   0.682   5.590   9.028 -0.0800 -0.7362  0.1326
   10CHL1  H16A  688   0.767   5.638   8.975  0.3440 -1.4766  0.1259
   10CHL1  H16B  689   0.629   5.533   8.948 -0.7038 -0.5424  0.4045
   10CHL1   C17  690   0.582   5.687   9.094 -0.8597  0.5033  0.0875
   10CHL1   H17  691   0.481   5.642   9.093 -0.8775  0.4799  1.1851
   10CHL1   C13  692   0.619   5.682   9.241 -0.0603 -0.4727 -0.0451
   10CHL1   C18  693   0.751   5.764   9.258  0.7910  0.9907 -0.1909
   10CHL1  H18A  694   0.787   5.745   9.362 -0.8907 -1.5082  0.0419
   10CHL1  H18B  695   0.823   5.751   9.174 -1.2802  0.8558 -2.0275
   10CHL1  H18C  696   0.731   5.872   9.249 -0.3115  1.0039  1.8773
   10CHL1   C12  697   0.513   5.727   9.355  0.3002 -0.5620  0.7942
   10CHL1  H12A  698   0.493   5.836   9.346 -1.3807 -0.9492 -0.6931
   10CHL1  H12B  699   0.422   5.675   9.319  0.5368 -0.0063 -0.6936
   10CHL1   C11  700   0.563   5.691   9.490 -0.1950 -1.3246  0.4076
   10CHL1  H11A  701   0.645   5.762   9.512 -1.6683  0.6346 -0.1775
   10CHL1  H11B  702   0.486   5.719   9.565  0.2801  0.6633  0.2009
   10CHL1    C9  703   0.615   5.536   9.508  0.3902 -0.2256 -0.0027
   10CHL1    H9  704   0.526   5.470   9.496  1.7773 -2.3521  0.6704
   10CHL1   C10  705   0.669   5.500   9.651 -0.9119 -0.0524  0.8373
   10CHL1   C19  706   0.787   5.597   9.689  0.7388  0.0700 -0.0687
   10CHL1  H19A  707   0.743   5.700   9.689  0.5012  0.0652 -3.2568
   10CHL1  H19B  708   0.828   5.573   9.789 -1.2408 -0.6276  0.6242
   10CHL1  H19C  709   0.873   5.602   9.619  0.8047  0.3561  0.0308
   10CHL1    C1  710   0.549   5.514   9.754  0.2246 -0.0822 -0.3328
   10CHL1   H1A  711   0.528   5.623   9.768  0.6891 -0.1558  1.1761
   10CHL1   H1B  712   0.452   5.478   9.715  0.5732 -1.1550 -0.2359
   10CHL1    C2  713   0.577   5.455   9.895 -1.0581 -0.2766 -0.3724
   10CHL1   H2A  714   0.484   5.476   9.951 -0.7269  2.0118 -0.5856
   10CHL1   H2B  715   0.658   5.506   9.951  0.5119 -0.0860 -2.6495
   10CHL1   C20  716   0.572   5.815   9.007  0.4017 -0.0504  0.5610
   10CHL1   H20  717   0.673   5.854   8.979  0.7263 -2.2952 -1.8259
   10CHL1   C21  718   0.481   5.918   9.074  1.0596 -0.3761 -0.2955
   10CHL1  H21A  719   0.487   6.018   9.026 -2.4633  0.1530  0.1040
   10CHL1  H21B  720   0.508   5.942   9.179  0.5315 -2.4802  0.3862
   10CHL1  H21C  721   0.375   5.886   9.083  1.4285 -1.3897  0.5899
   10CHL1   C22  722   0.517   5.803   8.858 -0.2801 -0.8996  0.3662
   10CHL1  H22A  723   0.484   5.903   8.824 -0.5730 -0.4527  1.9085
   10CHL1  H22B  724   0.603   5.773   8.794 -0.6693 -0.8951 -0.1728
   10CHL1   C23  725   0.400   5.709   8.834  0.1063  0.3919  0.7386
   10CHL1  H23A  726   0.427   5.602   8.826 -1.2556  0.0515  0.3951
   10CHL1  H23B  727   0.340   5.719   8.927 -1.1999  1.0133 -0.1348
   10CHL1   C24  728   0.312   5.760   8.717 -0.9802 -0.1179 -0.2212
   10CHL1  H24A  729   0.208   5.722   8.727 -1.4221  0.6249 -1.7917
   10CHL1  H24B  730   0.303   5.871   8.716  0.5878  0.0538  0.6949
   10CHL1   C25  731   0.379   5.722   8.580  0.0166  0.3148  0.0026
   10CHL1   H25  732   0.488   5.746   8.572  0.0067  1.3123  2.0803
   10CHL1   C26  733   0.367   5.577   8.558 -0.0731  0.5187 -0.1525
   10CHL1  H26A  734   0.441   5.516   8.615  0.5355 -0.4585 -1.9006
   10CHL1  H26B  735   0.263   5.542   8.577  0.1141  0.1264  0.1781
   10CHL1  H26C  736   0.384   5.557   8.450 -0.0825  2.3235 -0.5189
   10CHL1   C27  737   0.301   5.790   8.468 -0.2163  0.5441  0.3429
   10CHL1  H27A  738   0.314   5.898   8.488 -1.6397  1.0177 -1.0889
   10CHL1  H27B  739   0.333   5.769   8.363 -0.2235  1.3566  0.1724
   10CHL1  H27C  740   0.193   5.775   8.488  0.2972 -0.9277  2.3336
   11CHL1    C3  741   2.847   2.531  10.057  0.5424  0.5029 -0.0260
   11CHL1    H3  742   2.749   2.479  10.043 -0.1184  0.5422  3.4043
   11CHL1    O3  743   2.867   2.541  10.200  0.4651  0.0913 -0.0931
   11CHL1   H3'  744   2.905   2.458  10.227 -1.2613 -2.0064 -3.4255
   11CHL1    C4  745   2.971   2.466  10.001  0.4618  0.2551  0.5399
   11CHL1   H4A  746   3.055   2.520  10.049  0.6221  0.3787  0.1276
   11CHL1   H4B  747   2.983   2.364  10.043  2.5521 -0.6384 -1.9829
   11CHL1    C5  748   2.993   2.471   9.851  0.3893  0.7038  0.5278
   11CHL1    C6  749   3.014   2.360   9.774 -0.3144  0.5210 -0.5370
   11CHL1    H6  750   3.025   2.260   9.819  1.2500  0.6530 -0.5478
   11CHL1    C7  751   3.060   2.370   9.630  0.1943 -0.2666  0.2879
   11CHL1   H7A  752   3.164   2.333   9.617  0.2665  0.2430 -0.6896
   11CHL1   H7B  753   2.996   2.318   9.556  1.3536  1.3091 -1.9523
   11CHL1    C8  754   3.079   2.523   9.580  0.2295  0.0752 -0.2270
   11CHL1    H8  755   3.180   2.560   9.607  0.4089  0.6155 -1.5878
   11CHL1   C14  756   3.053   2.520   9.432  0.0394 -0.6700 -0.3460
   11CHL1   H14  757   2.944   2.504   9.417 -0.3385  1.9073 -0.8219
   11CHL1   C15  758   3.130   2.417   9.347 -0.2354 -0.0758  0.2891
   11CHL1  H15A  759   3.229   2.388   9.389 -0.5906 -2.0958 -0.1812
   11CHL1  H15B  760   3.068   2.325   9.344  0.5337 -0.5778 -0.8207
   11CHL1   C16  761   3.139   2.478   9.212  0.2901  0.2192 -0.8495
   11CHL1  H16A  762   3.247   2.496   9.192  1.0532 -0.4490  2.1364
   11CHL1  H16B  763   3.093   2.407   9.139 -0.5150 -0.8247  0.6021
   11CHL1   C17  764   3.061   2.615   9.222  0.4301  0.2881  0.6586
   11CHL1   H17  765   2.951   2.614   9.211  0.3012  2.4072  1.4894
   11CHL1   C13  766   3.075   2.653   9.372 -0.6842 -0.1373  0.7354
   11CHL1   C18  767   3.222   2.702   9.394  0.7294 -0.0657  0.2344
   11CHL1  H18A  768   3.307   2.639   9.357  0.7859  0.5334 -0.6836
   11CHL1  H18B  769   3.229   2.795   9.334  1.4634 -1.2269 -1.5747
   11CHL1  H18C  770   3.247   2.717   9.501  0.3744 -0.0713  0.3170
   11CHL1   C12  771   2.982   2.761   9.422  0.2456  0.2754  0.3987
   11CHL1  H12A  772   3.031   2.857   9.396  0.8688 -0.0348  0.4053
   11CHL1  H12B  773   2.883   2.765   9.371  0.7995 -3.8508 -1.4433
   11CHL1   C11  774   2.966   2.752   9.571 -0.1342  0.0222  0.3295
   11CHL1  H11A  775   3.055   2.807   9.608  2.7742 -1.8634 -3.1337
   11CHL1  H11B  776   2.879   2.812   9.603  0.2792  0.2589  1.0102
   11CHL1    C9  777   2.967   2.611   9.636 -0.0839  0.3790 -0.1197
   11CHL1    H9  778   2.866   2.573   9.609  1.6110 -4.4994 -0.5401
   11CHL1   C10  779   2.979   2.613   9.788  0.2492  0.6955  0.3788
   11CHL1   C19  780   3.097   2.694   9.838 -0.1823  0.4586  1.0320
   11CHL1  H19A  781   3.098   2.686   9.949  0.1628  0.1139  1.0034
   11CHL1  H19B  782   3.187   2.646   9.793 -2.2537 -1.6526 -1.1520
   11CHL1  H19C  783   3.096   2.798   9.799 -0.5770  0.3823  0.8351
   11CHL1    C1  784   2.839   2.660   9.845 -0.4106  0.9678 -0.5619
   11CHL1   H1A  785   2.808   2.761   9.811 -4.0063  0.4541  0.8118
   11CHL1   H1B  786   2.764   2.583   9.816  1.4857 -1.8258  1.3280
   11CHL1    C2  787   2.831   2.671  10.002 -0.4793  0.6485  0.5486
   11CHL1   H2A  788   2.734   2.713  10.036  0.2414  0.1028  3.6194
   11CHL1   H2B  789   2.906   2.738  10.050  0.4162 -0.4039  0.6476
   11CHL1   C20  790   3.116   2.714   9.115  0.4776  0.0141  0.3528
   11CHL1   H20  791   3.226   2.729   9.123  0.2872  0.9841  1.3926
   11CHL1   C21  792   3.035   2.844   9.102 -0.2759  1.0804 -0.2339
   11CHL1  H21A  793   3.060   2.900   9.009 -3.0899  1.1099 -1.0679
   11CHL1  H21B  794   3.035   2.900   9.198  0.9442 -1.5962  1.4514
   11CHL1  H21C  795   2.931   2.809   9.089  0.7687 -2.2063 -0.7182
   11CHL1   C22  796   3.108   2.641   8.973 -0.3191  0.4664  0.0672
   11CHL1  H22A  797   3.158   2.542   8.981  0.0303  0.7641  1.8702
   11CHL1  H22B  798   3.004   2.614   8.946 -0.3167  1.3076 -0.8625
   11CHL1   C23  799   3.165   2.710   8.858 -0.0542 -0.2891  0.1789
   11CHL1  H23A  800   3.096   2.788   8.822 -0.6021 -0.1712  1.4295
   11CHL1  H23B  801   3.256   2.766   8.891  0.2996  1.3026 -3.0813
   11CHL1   C24  802   3.195   2.619   8.735  0.1015 -0.5949  0.0622
   11CHL1  H24A  803   3.266   2.542   8.773 -0.3010 -1.5919 -1.1459
   11CHL1  H24B  804   3.105   2.571   8.691  0.7069  0.4164 -2.4608
   11CHL1   C25  805   3.246   2.694   8.610 -0.4500 -0.2832 -0.2224
   11CHL1   H25  806   3.168   2.771   8.588 -3.3409 -2.6985  0.7851
   11CHL1   C26  807   3.382   2.763   8.641  0.3274 -0.2646 -0.0226
   11CHL1  H26A  808   3.439   2.782   8.547 -0.2715  0.8963 -0.1720
   11CHL1  H26B  809   3.356   2.862   8.684  2.0502 -0.6667  2.1601
   11CHL1  H26C  810   3.448   2.704   8.708  0.3300  0.5525  0.7178
   11CHL1   C27  811   3.247   2.610   8.484  0.8663 -0.2757 -0.3944
   11CHL1  H27A  812   3.299   2.513   8.500 -1.7312 -1.6818  0.1112
   11CHL1  H27B  813   3.142   2.580   8.468  0.3752 -0.7430  2.9871
   11CHL1  H27C  814   3.290   2.661   8.395 -0.6870 -0.2018 -1.1324
   12CHL1    C3  815   5.036   4.695  10.355 -1.1771  0.5600 -0.1856
   12CHL1    H3  816   5.084   4.783  10.402 -0.0558 -0.4729  0.6536
   12CHL1    O3  817   5.018   4.609  10.466  0.1020  0.1285  0.0997
   12CHL1   H3'  818   4.970   4.667  10.526 -0.9690 -0.8995  0.2652
   12CHL1    C4  819   4.891   4.727  10.295  0.1699 -0.2801  0.3316
   12CHL1   H4A  820   4.848   4.625  10.286  1.0004 -0.6898  0.8598
   12CHL1   H4B  821   4.827   4.774  10.372  0.3247  2.3330 -1.0140
   12CHL1    C5  822   4.882   4.803  10.163  0.4406 -0.0959 -0.9307
   12CHL1    C6  823   4.803   4.912  10.151 -0.4177  0.0542  0.7345
   12CHL1    H6  824   4.739   4.937  10.237  0.7351 -1.5981  2.1696
   12CHL1    C7  825   4.796   4.985  10.020 -0.1160 -0.2491 -0.2414
   12CHL1   H7A  826   4.687   4.981   9.997 -0.5895  0.5266  1.6482
   12CHL1   H7B  827   4.832   5.089  10.030 -0.4265 -0.1660  0.0398
   12CHL1    C8  828   4.858   4.900   9.898  0.0132 -0.1124 -0.4673
   12CHL1    H8  829   4.787   4.817   9.877  1.5615 -1.3799 -0.9597
   12CHL1   C14  830   4.876   4.985   9.773  0.0176 -0.0880  0.1377
   12CHL1   H14  831   4.953   5.060   9.801  0.3271 -0.4696  0.3171
   12CHL1   C15  832   4.748   5.061   9.731  0.2127 -0.3679  0.0194
   12CHL1  H15A  833   4.657   4.998   9.745 -0.7477  0.7336 -1.0373
   12CHL1  H15B  834   4.744   5.158   9.784 -0.2761 -0.2145 -0.2903
   12CHL1   C16  835   4.773   5.080   9.583  0.0480 -0.5063 -0.3101
   12CHL1  H16A  836   4.693   5.025   9.529  2.4895 -0.8521 -3.9668
   12CHL1  H16B  837   4.781   5.186   9.552  2.3146 -0.4289  0.3687
   12CHL1   C17  838   4.915   5.011   9.551 -0.2363 -0.1523  0.4102
   12CHL1   H17  839   4.995   5.088   9.562  0.3877 -0.6697 -0.3535
   12CHL1   C13  840   4.935   4.906   9.660 -0.4266  0.1035  0.6179
   12CHL1   C18  841   4.847   4.784   9.615 -0.9239  0.3380 -0.3006
   12CHL1  H18A  842   4.746   4.820   9.586 -0.4594  0.4739 -1.8435
   12CHL1  H18B  843   4.897   4.731   9.532  2.6114  2.1440  0.5080
   12CHL1  H18C  844   4.839   4.707   9.695  1.7918 -1.4679 -1.6019
   12CHL1   C12  845   5.085   4.869   9.708 -0.1176 -0.6858 -0.8466
   12CHL1  H12A  846   5.138   4.819   9.624  0.5785 -2.8487  0.7988
   12CHL1  H12B  847   5.149   4.958   9.728 -1.3123 -0.3420  1.8913
   12CHL1   C11  848   5.085   4.782   9.830  0.1550 -0.9043  0.6582
   12CHL1  H11A  849   5.048   4.683   9.795 -0.3538 -0.6957  0.5913
   12CHL1  H11B  850   5.192   4.777   9.857  1.2379  1.2296 -2.5934
   12CHL1    C9  851   4.996   4.847   9.944 -0.5687  0.2566 -0.0305
   12CHL1    H9  852   5.049   4.939   9.974 -0.0975 -1.1324  3.8788
   12CHL1   C10  853   4.981   4.748  10.057 -0.4118 -0.0339  0.2196
   12CHL1   C19  854   4.919   4.609  10.020 -0.1979 -0.6412 -0.1544
   12CHL1  H19A  855   4.828   4.621   9.958 -2.1205 -1.9998  2.2457
   12CHL1  H19B  856   4.991   4.566   9.947 -1.0078 -0.5723 -1.0059
   12CHL1  H19C  857   4.901   4.545  10.108  3.9906  1.4917  2.6264
   12CHL1    C1  858   5.120   4.719  10.120 -0.3520 -0.3615 -0.8052
   12CHL1   H1A  859   5.186   4.662  10.051  0.8954 -1.2633  1.0489
   12CHL1   H1B  860   5.171   4.816  10.138  2.1125 -1.8745  1.1855
   12CHL1    C2  861   5.128   4.639  10.256  0.2935  0.7249  0.2343
   12CHL1   H2A  862   5.235   4.636  10.285  0.3947  0.6703 -0.1348
   12CHL1   H2B  863   5.093   4.537  10.229 -0.6505  1.1125 -0.0481
   12CHL1   C20  864   4.917   4.968   9.405 -0.3786 -0.0199  0.2773
   12CHL1   H20  865   4.848   4.885   9.383 -1.2196  0.8574 -0.4898
   12CHL1   C21  866   5.060   4.910   9.376 -0.7621  0.0541  0.6346
   12CHL1  H21A  867   5.076   4.810   9.422  0.5956 -1.0914 -2.1394
   12CHL1  H21B  868   5.139   4.978   9.415  1.1344 -0.1318 -2.5634
   12CHL1  H21C  869   5.072   4.903   9.266 -0.0518 -0.0155  0.7102
   12CHL1   C22  870   4.867   5.083   9.303  0.2327 -0.1966 -0.5107
   12CHL1  H22A  871   4.783   5.137   9.351  0.2613  0.4895 -1.2140
   12CHL1  H22B  872   4.948   5.157   9.285 -0.2441  0.6361  0.6475
   12CHL1   C23  873   4.828   5.025   9.163  0.4513 -0.2900  0.4614
   12CHL1  H23A  874   4.877   4.925   9.163 -0.5082 -0.7726  0.6081
   12CHL1  H23B  875   4.718   5.008   9.156  0.2370  1.2689 -0.5029
   12CHL1   C24  876   4.872   5.124   9.058 -0.2168 -0.1696 -0.2169
   12CHL1  H24A  877   4.818   5.221   9.065 -3.2744 -1.5460 -2.4885
   12CHL1  H24B  878   4.980   5.150   9.062 -0.2765  0.1973 -0.8887
   12CHL1   C25  879   4.843   5.084   8.914 -0.2901  0.2582  0.1057
   12CHL1   H25  880   4.735   5.060   8.916 -0.4294  0.8011 -0.8103
   12CHL1   C26  881   4.868   5.192   8.810 -0.0897  0.2390  0.7306
   12CHL1  H26A  882   4.878   5.155   8.706 -1.0343  0.3065  0.6081
   12CHL1  H26B  883   4.788   5.270   8.815 -1.0903 -0.8004  1.4160
   12CHL1  H26C  884   4.962   5.250   8.828  0.3946 -0.7021  1.3566
   12CHL1   C27  885   4.927   4.967   8.875  0.7127 -0.5507 -0.3700
   12CHL1  H27A  886   4.901   4.876   8.933 -0.5063  0.4283  0.6846
   12CHL1  H27B  887   4.915   4.945   8.767 -1.9836  1.4393 -0.5854
   12CHL1  H27C  888   5.034   4.984   8.900  0.4073 -1.3552  1.7028
   13CHL1    C3  889   4.688   0.440   9.936  0.5274 -0.6069  0.7465
   13CHL1    H3  890   4.624   0.529   9.953  0.2019 -1.0086  1.6857
   13CHL1    O3  891   4.691   0.366  10.047  0.0606 -0.1287 -0.1173
   13CHL1   H3'  892   4.764   0.405  10.096 -0.8624  0.8506  0.5117
   13CHL1    C4  893   4.634   0.342   9.831 -0.1710  0.1333  0.5528
   13CHL1   H4A  894   4.682   0.243   9.846  0.9852  0.6944  0.7078
   13CHL1   H4B  895   4.525   0.328   9.847 -0.4111  1.6266  0.4277
   13CHL1    C5  896   4.647   0.387   9.684 -0.2611 -0.0462  0.2438
   13CHL1    C6  897   4.544   0.392   9.595  0.0498 -0.1246 -0.0238
   13CHL1    H6  898   4.445   0.362   9.631  1.0518 -2.7142  0.8287
   13CHL1    C7  899   4.566   0.428   9.456  0.1356  0.4359  0.2700
   13CHL1   H7A  900   4.525   0.339   9.404  0.3169  0.8764 -0.6413
   13CHL1   H7B  901   4.523   0.526   9.426 -0.9400  0.1579  0.8438
   13CHL1    C8  902   4.717   0.424   9.411  0.7475 -0.3130 -0.1163
   13CHL1    H8  903   4.739   0.316   9.395  0.8978  0.0776 -3.3284
   13CHL1   C14  904   4.728   0.496   9.268 -0.7284 -0.0628 -0.1813
   13CHL1   H14  905   4.693   0.601   9.279 -1.3207 -0.4121  1.5754
   13CHL1   C15  906   4.636   0.438   9.157  0.1127 -0.4037  1.0725
   13CHL1  H15A  907   4.656   0.329   9.166  1.3388 -0.6178 -2.4268
   13CHL1  H15B  908   4.528   0.455   9.177 -0.1677 -1.0450  0.1940
   13CHL1   C16  909   4.694   0.498   9.031 -0.4341 -0.0180  0.1881
   13CHL1  H16A  910   4.694   0.430   8.943  2.5972 -1.8751  1.4529
   13CHL1  H16B  911   4.636   0.591   9.012 -1.9079 -0.9472 -0.0050
   13CHL1   C17  912   4.836   0.556   9.071  0.8546  0.9527  0.1836
   13CHL1   H17  913   4.821   0.665   9.089 -2.6571  0.5441  0.3437
   13CHL1   C13  914   4.871   0.495   9.209  0.2385 -0.0690  0.4243
   13CHL1   C18  915   4.923   0.348   9.183 -0.3398  0.1175 -0.7045
   13CHL1  H18A  916   4.907   0.299   9.281  1.7981  1.9458  0.6589
   13CHL1  H18B  917   4.856   0.302   9.108 -1.3794  0.7161 -0.1689
   13CHL1  H18C  918   5.030   0.330   9.157 -0.4700 -2.5768  0.3258
   13CHL1   C12  919   4.951   0.571   9.319  0.2025  0.1447  0.8428
   13CHL1  H12A  920   5.056   0.582   9.283  0.1477  0.4756  0.7753
   13CHL1  H12B  921   4.905   0.672   9.324 -1.9336 -0.6675 -0.6885
   13CHL1   C11  922   4.956   0.503   9.456 -0.0444 -0.1514 -0.1452
   13CHL1  H11A  923   5.001   0.403   9.444  2.4165  1.0503 -1.8902
   13CHL1  H11B  924   5.017   0.566   9.525  0.9501 -0.6588 -0.5427
   13CHL1    C9  925   4.807   0.495   9.509  0.1352  0.0066 -0.4362
   13CHL1    H9  926   4.770   0.599   9.524  1.2657  0.1989  1.3017
   13CHL1   C10  927   4.793   0.427   9.652  0.5396  0.4629  0.5905
   13CHL1   C19  928   4.891   0.299   9.654 -0.2289 -0.1770 -0.0742
   13CHL1  H19A  929   4.866   0.226   9.573  1.3273  1.5284 -2.2236
   13CHL1  H19B  930   4.995   0.332   9.636 -0.7210  0.9677 -0.9434
   13CHL1  H19C  931   4.886   0.253   9.755 -2.3578  0.1937  0.0384
   13CHL1    C1  932   4.849   0.521   9.758 -0.2722 -0.4821 -0.4052
   13CHL1   H1A  933   4.957   0.533   9.738 -0.0355 -2.2664 -0.3540
   13CHL1   H1B  934   4.801   0.622   9.752 -0.3879 -0.4867  0.4264
   13CHL1    C2  935   4.836   0.479   9.904  0.0280  0.1572 -0.1743
   13CHL1   H2A  936   4.862   0.556   9.979 -1.5736  1.0851 -0.5322
   13CHL1   H2B  937   4.905   0.393   9.919  1.3953  1.2373 -0.0849
   13CHL1   C20  938   4.939   0.542   8.961 -0.0358  0.7885  0.1118
   13CHL1   H20  939   4.951   0.433   8.940  1.9240  0.4413  2.6255
   13CHL1   C21  940   5.073   0.600   9.011  0.4833  0.1590 -0.5284
   13CHL1  H21A  941   5.119   0.527   9.081 -1.0536 -0.2524  0.1148
   13CHL1  H21B  942   5.055   0.702   9.051 -1.8874 -0.1765 -0.5793
   13CHL1  H21C  943   5.138   0.619   8.923 -0.8107  2.7538 -1.0282
   13CHL1   C22  944   4.898   0.630   8.835  0.9656  0.0867  0.6542
   13CHL1  H22A  945   4.789   0.624   8.816  1.1657 -0.3203 -0.4189
   13CHL1  H22B  946   4.911   0.739   8.854 -1.5312  0.2650  1.7449
   13CHL1   C23  947   4.960   0.568   8.708 -0.0525 -0.1455  0.1574
   13CHL1  H23A  948   5.068   0.588   8.725 -0.3172  1.1225  0.5072
   13CHL1  H23B  949   4.942   0.459   8.705  1.0352 -0.3500  0.4593
   13CHL1   C24  950   4.908   0.632   8.584 -0.4186  0.1798 -0.7930
   13CHL1  H24A  951   4.800   0.605   8.577  0.1764 -2.7537  0.2398
   13CHL1  H24B  952   4.917   0.743   8.593 -0.6540  0.3279 -2.0944
   13CHL1   C25  953   4.972   0.570   8.468  0.5850  0.3985  0.5454
   13CHL1   H25  954   4.957   0.460   8.473 -0.9082  0.6137  1.3575
   13CHL1   C26  955   4.896   0.625   8.340  0.7309 -0.6176  0.6034
   13CHL1  H26A  956   4.795   0.586   8.315  0.4875 -0.0368  0.6460
   13CHL1  H26B  957   4.867   0.732   8.354  0.1418 -0.6166 -0.4692
   13CHL1  H26C  958   4.952   0.629   8.244 -0.4161  2.6186 -0.0794
   13CHL1   C27  959   5.112   0.610   8.458 -0.7462 -0.9002  0.0902
   13CHL1  H27A  960   5.116   0.721   8.456 -1.6375 -0.8457  0.8865
   13CHL1  H27B  961   5.166   0.576   8.549  2.4269 -1.7679 -1.9565
   13CHL1  H27C  962   5.166   0.571   8.369  1.2231  2.4022 -0.3432
   14CHL1    C3  963   5.246   3.559  10.429  0.3855  0.1364  0.2659
   14CHL1    H3  964   5.232   3.666  10.458 -2.6965  0.5893 -2.3243
   14CHL1    O3  965   5.227   3.473  10.544 -0.0164  0.0484 -0.0792
   14CHL1   H3'  966   5.133   3.485  10.553 -0.0363  0.3531 -0.6539
   14CHL1    C4  967   5.135   3.536  10.322 -0.1711 -0.0315 -0.5393
   14CHL1   H4A  968   5.137   3.425  10.324 -0.3145 -0.0625  2.7826
   14CHL1   H4B  969   5.033   3.566  10.357  0.5389  0.6127  1.0392
   14CHL1    C5  970   5.169   3.603  10.196  0.2862 -0.0922  0.2306
   14CHL1    C6  971   5.095   3.706  10.146  0.8381 -0.0473  0.3954
   14CHL1    H6  972   5.009   3.741  10.204  1.4825 -0.5167  1.7034
   14CHL1    C7  973   5.129   3.753  10.009  0.6113  0.7248  0.4864
   14CHL1   H7A  974   5.042   3.788   9.949  0.7849 -0.6503 -0.6222
   14CHL1   H7B  975   5.195   3.842  10.019  1.6118  0.0191  0.3369
   14CHL1    C8  976   5.210   3.665   9.918  0.7279  0.1950  0.0273
   14CHL1    H8  977   5.151   3.574   9.895  0.9965 -0.0859  0.4517
   14CHL1   C14  978   5.252   3.738   9.787  0.0134  0.2478 -0.3730
   14CHL1   H14  979   5.297   3.833   9.821  0.4943 -0.6347  1.6331
   14CHL1   C15  980   5.148   3.788   9.692 -0.6038 -0.3554 -0.2155
   14CHL1  H15A  981   5.070   3.708   9.694  1.7468 -2.7668  0.9516
   14CHL1  H15B  982   5.115   3.888   9.727  3.0331  0.5313  1.1482
   14CHL1   C16  983   5.211   3.802   9.554 -0.1111  0.1393  0.7191
   14CHL1  H16A  984   5.145   3.746   9.485 -1.3178  2.2518  0.0716
   14CHL1  H16B  985   5.207   3.908   9.519 -0.7949  0.0553  0.5234
   14CHL1   C17  986   5.361   3.762   9.574  0.0883  0.3078  0.3169
   14CHL1   H17  987   5.407   3.857   9.609  0.1763  0.5777 -0.5118
   14CHL1   C13  988   5.352   3.669   9.698  0.0533 -0.1558 -0.6276
   14CHL1   C18  989   5.308   3.531   9.640 -0.0637 -0.2560 -0.5668
   14CHL1  H18A  990   5.226   3.531   9.565 -1.8053  2.4885  1.1623
   14CHL1  H18B  991   5.404   3.489   9.604  1.8746  0.3466  3.3784
   14CHL1  H18C  992   5.267   3.464   9.718  0.0872 -0.6380 -0.8142
   14CHL1   C12  993   5.472   3.647   9.791 -0.2273  0.0785  0.0277
   14CHL1  H12A  994   5.549   3.591   9.734 -0.1792  0.6284 -0.4616
   14CHL1  H12B  995   5.515   3.736   9.844 -0.2474 -0.8390  1.6637
   14CHL1   C11  996   5.434   3.558   9.909 -0.3041  0.3861 -0.0027
   14CHL1  H11A  997   5.403   3.460   9.867  1.5067 -0.1870 -0.0893
   14CHL1  H11B  998   5.524   3.537   9.972 -1.5863 -2.8945  0.9361
   14CHL1    C9  999   5.330   3.620  10.000  0.0348  0.1058  0.7234
   14CHL1    H9 1000   5.378   3.712  10.040  0.7641 -0.0244  0.1667
   14CHL1   C10 1001   5.290   3.543  10.124 -0.9520  0.2806 -0.4203
   14CHL1   C19 1002   5.276   3.393  10.083 -0.1893  0.4720  0.5728
   14CHL1  H19A 1003   5.244   3.326  10.165  1.4212 -0.9712  0.0939
   14CHL1  H19B 1004   5.191   3.381  10.013  0.7123  0.5259 -0.5702
   14CHL1  H19C 1005   5.369   3.353  10.037 -1.5271  0.6210 -2.4940
   14CHL1    C1 1006   5.407   3.567  10.226  0.5980 -0.4443 -0.1139
   14CHL1   H1A 1007   5.496   3.513  10.187  1.2914  0.3647  0.3190
   14CHL1   H1B 1008   5.410   3.678  10.234 -2.5594 -0.2947  0.4531
   14CHL1    C2 1009   5.381   3.516  10.365  0.2783 -0.2053  0.3065
   14CHL1   H2A 1010   5.467   3.555  10.424  1.1072  0.1183 -1.0715
   14CHL1   H2B 1011   5.380   3.406  10.375 -1.1753 -0.0767  2.0388
   14CHL1   C20 1012   5.431   3.705   9.442  0.2240 -0.5113  0.3327
   14CHL1   H20 1013   5.396   3.602   9.420 -1.2193  0.2891 -1.3729
   14CHL1   C21 1014   5.581   3.707   9.463 -0.7599 -0.3289  0.5988
   14CHL1  H21A 1015   5.617   3.628   9.532  0.3837 -0.1821  0.1927
   14CHL1  H21B 1016   5.616   3.811   9.485  0.4629  0.3767 -3.6720
   14CHL1  H21C 1017   5.640   3.677   9.374  0.2717 -0.7693  1.4091
   14CHL1   C22 1018   5.376   3.781   9.310 -0.5913 -0.1155  0.6885
   14CHL1  H22A 1019   5.288   3.720   9.283  1.1231 -3.0992  1.3777
   14CHL1  H22B 1020   5.336   3.883   9.326  1.0606  0.4727  1.3612
   14CHL1   C23 1021   5.487   3.768   9.201  0.7409 -0.4147  0.2355
   14CHL1  H23A 1022   5.573   3.834   9.225  0.8003  0.1425 -1.4064
   14CHL1  H23B 1023   5.526   3.664   9.209 -0.8059 -0.8968  4.7491
   14CHL1   C24 1024   5.425   3.803   9.068 -0.2129  1.0033 -0.0565
   14CHL1  H24A 1025   5.347   3.726   9.049  1.3531 -0.8109  0.5645
   14CHL1  H24B 1026   5.363   3.895   9.072 -0.9189  0.5056  0.8242
   14CHL1   C25 1027   5.519   3.790   8.945 -0.0868  0.0028  0.0458
   14CHL1   H25 1028   5.611   3.836   8.988 -1.4775  0.0775  3.2501
   14CHL1   C26 1029   5.556   3.646   8.903 -0.5119 -1.0890  0.3522
   14CHL1  H26A 1030   5.632   3.656   8.822 -0.3962 -1.2162  0.4439
   14CHL1  H26B 1031   5.597   3.593   8.991  0.6311  0.9672  1.1208
   14CHL1  H26C 1032   5.475   3.590   8.851 -0.0180 -0.7267 -0.8517
   14CHL1   C27 1033   5.469   3.871   8.822 -0.0710 -0.3391 -0.2243
   14CHL1  H27A 1034   5.367   3.835   8.796  0.3647 -1.4653 -0.4223
   14CHL1  H27B 1035   5.473   3.980   8.844  2.8156 -0.4446  0.1972
   14CHL1  H27C 1036   5.527   3.855   8.728 -0.5442 -1.6892 -0.3103
   15CHL1    C3 1037   4.993   2.246  10.339  0.1340 -0.0634 -0.0897
   15CHL1    H3 1038   5.086   2.294  10.378  0.4627 -0.3531 -0.5137
   15CHL1    O3 1039   4.924   2.180  10.445 -0.6394 -0.0137  0.0482
   15CHL1   H3' 1040   4.853   2.135  10.398 -0.2728  0.9421 -1.4641
   15CHL1    C4 1041   4.904   2.357  10.288  0.8207 -0.3812  0.5407
   15CHL1   H4A 1042   4.802   2.320  10.261  1.7252 -0.6852 -2.9896
   15CHL1   H4B 1043   4.888   2.428  10.372  3.0356  1.5506 -0.5344
   15CHL1    C5 1044   4.954   2.413  10.157 -0.2716  0.6846  0.1077
   15CHL1    C6 1045   4.961   2.543  10.133  0.1101  0.1340 -0.0417
   15CHL1    H6 1046   4.929   2.612  10.213 -1.8266  0.2138 -0.8337
   15CHL1    C7 1047   5.002   2.608  10.003 -0.1230  0.2801  0.3818
   15CHL1   H7A 1048   4.932   2.688   9.969 -1.6577 -1.8750 -1.9530
   15CHL1   H7B 1049   5.106   2.646  10.001  0.1175 -0.0888  2.6969
   15CHL1    C8 1050   4.996   2.505   9.887  0.3806 -0.3842  0.2028
   15CHL1    H8 1051   4.888   2.485   9.873  0.9036 -2.4171 -1.3266
   15CHL1   C14 1052   5.047   2.563   9.756 -0.8871 -0.9777 -0.6607
   15CHL1   H14 1053   5.149   2.604   9.775 -1.8903  0.9643  0.8226
   15CHL1   C15 1054   4.971   2.684   9.702 -0.5170 -0.7388 -0.2699
   15CHL1  H15A 1055   4.860   2.680   9.694 -0.5349  1.9934 -2.8287
   15CHL1  H15B 1056   4.997   2.777   9.757 -2.3456  0.5983 -1.5410
   15CHL1   C16 1057   5.030   2.687   9.557 -0.7029  0.0025 -0.0511
   15CHL1  H16A 1058   4.936   2.684   9.497  0.2389  0.9639 -1.6329
   15CHL1  H16B 1059   5.083   2.783   9.539  2.2802 -1.7653 -1.5046
   15CHL1   C17 1060   5.119   2.555   9.538  0.3868  0.2205  0.1068
   15CHL1   H17 1061   5.224   2.582   9.563  0.2187  0.2447  0.8015
   15CHL1   C13 1062   5.066   2.461   9.648 -0.3169 -0.3479  0.4502
   15CHL1   C18 1063   4.925   2.403   9.610  0.0741  0.5146 -0.3073
   15CHL1  H18A 1064   4.869   2.362   9.697 -0.5454  0.6367 -0.6400
   15CHL1  H18B 1065   4.854   2.478   9.568 -0.3795  0.0792 -0.3330
   15CHL1  H18C 1066   4.932   2.322   9.535 -0.9328 -0.7459  0.9016
   15CHL1   C12 1067   5.165   2.354   9.695 -0.2278  0.2742  0.0008
   15CHL1  H12A 1068   5.183   2.282   9.612 -2.3018 -0.9008  0.5022
   15CHL1  H12B 1069   5.258   2.406   9.727 -0.4328 -0.0138  1.1037
   15CHL1   C11 1070   5.109   2.281   9.816 -0.5510  0.6003 -0.8364
   15CHL1  H11A 1071   5.023   2.222   9.778  0.2599 -1.3597  0.2210
   15CHL1  H11B 1072   5.179   2.204   9.854 -0.5680  0.6444 -0.7162
   15CHL1    C9 1073   5.070   2.372   9.929  0.2811  0.0589  0.0875
   15CHL1    H9 1074   5.166   2.410   9.972 -0.0648  0.7064  0.3073
   15CHL1   C10 1075   4.994   2.306  10.049  0.0967 -0.2239  0.2912
   15CHL1   C19 1076   4.872   2.234   9.981 -0.3706 -0.1338  0.2293
   15CHL1  H19A 1077   4.901   2.148   9.916 -0.6608  1.5641 -2.2751
   15CHL1  H19B 1078   4.791   2.200  10.049 -0.5898 -1.0882 -0.4863
   15CHL1  H19C 1079   4.833   2.300   9.901  0.9418 -1.1713 -1.3517
   15CHL1    C1 1080   5.080   2.195  10.115 -0.1022 -0.5570  0.1605
   15CHL1   H1A 1081   5.119   2.112  10.051  0.2003 -0.2376 -0.0706
   15CHL1   H1B 1082   5.180   2.236  10.140  0.3612 -0.7272 -1.3221
   15CHL1    C2 1083   5.024   2.131  10.244  0.4144  0.0485  0.3161
   15CHL1   H2A 1084   5.104   2.060  10.273 -0.3577 -1.3495 -0.8151
   15CHL1   H2B 1085   4.929   2.086  10.206  2.0729 -1.3384 -2.5280
   15CHL1   C20 1086   5.112   2.509   9.393  0.5645 -0.2316 -0.0859
   15CHL1   H20 1087   5.011   2.468   9.372 -0.0399 -0.5274  2.8935
   15CHL1   C21 1088   5.224   2.401   9.381 -0.5038  0.3701  0.3345
   15CHL1  H21A 1089   5.313   2.436   9.437 -0.0547 -1.0261  0.5331
   15CHL1  H21B 1090   5.256   2.377   9.277 -2.4576 -0.7065 -0.0656
   15CHL1  H21C 1091   5.183   2.304   9.418  0.5382 -0.4924 -0.7015
   15CHL1   C22 1092   5.137   2.623   9.279  0.8518  0.2647 -0.6048
   15CHL1  H22A 1093   5.075   2.707   9.315 -0.4537  0.1353 -2.4196
   15CHL1  H22B 1094   5.245   2.648   9.283  0.0523  4.3994 -0.7137
   15CHL1   C23 1095   5.090   2.577   9.139 -0.5579  0.1321 -0.3117
   15CHL1  H23A 1096   5.156   2.493   9.107  0.3146  1.4962 -2.2311
   15CHL1  H23B 1097   4.981   2.556   9.142 -0.0152 -3.1190  0.9943
   15CHL1   C24 1098   5.108   2.693   9.043  0.3902 -0.8456  0.0221
   15CHL1  H24A 1099   5.053   2.774   9.094 -0.7632 -1.2251 -0.5879
   15CHL1  H24B 1100   5.215   2.721   9.030  0.5977  0.0475  2.8495
   15CHL1   C25 1101   5.045   2.665   8.906  0.2137 -0.0465 -0.2903
   15CHL1   H25 1102   5.056   2.558   8.882  1.1851 -0.1511  0.5649
   15CHL1   C26 1103   4.891   2.695   8.909  0.1299  0.2752  0.1890
   15CHL1  H26A 1104   4.853   2.659   9.007 -2.1928  1.5140 -0.1747
   15CHL1  H26B 1105   4.867   2.804   8.912 -2.7512 -0.3142  2.8191
   15CHL1  H26C 1106   4.849   2.659   8.813  1.4073  1.3859 -0.8347
   15CHL1   C27 1107   5.107   2.753   8.789 -0.5182  0.7954  0.2114
   15CHL1  H27A 1108   5.081   2.860   8.808  1.0133  1.2198  0.0721
   15CHL1  H27B 1109   5.216   2.735   8.791 -0.8668 -1.4913  2.3967
   15CHL1  H27C 1110   5.067   2.728   8.688  0.4358 -2.2768  0.5156
   16CHL1    C3 1111   5.995   0.806  10.253  0.7022 -0.3590  0.5103
   16CHL1    H3 1112   5.997   0.917  10.256 -0.8925 -0.2749 -0.5794
   16CHL1    O3 1113   6.002   0.761  10.388 -0.6663 -0.4394 -0.0935
   16CHL1   H3' 1114   6.042   0.674  10.386  2.7240  0.9528 -1.4021
   16CHL1    C4 1115   5.861   0.751  10.195  0.1725  0.0185 -0.2876
   16CHL1   H4A 1116   5.853   0.640  10.197  0.7855 -0.0313 -0.1630
   16CHL1   H4B 1117   5.781   0.794  10.259  1.4218  0.1283  1.2590
   16CHL1    C5 1118   5.837   0.787  10.051 -0.1825  0.0120  0.5499
   16CHL1    C6 1119   5.728   0.849  10.015 -0.3603  0.1989  0.8853
   16CHL1    H6 1120   5.646   0.859  10.088 -2.8682  0.7927 -1.8101
   16CHL1    C7 1121   5.697   0.873   9.871  0.1243  0.3159  0.2385
   16CHL1   H7A 1122   5.588   0.858   9.854  0.0672 -1.7722  1.9328
   16CHL1   H7B 1123   5.713   0.981   9.856  0.4900  0.6485  2.5844
   16CHL1    C8 1124   5.791   0.811   9.766 -0.0304  0.6308 -0.9264
   16CHL1    H8 1125   5.772   0.702   9.762  0.6877  0.3832  1.2244
   16CHL1   C14 1126   5.784   0.878   9.631 -0.4277  0.1346 -0.3599
   16CHL1   H14 1127   5.803   0.986   9.650 -1.1816 -0.0323  1.6742
   16CHL1   C15 1128   5.645   0.895   9.573 -0.0203  0.2529  0.0725
   16CHL1  H15A 1129   5.596   0.797   9.586 -0.4525  0.2534 -1.3872
   16CHL1  H15B 1130   5.594   0.971   9.636  0.8554  2.2582 -1.4767
   16CHL1   C16 1131   5.671   0.941   9.432  0.9683  0.5431 -0.5636
   16CHL1  H16A 1132   5.625   0.870   9.360 -1.0858  1.5672 -0.3310
   16CHL1  H16B 1133   5.645   1.049   9.424 -0.1599  0.3843  0.5987
   16CHL1   C17 1134   5.826   0.927   9.410 -0.2670  0.4720  0.2756
   16CHL1   H17 1135   5.867   1.026   9.440  1.7904 -0.8816  2.2378
   16CHL1   C13 1136   5.882   0.836   9.525  0.6687  0.3953  0.3639
   16CHL1   C18 1137   5.842   0.690   9.481 -0.3939 -0.5522 -0.0302
   16CHL1  H18A 1138   5.752   0.686   9.416 -0.4625  2.3902 -0.2541
   16CHL1  H18B 1139   5.922   0.652   9.414  1.5536  3.1508 -0.0653
   16CHL1  H18C 1140   5.821   0.620   9.564 -1.9294 -2.6840 -2.0954
   16CHL1   C12 1141   6.021   0.856   9.574  0.4893  0.0809  0.0833
   16CHL1  H12A 1142   6.107   0.831   9.508  2.5829  1.7594  2.0141
   16CHL1  H12B 1143   6.036   0.964   9.592  0.5774  0.3082 -1.2556
   16CHL1   C11 1144   6.041   0.785   9.709 -0.5700  0.0236 -0.5251
   16CHL1  H11A 1145   6.022   0.678   9.686 -0.9604  0.6571 -3.5015
   16CHL1  H11B 1146   6.146   0.800   9.743 -0.4594 -2.5097  0.4900
   16CHL1    C9 1147   5.939   0.831   9.818  0.2037 -0.3083 -0.4669
   16CHL1    H9 1148   5.953   0.940   9.829  0.5123  0.0377 -3.4325
   16CHL1   C10 1149   5.955   0.763   9.958 -0.2130 -0.2174 -0.0116
   16CHL1   C19 1150   5.974   0.603   9.939  0.2872 -0.3179 -0.0909
   16CHL1  H19A 1151   5.991   0.564  10.042  2.3656  1.5381  0.3685
   16CHL1  H19B 1152   5.881   0.559   9.898  0.4859 -1.4710  0.6412
   16CHL1  H19C 1153   6.064   0.581   9.878  1.6375 -0.9155  1.9846
   16CHL1    C1 1154   6.084   0.814  10.030  0.7851  0.0274 -0.0457
   16CHL1   H1A 1155   6.164   0.792   9.957  1.7663 -0.2482  1.0855
   16CHL1   H1B 1156   6.075   0.924  10.042 -3.2686 -0.3265  2.1328
   16CHL1    C2 1157   6.114   0.754  10.166  0.0859 -0.1559  0.4794
   16CHL1   H2A 1158   6.207   0.799  10.207  1.0488 -0.1185 -1.6225
   16CHL1   H2B 1159   6.123   0.643  10.162  0.2845 -0.0993 -0.8573
   16CHL1   C20 1160   5.862   0.896   9.267  0.1791 -0.4618 -0.3791
   16CHL1   H20 1161   5.830   0.798   9.226  3.0065 -1.6489  0.0579
   16CHL1   C21 1162   6.013   0.902   9.261 -0.1765 -0.3249 -0.0828
   16CHL1  H21A 1163   6.065   0.919   9.164  2.2715  2.6144  1.5493
   16CHL1  H21B 1164   6.060   0.823   9.324  0.4538  1.7756  2.2149
   16CHL1  H21C 1165   6.056   0.992   9.311  0.0600  0.0886 -1.0040
   16CHL1   C22 1166   5.805   0.995   9.159  0.5463 -0.3457  0.0227
   16CHL1  H22A 1167   5.695   1.008   9.168  0.5533  0.5488 -1.0354
   16CHL1  H22B 1168   5.845   1.095   9.184 -1.9353  0.9627 -0.9280
   16CHL1   C23 1169   5.835   0.963   9.016 -0.6683  0.0356  0.8213
   16CHL1  H23A 1170   5.943   0.941   8.997 -0.5370  1.0351  0.3258
   16CHL1  H23B 1171   5.787   0.868   8.986 -0.1017  0.2727 -0.9196
   16CHL1   C24 1172   5.774   1.071   8.914  0.3313  0.3295 -1.1965
   16CHL1  H24A 1173   5.668   1.056   8.943  0.8379  0.7367  1.0889
   16CHL1  H24B 1174   5.807   1.172   8.948 -0.1474  0.1526 -0.1947
   16CHL1   C25 1175   5.789   1.040   8.765  0.5960 -0.7730 -0.5361
   16CHL1   H25 1176   5.765   0.935   8.739  1.3738 -1.0340 -0.2356
   16CHL1   C26 1177   5.694   1.124   8.674  0.0083  0.6495 -0.0323
   16CHL1  H26A 1178   5.742   1.223   8.691 -1.9796  1.3783  1.9348
   16CHL1  H26B 1179   5.681   1.093   8.569 -0.7438 -1.2444  0.5762
   16CHL1  H26C 1180   5.592   1.133   8.717 -0.3898 -0.6220 -0.6912
   16CHL1   C27 1181   5.937   1.062   8.718 -0.3995  0.3848 -0.8954
   16CHL1  H27A 1182   6.008   1.010   8.786 -0.0544 -0.3247 -1.7825
   16CHL1  H27B 1183   5.936   1.019   8.616 -4.9250 -0.1775 -0.7839
   16CHL1  H27C 1184   5.964   1.170   8.709  0.2668  0.2576 -0.4836
   17CHL1    C3 1185   1.517   6.197  10.398 -0.0090 -0.0163 -0.3394
   17CHL1    H3 1186   1.413   6.160  10.412  0.3375 -0.6254  0.7342
   17CHL1    O3 1187   1.546   6.246  10.526 -1.2005  0.1941  0.3639
   17CHL1   H3' 1188   1.559   6.340  10.509 -1.8587  0.1491 -0.5249
   17CHL1    C4 1189   1.607   6.083  10.359  1.2170 -1.1431  0.7513
   17CHL1   H4A 1190   1.709   6.109  10.393  1.9473  0.1124 -2.1456
   17CHL1   H4B 1191   1.582   5.994  10.422 -3.2678 -1.2478 -0.8206
   17CHL1    C5 1192   1.599   6.043  10.207 -0.8011  0.1015  0.5887
   17CHL1    C6 1193   1.574   5.919  10.162  0.3659  0.2027 -0.2913
   17CHL1    H6 1194   1.558   5.836  10.232 -0.1429  0.4149 -0.1502
   17CHL1    C7 1195   1.584   5.873  10.022 -0.0094  0.5352 -0.4637
   17CHL1   H7A 1196   1.652   5.786  10.034  2.1851  2.4212  2.2752
   17CHL1   H7B 1197   1.485   5.843   9.981  0.2570  0.5327 -1.1274
   17CHL1    C8 1198   1.644   5.972   9.928  0.4953  0.7974  0.5998
   17CHL1    H8 1199   1.755   5.977   9.932  0.5261  0.4751  0.1902
   17CHL1   C14 1200   1.610   5.938   9.785  0.0762  0.5652  0.6792
   17CHL1   H14 1201   1.500   5.951   9.787  0.3503  3.4834  2.7494
   17CHL1   C15 1202   1.653   5.796   9.732 -0.1013 -0.2190  0.7330
   17CHL1  H15A 1203   1.760   5.785   9.761  0.2807 -1.5528 -1.0128
   17CHL1  H15B 1204   1.590   5.717   9.778 -0.1155 -0.6476  0.0031
   17CHL1   C16 1205   1.643   5.805   9.577 -0.7698 -0.1434  0.2524
   17CHL1  H16A 1206   1.742   5.791   9.528 -0.8797  1.0866 -0.3459
   17CHL1  H16B 1207   1.568   5.734   9.536 -1.6948 -0.2330  2.0296
   17CHL1   C17 1208   1.596   5.948   9.549 -0.2713 -0.2775 -0.9863
   17CHL1   H17 1209   1.486   5.959   9.557 -0.3074 -1.5304  0.7382
   17CHL1   C13 1210   1.651   6.039   9.671  0.0604  0.6309  0.1161
   17CHL1   C18 1211   1.806   6.047   9.660 -0.3178 -0.4465  0.3702
   17CHL1  H18A 1212   1.835   6.115   9.577 -1.2907  0.7491  0.9821
   17CHL1  H18B 1213   1.842   6.098   9.752  1.1061  1.6911 -1.2643
   17CHL1  H18C 1214   1.857   5.949   9.645 -0.7045 -0.5624 -0.2297
   17CHL1   C12 1215   1.582   6.174   9.703  0.3578  0.6132 -0.2284
   17CHL1  H12A 1216   1.626   6.247   9.632  0.3053  0.6668 -0.2060
   17CHL1  H12B 1217   1.473   6.157   9.685 -0.0713  0.7508  2.0088
   17CHL1   C11 1218   1.621   6.222   9.848  0.4067 -0.9171 -0.3374
   17CHL1  H11A 1219   1.729   6.250   9.851  0.0071  0.8352 -0.9536
   17CHL1  H11B 1220   1.569   6.317   9.872  1.3569 -0.0355 -1.6042
   17CHL1    C9 1221   1.587   6.115   9.958  0.2204  0.4041  0.7154
   17CHL1    H9 1222   1.476   6.110   9.951 -0.1340  3.7243  2.0141
   17CHL1   C10 1223   1.611   6.156  10.106 -0.4726 -0.2505 -0.1504
   17CHL1   C19 1224   1.760   6.207  10.115  0.1989  0.0659  0.0229
   17CHL1  H19A 1225   1.831   6.134  10.069 -1.2993 -1.5146  0.1120
   17CHL1  H19B 1226   1.756   6.299  10.054 -1.1837 -0.9884 -1.5627
   17CHL1  H19C 1227   1.798   6.227  10.218  2.3358 -2.3479 -0.1996
   17CHL1    C1 1228   1.505   6.258  10.145  0.4942 -0.4725 -0.6187
   17CHL1   H1A 1229   1.516   6.352  10.088  0.6111 -0.1969 -0.1489
   17CHL1   H1B 1230   1.400   6.227  10.127 -1.1960  2.7169  2.3551
   17CHL1    C2 1231   1.520   6.312  10.295 -0.5270 -0.6133 -0.0302
   17CHL1   H2A 1232   1.450   6.398  10.310  0.3750 -0.1829  2.0659
   17CHL1   H2B 1233   1.623   6.353  10.293 -0.7046 -0.1215  0.5357
   17CHL1   C20 1234   1.623   5.999   9.407 -0.6702 -0.0651 -0.7850
   17CHL1   H20 1235   1.734   5.987   9.404 -0.0304  3.1803  2.9476
   17CHL1   C21 1236   1.608   6.147   9.388 -0.2308 -0.5374  0.1863
   17CHL1  H21A 1237   1.677   6.209   9.449 -1.4230 -1.0399  2.1461
   17CHL1  H21B 1238   1.501   6.178   9.394 -1.5040 -4.0040 -2.1025
   17CHL1  H21C 1239   1.637   6.179   9.286  1.6568 -0.6843  0.6506
   17CHL1   C22 1240   1.550   5.912   9.299  0.0620 -0.8896 -0.2478
   17CHL1  H22A 1241   1.526   5.813   9.342 -0.0900 -0.6455  0.2335
   17CHL1  H22B 1242   1.447   5.952   9.283 -0.5874 -2.1013  0.7421
   17CHL1   C23 1243   1.612   5.881   9.164 -0.1370 -0.0458  0.1006
   17CHL1  H23A 1244   1.668   5.969   9.127  0.0423 -0.3689 -0.4135
   17CHL1  H23B 1245   1.679   5.795   9.185 -2.0722 -1.7757 -0.3710
   17CHL1   C24 1246   1.505   5.825   9.064  0.2030  0.7522  0.0910
   17CHL1  H24A 1247   1.461   5.730   9.101 -3.2610  0.5768 -3.7110
   17CHL1  H24B 1248   1.431   5.907   9.050 -0.4388  0.3932  1.2769
   17CHL1   C25 1249   1.570   5.800   8.929 -0.3507 -0.0126 -0.6542
   17CHL1   H25 1250   1.646   5.879   8.911  1.1604 -1.1060  0.5618
   17CHL1   C26 1251   1.638   5.661   8.929 -0.0947 -0.0670  0.0812
   17CHL1  H26A 1252   1.564   5.580   8.914 -0.3082 -0.2229  1.7444
   17CHL1  H26B 1253   1.714   5.668   8.848 -0.0472  0.1339  0.1434
   17CHL1  H26C 1254   1.689   5.640   9.026 -2.4177 -2.3372  0.9299
   17CHL1   C27 1255   1.465   5.812   8.827 -0.1200 -0.2125 -0.7196
   17CHL1  H27A 1256   1.428   5.917   8.822 -1.0177 -0.5619 -1.8222
   17CHL1  H27B 1257   1.503   5.788   8.725 -1.5363  0.8760 -1.5404
   17CHL1  H27C 1258   1.379   5.747   8.850  0.0447 -0.5894 -1.1460
   18CHL1    C3 1259   0.181   5.310  10.063 -0.1918  0.1912  0.3874
   18CHL1    H3 1260   0.270   5.373  10.038 -0.8801  0.8862 -0.3690
   18CHL1    O3 1261   0.161   5.314  10.204  0.5016  0.2324 -0.5294
   18CHL1   H3' 1262   0.243   5.288  10.247 -0.2080  1.2901  1.6045
   18CHL1    C4 1263   0.055   5.363   9.995  0.3694  0.1867 -0.7783
   18CHL1   H4A 1264  -0.037   5.304  10.014  0.2512  1.0222  1.6369
   18CHL1   H4B 1265   0.030   5.464  10.036 -1.1598 -1.0576  1.5466
   18CHL1    C5 1266   0.077   5.385   9.845  0.1001 -0.4802 -0.9368
   18CHL1    C6 1267   0.071   5.509   9.790  0.0694  0.6974 -0.0226
   18CHL1    H6 1268   0.026   5.592   9.846 -0.5670 -0.1085  0.6920
   18CHL1    C7 1269   0.086   5.527   9.640 -0.3630  0.7157 -0.0629
   18CHL1   H7A 1270   0.004   5.588   9.597 -0.2892  1.5179  0.9004
   18CHL1   H7B 1271   0.181   5.582   9.622 -0.1151  0.5853  0.7636
   18CHL1    C8 1272   0.098   5.398   9.552 -0.4122  0.2003  0.3074
   18CHL1    H8 1273  -0.003   5.364   9.521  0.0324 -0.7480 -0.1225
   18CHL1   C14 1274   0.173   5.430   9.418  0.1459 -0.4002 -0.3828
   18CHL1   H14 1275   0.275   5.465   9.445  0.6940 -1.6741 -0.7386
   18CHL1   C15 1276   0.114   5.539   9.333 -0.7515 -0.2925  0.1937
   18CHL1  H15A 1277   0.003   5.541   9.333 -0.7690  1.3968 -1.8241
   18CHL1  H15B 1278   0.145   5.641   9.365  0.8908 -0.3112 -1.2133
   18CHL1   C16 1279   0.175   5.520   9.192 -0.3492  0.7747 -0.3916
   18CHL1  H16A 1280   0.085   5.520   9.127 -2.7350 -0.5345  2.6105
   18CHL1  H16B 1281   0.246   5.596   9.153 -1.1089  2.2944  1.0641
   18CHL1   C17 1282   0.253   5.381   9.202 -0.1620 -0.4958 -0.3110
   18CHL1   H17 1283   0.353   5.420   9.231 -0.3581  2.1226 -2.7059
   18CHL1   C13 1284   0.195   5.309   9.325  0.6893 -0.3295 -0.2023
   18CHL1   C18 1285   0.054   5.247   9.292  0.3781 -0.7417 -0.4470
   18CHL1  H18A 1286  -0.006   5.221   9.381  0.5913  0.3160  0.0253
   18CHL1  H18B 1287  -0.008   5.319   9.234 -1.6010 -0.9609  1.2790
   18CHL1  H18C 1288   0.072   5.152   9.238  0.3673 -1.1412  0.2526
   18CHL1   C12 1289   0.277   5.204   9.399 -0.2848 -0.3607  0.7160
   18CHL1  H12A 1290   0.291   5.114   9.335 -3.1026  0.6492 -1.5845
   18CHL1  H12B 1291   0.377   5.249   9.415 -0.2925 -1.0586  2.9943
   18CHL1   C11 1292   0.220   5.171   9.538 -0.0947 -0.6058 -0.1980
   18CHL1  H11A 1293   0.130   5.112   9.512  0.9311 -1.6155 -1.6158
   18CHL1  H11B 1294   0.289   5.111   9.601  1.6238  0.5540 -0.9109
   18CHL1    C9 1295   0.188   5.295   9.630  0.3127  0.4224  0.4810
   18CHL1    H9 1296   0.284   5.343   9.656  0.1215 -0.0229  2.0813
   18CHL1   C10 1297   0.121   5.261   9.767  0.5872  0.3462 -0.9718
   18CHL1   C19 1298  -0.003   5.172   9.751 -0.0617 -0.0687 -0.0376
   18CHL1  H19A 1299   0.029   5.074   9.711 -0.2754  0.1848 -0.8503
   18CHL1  H19B 1300  -0.070   5.164   9.839  0.0912 -0.0824  0.0773
   18CHL1  H19C 1301  -0.067   5.213   9.670  0.2301  1.9838  0.7036
   18CHL1    C1 1302   0.230   5.193   9.854  0.4480  0.0013  0.1903
   18CHL1   H1A 1303   0.271   5.105   9.801 -2.1700  0.0883 -2.2028
   18CHL1   H1B 1304   0.310   5.271   9.848 -2.6451  3.3946 -0.8005
   18CHL1    C2 1305   0.210   5.169  10.007 -0.1012 -0.0559 -0.3131
   18CHL1   H2A 1306   0.296   5.133  10.068 -0.3292  3.4555  2.3616
   18CHL1   H2B 1307   0.128   5.095  10.020 -0.3266  0.0649 -1.0250
   18CHL1   C20 1308   0.273   5.296   9.071  0.0221 -0.5031 -0.1007
   18CHL1   H20 1309   0.285   5.189   9.098  1.7179 -0.0375  1.1841
   18CHL1   C21 1310   0.413   5.330   9.013 -0.0821  0.1979 -0.2295
   18CHL1  H21A 1311   0.417   5.436   8.981 -2.5511 -0.3751 -2.7905
   18CHL1  H21B 1312   0.433   5.262   8.927 -0.4562  0.1422 -0.2748
   18CHL1  H21C 1313   0.495   5.296   9.080 -0.6693 -0.5137  0.1559
   18CHL1   C22 1314   0.160   5.305   8.968 -0.3383 -0.1280  0.2582
   18CHL1  H22A 1315   0.064   5.286   9.020 -1.2916  0.1420 -1.3155
   18CHL1  H22B 1316   0.164   5.412   8.937  1.0214  0.3592  1.9540
   18CHL1   C23 1317   0.177   5.206   8.846 -0.5039 -0.4063  0.9460
   18CHL1  H23A 1318   0.282   5.205   8.811 -0.5608 -0.0597  0.7672
   18CHL1  H23B 1319   0.153   5.105   8.887  0.1389 -1.0794 -0.2854
   18CHL1   C24 1320   0.076   5.241   8.741 -0.4125  0.4140  0.2607
   18CHL1  H24A 1321   0.095   5.346   8.709  0.0285  0.4238  0.5578
   18CHL1  H24B 1322   0.091   5.175   8.652  2.5829  0.9248  0.3128
   18CHL1   C25 1323  -0.078   5.244   8.779 -0.2239 -0.1257 -0.4914
   18CHL1   H25 1324  -0.096   5.316   8.862 -0.3931 -0.7539  0.0211
   18CHL1   C26 1325  -0.150   5.306   8.652  0.4204  0.0632  0.2442
   18CHL1  H26A 1326  -0.101   5.405   8.644  2.0977 -0.7666 -0.3191
   18CHL1  H26B 1327  -0.137   5.247   8.559  1.9876 -0.2703  0.6390
   18CHL1  H26C 1328  -0.260   5.302   8.669  0.5725 -1.2428  1.1323
   18CHL1   C27 1329  -0.138   5.111   8.814 -0.1827 -0.2694 -0.7357
   18CHL1  H27A 1330  -0.141   5.051   8.720 -1.6110  1.6520 -1.9774
   18CHL1  H27B 1331  -0.071   5.065   8.890 -0.7413 -0.5072 -0.3770
   18CHL1  H27C 1332  -0.236   5.100   8.865 -0.3696  0.3280 -0.9675
   19CHL1    C3 1333   5.022   1.709   9.918 -0.0870 -0.8763 -0.0238
   19CHL1    H3 1334   4.931   1.657   9.882  0.5714 -2.1229  0.0820
   19CHL1    O3 1335   5.043   1.669  10.056 -0.0315  0.3673 -0.6436
   19CHL1   H3' 1336   5.034   1.574  10.052  1.7944  0.0436  1.4060
   19CHL1    C4 1337   5.144   1.665   9.838 -0.1321  0.1459 -0.1974
   19CHL1   H4A 1338   5.233   1.707   9.889 -0.4091 -1.2349  1.5107
   19CHL1   H4B 1339   5.146   1.555   9.856 -1.5355 -0.0733 -1.1555
   19CHL1    C5 1340   5.139   1.711   9.698 -0.1202  0.4857  0.2254
   19CHL1    C6 1341   5.149   1.622   9.594 -0.2133  0.5680 -0.2073
   19CHL1    H6 1342   5.180   1.517   9.609 -0.3208  0.8503  2.3616
   19CHL1    C7 1343   5.153   1.665   9.446  0.7281  0.2278  0.6519
   19CHL1   H7A 1344   5.238   1.629   9.384  0.9976  2.2836 -0.2592
   19CHL1   H7B 1345   5.060   1.628   9.398  1.4004 -1.1526  0.3560
   19CHL1    C8 1346   5.159   1.816   9.428  0.2634  0.2356  0.8229
   19CHL1    H8 1347   5.262   1.854   9.448 -0.0451  1.6766 -0.1641
   19CHL1   C14 1348   5.115   1.857   9.287 -0.5282  0.3947  0.1367
   19CHL1   H14 1349   5.005   1.840   9.292 -0.1495 -2.3690  0.8582
   19CHL1   C15 1350   5.173   1.777   9.173 -0.1460  0.0161  0.4869
   19CHL1  H15A 1351   5.281   1.760   9.191 -0.4592 -0.9573  1.5328
   19CHL1  H15B 1352   5.119   1.680   9.169 -1.1660  0.5481  0.8471
   19CHL1   C16 1353   5.144   1.857   9.050  0.3044 -0.2214 -0.8397
   19CHL1  H16A 1354   5.237   1.889   8.998  0.8204  1.0949  0.7729
   19CHL1  H16B 1355   5.085   1.804   8.973  1.4467 -2.1434 -0.4419
   19CHL1   C17 1356   5.086   1.997   9.106 -0.0626 -0.0699 -0.1324
   19CHL1   H17 1357   4.977   1.977   9.106 -0.2267  0.7747  0.4547
   19CHL1   C13 1358   5.123   2.006   9.257  0.2894 -0.1984 -0.6288
   19CHL1   C18 1359   5.264   2.071   9.258  0.2230  0.3956 -0.7903
   19CHL1  H18A 1360   5.268   2.174   9.218 -2.4162  0.4513 -1.0575
   19CHL1  H18B 1361   5.300   2.079   9.363  1.9359 -0.1702 -1.2973
   19CHL1  H18C 1362   5.336   1.997   9.216 -0.4377 -0.3509 -0.6333
   19CHL1   C12 1363   5.010   2.070   9.347  0.0473 -0.3319  0.5114
   19CHL1  H12A 1364   5.000   2.181   9.353 -2.8672 -0.6023  2.9327
   19CHL1  H12B 1365   4.907   2.039   9.318 -1.1176  1.2209  2.6558
   19CHL1   C11 1366   5.035   2.039   9.494  0.5564  0.6416  0.0030
   19CHL1  H11A 1367   5.133   2.084   9.519  0.3244  0.4869  1.2288
   19CHL1  H11B 1368   4.960   2.092   9.557 -2.6132 -2.3427 -0.8995
   19CHL1    C9 1369   5.065   1.887   9.527  0.3088 -0.4413  0.2199
   19CHL1    H9 1370   4.964   1.842   9.515 -0.1639  0.1435  1.7491
   19CHL1   C10 1371   5.106   1.858   9.676 -0.1024  0.2248  0.3357
   19CHL1   C19 1372   5.234   1.940   9.705 -0.3253 -0.3401  0.9615
   19CHL1  H19A 1373   5.211   2.048   9.701 -2.4270 -0.7674  0.5373
   19CHL1  H19B 1374   5.259   1.926   9.812  1.2670 -1.4108  0.4925
   19CHL1  H19C 1375   5.315   1.905   9.637 -0.0433 -0.7022  1.4798
   19CHL1    C1 1376   4.984   1.892   9.770  0.0968 -0.2234  0.7463
   19CHL1   H1A 1377   4.951   1.997   9.755  0.9456 -0.1075 -0.4357
   19CHL1   H1B 1378   4.897   1.828   9.745 -0.1352  0.6161 -0.6943
   19CHL1    C2 1379   5.015   1.864   9.912  0.3445  0.0495  0.3855
   19CHL1   H2A 1380   4.937   1.903   9.980  1.4477  1.7890  0.7124
   19CHL1   H2B 1381   5.110   1.902   9.956  0.4809 -1.8414  1.8771
   19CHL1   C20 1382   5.092   2.117   9.002  0.7950  0.5316  0.0684
   19CHL1   H20 1383   5.199   2.147   8.996  1.1666 -0.2427  2.1110
   19CHL1   C21 1384   5.011   2.238   9.054  0.1381 -0.1952  0.7572
   19CHL1  H21A 1385   5.075   2.290   9.128 -0.5389 -1.2351  2.1189
   19CHL1  H21B 1386   4.924   2.193   9.106 -1.5455  2.4513  0.4084
   19CHL1  H21C 1387   4.986   2.315   8.978 -0.3462 -0.1742  0.9307
   19CHL1   C22 1388   5.051   2.081   8.860  0.1084  0.6657  0.1342
   19CHL1  H22A 1389   5.076   1.977   8.829 -1.6633  0.3072 -0.1949
   19CHL1  H22B 1390   4.941   2.081   8.848  0.2096 -1.4428 -1.2853
   19CHL1   C23 1391   5.102   2.177   8.755  0.5157  0.0896  0.6018
   19CHL1  H23A 1392   5.043   2.271   8.765  0.5172 -0.0981  3.0613
   19CHL1  H23B 1393   5.203   2.214   8.783  0.0081  1.6631  0.4754
   19CHL1   C24 1394   5.109   2.123   8.610  0.1493  1.2356  0.0309
   19CHL1  H24A 1395   5.154   2.023   8.625  2.8235  2.5563  1.5928
   19CHL1  H24B 1396   5.015   2.111   8.553  1.6516 -1.2761 -2.1199
   19CHL1   C25 1397   5.198   2.211   8.524 -0.0697  0.2876  0.4406
   19CHL1   H25 1398   5.299   2.208   8.572  1.4210  1.2454 -2.3986
   19CHL1   C26 1399   5.218   2.147   8.381 -0.2260  0.1747  0.2942
   19CHL1  H26A 1400   5.257   2.045   8.403  2.7509  0.8953 -1.0679
   19CHL1  H26B 1401   5.121   2.146   8.328  0.6419  2.3473 -1.5042
   19CHL1  H26C 1402   5.299   2.204   8.330  0.8236  2.1466  3.8095
   19CHL1   C27 1403   5.161   2.362   8.512 -0.3054 -0.7654 -0.3529
   19CHL1  H27A 1404   5.075   2.374   8.442 -0.0470 -0.6612 -0.6577
   19CHL1  H27B 1405   5.149   2.411   8.610 -0.5508 -1.9306  0.2131
   19CHL1  H27C 1406   5.246   2.407   8.455 -0.0877 -0.4364  0.2290
   20CHL1    C3 1407   0.085   2.272  10.480  0.2067 -0.3015  0.2146
   20CHL1    H3 1408   0.171   2.340  10.460  0.9312 -1.1907  0.1956
   20CHL1    O3 1409   0.020   2.311  10.600 -0.4792  0.0324 -0.2288
   20CHL1   H3' 1410   0.062   2.393  10.626  1.1538 -0.7996 -0.1253
   20CHL1    C4 1411  -0.010   2.299  10.355  1.0324 -0.1938 -0.2823
   20CHL1   H4A 1412  -0.103   2.243  10.380  0.6001  1.2020  1.3502
   20CHL1   H4B 1413  -0.035   2.407  10.357  0.9699 -0.2072 -0.3428
   20CHL1    C5 1414   0.046   2.248  10.223  0.3645 -0.1637 -0.0840
   20CHL1    C6 1415   0.054   2.330  10.108 -0.1430 -0.3209  0.3004
   20CHL1    H6 1416   0.017   2.434  10.112 -1.8115 -0.8948  0.8600
   20CHL1    C7 1417   0.108   2.277   9.981  0.0541  0.0473 -0.0459
   20CHL1   H7A 1418   0.034   2.313   9.906  0.1391 -1.4276 -0.8683
   20CHL1   H7B 1419   0.202   2.329   9.953 -0.1953  1.0749  0.9368
   20CHL1    C8 1420   0.116   2.119   9.973  0.7543 -0.2988  0.6705
   20CHL1    H8 1421   0.017   2.071   9.962 -0.7137  2.2831  1.7108
   20CHL1   C14 1422   0.191   2.071   9.848  0.3801 -0.0395  0.5733
   20CHL1   H14 1423   0.290   2.119   9.860 -0.8649  2.7351  0.4759
   20CHL1   C15 1424   0.128   2.112   9.715  0.2557  0.6587 -0.6514
   20CHL1  H15A 1425   0.019   2.096   9.722  0.5002 -0.3762  1.7097
   20CHL1  H15B 1426   0.156   2.218   9.694 -2.2145  1.1947 -1.5949
   20CHL1   C16 1427   0.193   2.014   9.611 -0.1749  0.8366 -0.3494
   20CHL1  H16A 1428   0.120   1.967   9.541 -0.3317  0.9832 -0.2852
   20CHL1  H16B 1429   0.261   2.084   9.558 -0.8315  2.0254  0.3184
   20CHL1   C17 1430   0.283   1.909   9.691  0.8776 -0.5941  0.1584
   20CHL1   H17 1431   0.383   1.957   9.681  0.0232  0.9298 -1.8055
   20CHL1   C13 1432   0.221   1.922   9.837 -0.4827 -0.0374  0.3271
   20CHL1   C18 1433   0.087   1.843   9.837 -0.8007  0.1999 -0.2298
   20CHL1  H18A 1434   0.097   1.735   9.863 -2.7018 -0.4726 -2.0594
   20CHL1  H18B 1435   0.017   1.888   9.910 -0.2776 -0.8704  0.9764
   20CHL1  H18C 1436   0.034   1.847   9.739 -2.4175 -1.0092  0.5593
   20CHL1   C12 1437   0.301   1.888   9.969 -0.7629 -0.3076 -0.9884
   20CHL1  H12A 1438   0.335   1.782   9.967 -0.5722 -0.2607 -0.2154
   20CHL1  H12B 1439   0.397   1.944   9.970 -0.6335 -0.4802  1.5848
   20CHL1   C11 1440   0.232   1.924  10.102 -0.1890 -0.3620  0.2515
   20CHL1  H11A 1441   0.156   1.846  10.126 -0.1069 -1.1487 -1.8565
   20CHL1  H11B 1442   0.305   1.914  10.185 -1.2134  2.6853  1.6798
   20CHL1    C9 1443   0.181   2.067  10.102  0.4441 -1.5042  0.0305
   20CHL1    H9 1444   0.275   2.127  10.109 -0.9058  0.7614 -0.2753
   20CHL1   C10 1445   0.100   2.107  10.227  1.6153  0.1601  0.0864
   20CHL1   C19 1446  -0.021   2.005  10.237 -0.3390 -0.3417  0.3429
   20CHL1  H19A 1447  -0.094   2.038  10.314  3.3473  0.3533  3.9644
   20CHL1  H19B 1448  -0.072   1.991  10.140  1.2987  0.3757 -0.6568
   20CHL1  H19C 1449   0.010   1.904  10.271 -2.9121 -1.7002 -1.0480
   20CHL1    C1 1450   0.190   2.097  10.357 -0.2944  0.1067  0.8010
   20CHL1   H1A 1451   0.211   1.989  10.374  1.7928  0.3598  0.0737
   20CHL1   H1B 1452   0.286   2.147  10.334 -1.1423  1.4029 -0.0667
   20CHL1    C2 1453   0.129   2.125  10.489  0.4117 -0.9341  0.2005
   20CHL1   H2A 1454   0.214   2.120  10.561  1.1791 -0.2544 -0.6288
   20CHL1   H2B 1455   0.051   2.049  10.512  0.9404 -1.5838 -0.1121
   20CHL1   C20 1456   0.289   1.776   9.630 -0.4609  0.5294  0.2743
   20CHL1   H20 1457   0.186   1.735   9.642  0.0300 -0.1801  2.6074
   20CHL1   C21 1458   0.389   1.687   9.700 -0.4679 -0.4729 -0.3413
   20CHL1  H21A 1459   0.406   1.593   9.643 -0.5774  1.3402 -3.5880
   20CHL1  H21B 1460   0.371   1.664   9.808  1.8665  1.6938  0.6166
   20CHL1  H21C 1461   0.490   1.733   9.702 -0.1691 -1.0856  2.0407
   20CHL1   C22 1462   0.322   1.792   9.478 -0.4985  0.2774  0.0069
   20CHL1  H22A 1463   0.236   1.841   9.428  0.2707 -0.0230 -1.6636
   20CHL1  H22B 1464   0.413   1.851   9.456 -0.8241 -0.2085 -3.1330
   20CHL1   C23 1465   0.338   1.658   9.401 -0.4329  0.3377 -0.2814
   20CHL1  H23A 1466   0.424   1.607   9.450  0.7456  1.9420 -0.6015
   20CHL1  H23B 1467   0.245   1.597   9.401 -0.5647  0.5222  0.4618
   20CHL1   C24 1468   0.367   1.677   9.253  0.5537 -0.0737  1.1987
   20CHL1  H24A 1469   0.272   1.706   9.204  0.6629 -1.3466  0.1840
   20CHL1  H24B 1470   0.443   1.757   9.236 -0.4904  0.9073  0.9931
   20CHL1   C25 1471   0.404   1.541   9.187 -0.1479 -0.0231 -0.4377
   20CHL1   H25 1472   0.353   1.462   9.247  0.7755  0.5379  1.1728
   20CHL1   C26 1473   0.360   1.528   9.044 -0.0104  0.2631  0.6644
   20CHL1  H26A 1474   0.255   1.551   9.017 -0.0367 -0.8512 -0.2569
   20CHL1  H26B 1475   0.425   1.603   8.993 -1.8442  0.9868 -0.7134
   20CHL1  H26C 1476   0.389   1.433   8.996 -1.1448  0.2218  0.0375
   20CHL1   C27 1477   0.552   1.516   9.197  0.3065 -0.0941 -0.1513
   20CHL1  H27A 1478   0.607   1.577   9.121  2.7408 -1.1094  0.6958
   20CHL1  H27B 1479   0.599   1.541   9.294  0.9229 -1.5994 -0.0402
   20CHL1  H27C 1480   0.569   1.408   9.179  2.3913  0.3480 -1.2323
   21CHL1    C3 1481   6.015   5.719  10.270  0.1522  0.0704  0.2025
   21CHL1    H3 1482   6.063   5.620  10.285 -0.3895  0.1229  2.7057
   21CHL1    O3 1483   5.938   5.744  10.388  0.5325 -0.1075  0.0174
   21CHL1   H3' 1484   5.904   5.833  10.373  2.6271  0.3991 -2.4708
   21CHL1    C4 1485   6.119   5.837  10.249  0.4396  0.3656  0.0612
   21CHL1   H4A 1486   6.062   5.932  10.255 -1.0307 -0.4825  0.1160
   21CHL1   H4B 1487   6.200   5.830  10.325  1.2676 -0.9061 -0.9075
   21CHL1    C5 1488   6.190   5.831  10.113 -0.8311  0.2783  0.2117
   21CHL1    C6 1489   6.324   5.837  10.101 -0.8678  0.1170  0.0782
   21CHL1    H6 1490   6.376   5.850  10.197  2.1498  1.0843 -1.5658
   21CHL1    C7 1491   6.395   5.833   9.969  0.9460  0.6230  0.0933
   21CHL1   H7A 1492   6.475   5.908   9.956  1.7231  0.2102  2.2303
   21CHL1   H7B 1493   6.435   5.731   9.950  0.3044  0.5705 -1.1282
   21CHL1    C8 1494   6.300   5.855   9.851  0.5673 -0.2660 -0.6406
   21CHL1    H8 1495   6.280   5.964   9.843  0.4011 -0.3770 -1.9462
   21CHL1   C14 1496   6.373   5.821   9.717 -0.8059 -0.3070 -0.0067
   21CHL1   H14 1497   6.397   5.714   9.734  1.2067 -0.0818 -1.0447
   21CHL1   C15 1498   6.512   5.874   9.689 -0.3166 -0.4024  0.0970
   21CHL1  H15A 1499   6.503   5.985   9.690  0.3942 -0.3303  1.5884
   21CHL1  H15B 1500   6.584   5.843   9.768  0.2438 -1.5455 -0.8270
   21CHL1   C16 1501   6.533   5.833   9.546 -0.3161 -0.2891 -0.1128
   21CHL1  H16A 1502   6.554   5.922   9.481 -1.6676  2.5163  2.9924
   21CHL1  H16B 1503   6.623   5.768   9.538  0.3654  0.5907  0.2215
   21CHL1   C17 1504   6.396   5.770   9.493 -1.0525 -0.4697 -0.4323
   21CHL1   H17 1505   6.409   5.661   9.510  2.5100 -0.0689  0.3290
   21CHL1   C13 1506   6.292   5.830   9.590  0.5477 -0.0119  0.1293
   21CHL1   C18 1507   6.261   5.974   9.543 -0.1217  0.3207 -0.0328
   21CHL1  H18A 1508   6.353   6.035   9.531  0.5306 -1.0430 -2.6377
   21CHL1  H18B 1509   6.206   5.969   9.447  0.5407  0.3465 -0.4213
   21CHL1  H18C 1510   6.208   6.028   9.624 -0.9674  2.5147 -1.9348
   21CHL1   C12 1511   6.171   5.744   9.606  0.2683  0.7599  0.0284
   21CHL1  H12A 1512   6.105   5.756   9.517 -0.3958  1.1149  0.5534
   21CHL1  H12B 1513   6.196   5.636   9.598 -0.6680  0.4791  0.6508
   21CHL1   C11 1514   6.087   5.784   9.730  0.0827  0.4031 -0.5490
   21CHL1  H11A 1515   6.059   5.891   9.716  1.5277  1.2605  2.2601
   21CHL1  H11B 1516   5.992   5.726   9.738 -0.5657  1.5932  0.8385
   21CHL1    C9 1517   6.167   5.777   9.862  0.7714  1.4374  0.2877
   21CHL1    H9 1518   6.196   5.670   9.860 -1.7045  0.6984 -0.1439
   21CHL1   C10 1519   6.089   5.812   9.995 -0.0126 -0.1394  0.1585
   21CHL1   C19 1520   5.999   5.939   9.971  0.1765 -0.0579 -0.2559
   21CHL1  H19A 1521   5.919   5.916   9.897 -3.0531  0.0655  2.9326
   21CHL1  H19B 1522   5.959   5.978  10.067  0.5492  0.5495 -0.3414
   21CHL1  H19C 1523   6.054   6.020   9.919 -1.9254  2.2133  0.8944
   21CHL1    C1 1524   5.997   5.690  10.017  0.2926  0.0922 -0.2133
   21CHL1   H1A 1525   5.918   5.680   9.940 -0.6727 -0.7310  0.8464
   21CHL1   H1B 1526   6.058   5.597  10.015  0.7858  0.4182 -1.9245
   21CHL1    C2 1527   5.913   5.711  10.148 -0.1134 -0.4048  0.7055
   21CHL1   H2A 1528   5.836   5.631  10.157 -1.3151  0.6102 -0.1041
   21CHL1   H2B 1529   5.852   5.804  10.144 -1.3895 -1.1750  1.3709
   21CHL1   C20 1530   6.380   5.778   9.343 -0.0561 -0.5136  0.1520
   21CHL1   H20 1531   6.377   5.886   9.319  0.0546 -0.6654 -0.5751
   21CHL1   C21 1532   6.257   5.701   9.300  0.2102 -0.1178 -0.2300
   21CHL1  H21A 1533   6.260   5.678   9.191 -1.8674 -0.8700 -0.1714
   21CHL1  H21B 1534   6.165   5.758   9.322  1.4152  1.2178  1.7064
   21CHL1  H21C 1535   6.253   5.604   9.354 -0.9423 -1.4836 -2.5775
   21CHL1   C22 1536   6.501   5.710   9.268 -0.3659 -1.2924  0.4046
   21CHL1  H22A 1537   6.595   5.736   9.321 -0.6729  1.3699 -0.2098
   21CHL1  H22B 1538   6.490   5.600   9.273  0.6913 -1.3542  2.1372
   21CHL1   C23 1539   6.511   5.751   9.122  0.4175 -0.5134 -0.3625
   21CHL1  H23A 1540   6.416   5.708   9.083 -0.1984  0.3086  0.2095
   21CHL1  H23B 1541   6.510   5.862   9.113 -1.6021 -0.5248 -0.6512
   21CHL1   C24 1542   6.632   5.684   9.057 -0.3379 -0.6760 -0.4433
   21CHL1  H24A 1543   6.712   5.734   9.116 -0.0030 -1.3835 -0.2841
   21CHL1  H24B 1544   6.638   5.574   9.071 -0.4455 -0.3761  2.4072
   21CHL1   C25 1545   6.664   5.720   8.911 -0.7195 -0.1126 -0.3255
   21CHL1   H25 1546   6.567   5.726   8.857 -0.8876  0.1768  0.0045
   21CHL1   C26 1547   6.740   5.852   8.893 -0.7769  0.3766 -0.1332
   21CHL1  H26A 1548   6.678   5.932   8.938 -0.6383  0.4387 -0.0509
   21CHL1  H26B 1549   6.837   5.852   8.948 -0.8724  2.8757  0.1265
   21CHL1  H26C 1550   6.762   5.864   8.785  2.1576  0.0061  0.3481
   21CHL1   C27 1551   6.749   5.606   8.850 -0.2502  0.3260  0.0846
   21CHL1  H27A 1552   6.816   5.556   8.924 -0.9521  0.3828  0.7677
   21CHL1  H27B 1553   6.672   5.528   8.831  1.9556 -2.3987  1.4164
   21CHL1  H27C 1554   6.799   5.630   8.753  2.0735  2.0162  1.5980
   22CHL1    C3 1555   4.785   6.344   9.978 -0.5412 -0.4014 -0.7509
   22CHL1    H3 1556   4.894   6.360   9.987 -0.0351 -3.4835 -0.1339
   22CHL1    O3 1557   4.735   6.313  10.104 -0.3016  0.1942  0.1430
   22CHL1   H3' 1558   4.712   6.220  10.101  0.0933  0.0053  1.8394
   22CHL1    C4 1559   4.717   6.477   9.935 -0.1211  0.5119  0.0580
   22CHL1   H4A 1560   4.609   6.470   9.963 -0.2669  0.6463 -0.4680
   22CHL1   H4B 1561   4.753   6.550  10.011 -1.2375  0.2511  0.8832
   22CHL1    C5 1562   4.746   6.517   9.795 -0.5098  0.5406  0.6886
   22CHL1    C6 1563   4.780   6.639   9.759  0.0483  0.0204 -0.9451
   22CHL1    H6 1564   4.774   6.719   9.834  1.1918 -1.8218  1.2090
   22CHL1    C7 1565   4.803   6.691   9.615 -0.0412 -0.2231 -0.2024
   22CHL1   H7A 1566   4.773   6.797   9.604 -0.6700 -0.3137  0.5907
   22CHL1   H7B 1567   4.914   6.698   9.609  0.0673 -1.1203  0.4954
   22CHL1    C8 1568   4.757   6.591   9.508 -0.1963  0.1068 -0.1019
   22CHL1    H8 1569   4.648   6.611   9.500  0.2046  2.4296 -0.4316
   22CHL1   C14 1570   4.817   6.618   9.369 -0.2367  0.0709  0.6007
   22CHL1   H14 1571   4.925   6.602   9.384 -0.6192 -1.6918  1.6690
   22CHL1   C15 1572   4.812   6.765   9.333 -0.1063 -0.0517 -0.2681
   22CHL1  H15A 1573   4.709   6.807   9.340  1.0118  3.2392 -1.4006
   22CHL1  H15B 1574   4.876   6.833   9.393 -0.2671 -0.0022 -0.1504
   22CHL1   C16 1575   4.841   6.759   9.184  0.4705  0.3585  0.1398
   22CHL1  H16A 1576   4.760   6.809   9.128  0.5802  1.0579  0.5978
   22CHL1  H16B 1577   4.946   6.792   9.165  1.6580 -1.5142  2.7750
   22CHL1   C17 1578   4.840   6.612   9.135 -0.1568 -0.0529  0.3956
   22CHL1   H17 1579   4.947   6.581   9.133 -0.0191  0.4175  0.3395
   22CHL1   C13 1580   4.776   6.531   9.250  0.4026 -0.2671 -0.0998
   22CHL1   C18 1581   4.625   6.538   9.234  0.1806  0.0585 -0.2759
   22CHL1  H18A 1582   4.588   6.483   9.145  0.6422  0.6122 -0.8198
   22CHL1  H18B 1583   4.570   6.505   9.325  0.7132 -3.2913 -1.0727
   22CHL1  H18C 1584   4.595   6.644   9.219 -0.1320 -0.0598 -0.4949
   22CHL1   C12 1585   4.829   6.386   9.288  0.1420  0.7080  0.1146
   22CHL1  H12A 1586   4.777   6.317   9.218 -0.4308  0.5434  0.6998
   22CHL1  H12B 1587   4.939   6.374   9.286 -0.1380 -2.4897 -0.4430
   22CHL1   C11 1588   4.783   6.347   9.435  0.2381  0.1899  0.6267
   22CHL1  H11A 1589   4.675   6.323   9.422  0.2436  0.4987  0.0075
   22CHL1  H11B 1590   4.829   6.250   9.463 -0.2397  0.6346  3.3049
   22CHL1    C9 1591   4.803   6.446   9.550  0.4040  0.5742  0.1833
   22CHL1    H9 1592   4.912   6.450   9.566  0.3594 -0.2568  0.6826
   22CHL1   C10 1593   4.737   6.402   9.686  0.0507 -0.0776 -0.4010
   22CHL1   C19 1594   4.585   6.391   9.657  0.1906 -0.2829 -0.9328
   22CHL1  H19A 1595   4.523   6.371   9.747 -0.1395  0.3130 -1.0204
   22CHL1  H19B 1596   4.533   6.485   9.628 -1.9077 -0.4457  1.8476
   22CHL1  H19C 1597   4.561   6.324   9.572 -1.6853  0.2888 -0.8982
   22CHL1    C1 1598   4.802   6.265   9.745 -0.1281 -0.0766 -0.2711
   22CHL1   H1A 1599   4.772   6.182   9.677  1.3857 -1.2081  0.3753
   22CHL1   H1B 1600   4.911   6.282   9.739  0.4701 -3.3425 -0.3799
   22CHL1    C2 1601   4.765   6.221   9.885 -0.1731 -0.3208  0.0466
   22CHL1   H2A 1602   4.833   6.140   9.919 -0.7503 -0.2768  1.3242
   22CHL1   H2B 1603   4.659   6.189   9.893 -0.5651  0.7230 -0.6679
   22CHL1   C20 1604   4.801   6.583   8.991  0.3928 -0.3987  0.0221
   22CHL1   H20 1605   4.690   6.583   8.978  0.1883 -1.1044  1.6007
   22CHL1   C21 1606   4.842   6.441   8.960 -0.7449 -0.0703 -0.0971
   22CHL1  H21A 1607   4.951   6.431   8.982 -0.5555 -0.6914 -1.2370
   22CHL1  H21B 1608   4.821   6.404   8.857 -2.7730  0.8387 -0.0396
   22CHL1  H21C 1609   4.783   6.370   9.021 -1.7928  0.6944 -0.1898
   22CHL1   C22 1610   4.873   6.680   8.885 -0.0996 -0.4632 -0.1455
   22CHL1  H22A 1611   4.877   6.788   8.912  2.0021 -0.7472  0.8408
   22CHL1  H22B 1612   4.981   6.654   8.890  0.2607  0.8128 -0.9561
   22CHL1   C23 1613   4.818   6.654   8.747 -0.4344  0.2013  0.8825
   22CHL1  H23A 1614   4.860   6.556   8.715 -1.0813  1.1789 -3.5557
   22CHL1  H23B 1615   4.708   6.644   8.744 -0.2645 -2.1133 -0.7345
   22CHL1   C24 1616   4.868   6.762   8.642 -0.2925  0.1957 -0.0436
   22CHL1  H24A 1617   4.827   6.860   8.674 -0.6452  0.1666 -0.3953
   22CHL1  H24B 1618   4.978   6.768   8.632 -0.2053 -0.2885  0.5733
   22CHL1   C25 1619   4.808   6.722   8.504 -0.2263  0.0804 -0.0924
   22CHL1   H25 1620   4.704   6.689   8.527 -0.5394  1.8616  1.3385
   22CHL1   C26 1621   4.804   6.830   8.400  0.0408 -0.7176 -0.0522
   22CHL1  H26A 1622   4.751   6.922   8.431  0.0541 -0.2869 -1.2458
   22CHL1  H26B 1623   4.906   6.862   8.369 -0.7796  1.9412 -0.2736
   22CHL1  H26C 1624   4.748   6.790   8.312  0.1851  2.4215 -1.6991
   22CHL1   C27 1625   4.893   6.608   8.448  0.4089 -0.3248  0.1961
   22CHL1  H27A 1626   4.994   6.647   8.427 -0.1867  0.9247 -0.4368
   22CHL1  H27B 1627   4.899   6.522   8.518 -2.0909 -1.2447 -0.5884
   22CHL1  H27C 1628   4.853   6.571   8.351 -0.9588  0.3029  0.4968
   23CHL1    C3 1629   3.377   0.777  10.069  0.2999  1.0066  0.1768
   23CHL1    H3 1630   3.288   0.841  10.050 -0.8878 -0.9926 -1.4605
   23CHL1    O3 1631   3.379   0.738  10.204  0.4833  0.3597 -0.0105
   23CHL1   H3' 1632   3.464   0.694  10.216 -0.2831 -0.7530  1.6059
   23CHL1    C4 1633   3.367   0.649   9.985  0.1601 -0.1518 -0.4179
   23CHL1   H4A 1634   3.462   0.592   9.991  1.7441  2.3617  0.2815
   23CHL1   H4B 1635   3.286   0.581  10.019 -0.4796  1.1627  0.7803
   23CHL1    C5 1636   3.360   0.697   9.844  0.1768  0.8583 -0.2084
   23CHL1    C6 1637   3.247   0.666   9.779 -0.6918  0.3265  0.6739
   23CHL1    H6 1638   3.164   0.612   9.826 -2.1256  1.4860 -0.4409
   23CHL1    C7 1639   3.229   0.687   9.632 -0.2438  0.3128 -0.5153
   23CHL1   H7A 1640   3.194   0.592   9.588  0.0281  0.3894 -0.8983
   23CHL1   H7B 1641   3.150   0.762   9.606 -0.3876 -0.0206 -1.0585
   23CHL1    C8 1642   3.357   0.743   9.561  0.4749  0.2569 -0.4581
   23CHL1    H8 1643   3.422   0.654   9.547  0.9819  0.8596 -2.1186
   23CHL1   C14 1644   3.320   0.809   9.435 -0.1654  0.5076 -0.0933
   23CHL1   H14 1645   3.264   0.903   9.452  0.7222  0.9648  0.3847
   23CHL1   C15 1646   3.235   0.726   9.340 -0.0832  0.1821  0.7155
   23CHL1  H15A 1647   3.273   0.622   9.333 -1.5810 -0.6624  3.4870
   23CHL1  H15B 1648   3.126   0.712   9.360 -0.5062  0.5277 -1.1590
   23CHL1   C16 1649   3.263   0.787   9.197 -0.8138 -0.9906  0.3449
   23CHL1  H16A 1650   3.295   0.714   9.120  1.1908  0.8041 -0.6274
   23CHL1  H16B 1651   3.166   0.830   9.165 -0.3726 -1.6432 -2.0189
   23CHL1   C17 1652   3.371   0.896   9.222 -0.3638 -0.5662  0.2850
   23CHL1   H17 1653   3.322   0.991   9.251  0.8565 -0.1342  1.0274
   23CHL1   C13 1654   3.440   0.859   9.350 -0.1183 -0.0792 -1.1559
   23CHL1   C18 1655   3.536   0.737   9.328  0.1319 -0.1000 -0.1426
   23CHL1  H18A 1656   3.581   0.706   9.424  0.1572  2.1843  0.6528
   23CHL1  H18B 1657   3.481   0.650   9.286 -3.0670  1.2183  0.9952
   23CHL1  H18C 1658   3.620   0.768   9.262  0.4417 -0.6353  0.0012
   23CHL1   C12 1659   3.494   0.971   9.438 -0.3746  0.3835 -0.2319
   23CHL1  H12A 1660   3.580   1.024   9.390  0.0993 -0.1971 -0.0351
   23CHL1  H12B 1661   3.410   1.042   9.452 -2.0048 -0.9550 -2.7041
   23CHL1   C11 1662   3.548   0.925   9.580 -0.1685 -0.0008  0.4328
   23CHL1  H11A 1663   3.634   0.856   9.565  0.8478  0.6063  2.9435
   23CHL1  H11B 1664   3.578   1.006   9.650  1.2982 -0.6592  0.6085
   23CHL1    C9 1665   3.430   0.846   9.649  0.6078  0.2975  0.2422
   23CHL1    H9 1666   3.348   0.919   9.669 -0.9354 -2.1203  3.7019
   23CHL1   C10 1667   3.470   0.784   9.787 -0.1721  0.4967  0.1776
   23CHL1   C19 1668   3.603   0.698   9.770 -0.0332  0.0019  0.2345
   23CHL1  H19A 1669   3.690   0.764   9.750  0.8940 -1.0061  0.8506
   23CHL1  H19B 1670   3.627   0.630   9.855  0.5419  0.1509  0.1925
   23CHL1  H19C 1671   3.589   0.631   9.683 -1.4453  1.6530 -0.8717
   23CHL1    C1 1672   3.505   0.895   9.891  0.6822  0.1495 -0.1272
   23CHL1   H1A 1673   3.598   0.951   9.868  0.6929 -0.0698 -0.6264
   23CHL1   H1B 1674   3.425   0.972   9.876  0.3928 -0.0245  0.5014
   23CHL1    C2 1675   3.502   0.852  10.041 -1.1450  0.3181  0.5618
   23CHL1   H2A 1676   3.499   0.941  10.108 -0.8521 -0.8463  2.1575
   23CHL1   H2B 1677   3.587   0.782  10.054 -0.8023 -0.3176 -3.6641
   23CHL1   C20 1678   3.460   0.926   9.096  0.2095  0.0276  0.3238
   23CHL1   H20 1679   3.511   0.833   9.063  0.7318  0.3959  0.0858
   23CHL1   C21 1680   3.554   1.043   9.115 -0.5342 -0.4043 -0.4157
   23CHL1  H21A 1681   3.635   1.032   9.191 -3.3901  0.1998  3.0297
   23CHL1  H21B 1682   3.498   1.131   9.155 -0.5110 -1.9272  3.3947
   23CHL1  H21C 1683   3.609   1.060   9.020 -0.9926 -0.3439 -0.6695
   23CHL1   C22 1684   3.363   0.954   8.979 -0.3663 -0.8482 -0.4149
   23CHL1  H22A 1685   3.264   0.907   9.001  0.3402 -2.1677  0.0273
   23CHL1  H22B 1686   3.359   1.065   8.972  1.4865 -0.8493 -2.7893
   23CHL1   C23 1687   3.402   0.912   8.840  0.3724 -0.1957  0.2843
   23CHL1  H23A 1688   3.499   0.963   8.821  0.5192 -1.1203 -1.7031
   23CHL1  H23B 1689   3.425   0.803   8.845 -0.7764 -0.5054 -0.7235
   23CHL1   C24 1690   3.311   0.965   8.726  0.1797  1.0207  0.3707
   23CHL1  H24A 1691   3.217   0.910   8.748 -0.9920  2.7401 -0.0519
   23CHL1  H24B 1692   3.293   1.073   8.747  1.3557  1.2366  0.3131
   23CHL1   C25 1693   3.356   0.948   8.582  0.1369  0.5124  0.0489
   23CHL1   H25 1694   3.420   0.858   8.580 -0.5215 -0.0206  1.4234
   23CHL1   C26 1695   3.242   0.939   8.486  0.3962 -0.4454 -0.0259
   23CHL1  H26A 1696   3.267   0.903   8.384 -2.3690  1.3426 -1.4474
   23CHL1  H26B 1697   3.171   0.865   8.530  0.0509  0.8371  1.6747
   23CHL1  H26C 1698   3.187   1.035   8.480 -1.2356 -1.1889  1.8483
   23CHL1   C27 1699   3.446   1.069   8.535  0.8901  0.3595  0.0858
   23CHL1  H27A 1700   3.476   1.046   8.431  1.9513 -3.5126  1.0615
   23CHL1  H27B 1701   3.386   1.162   8.545  0.6353  0.3934 -1.5272
   23CHL1  H27C 1702   3.536   1.066   8.600  0.3374 -2.9059  0.8954
   24CHL1    C3 1703   3.972   1.740  10.181  0.9677 -0.2447  0.1252
   24CHL1    H3 1704   3.982   1.838  10.233  0.2179 -1.0652  1.9033
   24CHL1    O3 1705   3.919   1.650  10.280  0.2849 -0.0309  0.2442
   24CHL1   H3' 1706   3.923   1.562  10.243  3.9388  0.7443 -1.6598
   24CHL1    C4 1707   3.852   1.761  10.076 -0.1853  0.5090  0.0002
   24CHL1   H4A 1708   3.816   1.657  10.062  1.3237 -0.3261  1.9542
   24CHL1   H4B 1709   3.772   1.810  10.136 -1.8340 -0.4980 -1.2781
   24CHL1    C5 1710   3.900   1.837   9.950  0.0574  0.0137  0.5494
   24CHL1    C6 1711   3.845   1.945   9.909  0.0220 -0.0830  0.1674
   24CHL1    H6 1712   3.770   1.992   9.974  0.6753 -0.9950  1.6384
   24CHL1    C7 1713   3.872   2.012   9.779  0.4333  0.1700  1.6335
   24CHL1   H7A 1714   3.784   2.068   9.740  1.0987  1.3190  1.7096
   24CHL1   H7B 1715   3.945   2.091   9.808 -0.9479  1.7944  0.8391
   24CHL1    C8 1716   3.950   1.915   9.680 -0.1631 -0.1293  0.3620
   24CHL1    H8 1717   3.879   1.836   9.648  0.1444 -0.2297 -0.0768
   24CHL1   C14 1718   3.997   1.989   9.557 -0.2195 -0.0582 -0.7584
   24CHL1   H14 1719   4.074   2.060   9.596  0.3934 -0.7211 -0.7378
   24CHL1   C15 1720   3.899   2.076   9.483 -0.2327  0.2390  0.6243
   24CHL1  H15A 1721   3.805   2.021   9.464 -1.6027  3.0513 -1.5355
   24CHL1  H15B 1722   3.865   2.170   9.532  0.2891 -0.6092  2.7055
   24CHL1   C16 1723   3.962   2.098   9.345 -0.4569 -0.4644  0.3653
   24CHL1  H16A 1724   3.895   2.053   9.268 -0.0471 -1.7808  0.7494
   24CHL1  H16B 1725   3.978   2.207   9.331 -0.9181 -0.4901 -0.4114
   24CHL1   C17 1726   4.093   2.017   9.337 -0.7807  0.3575  0.6371
   24CHL1   H17 1727   4.178   2.081   9.370 -1.1576  1.2801 -0.1509
   24CHL1   C13 1728   4.074   1.911   9.449  0.1846 -0.0493 -0.6105
   24CHL1   C18 1729   3.974   1.811   9.382 -0.1901  0.3607 -0.1129
   24CHL1  H18A 1730   3.941   1.728   9.447  0.8045  0.7487  0.9088
   24CHL1  H18B 1731   3.881   1.863   9.350 -0.9405  0.8619  2.6433
   24CHL1  H18C 1732   4.020   1.756   9.297 -1.9434  0.7176 -1.3576
   24CHL1   C12 1733   4.192   1.850   9.518  0.1941  0.1255 -0.2463
   24CHL1  H12A 1734   4.256   1.785   9.455 -1.1568 -0.2876 -1.2422
   24CHL1  H12B 1735   4.258   1.931   9.555 -1.5550  2.0458 -1.1820
   24CHL1   C11 1736   4.149   1.773   9.641 -0.4719  0.3669 -0.2536
   24CHL1  H11A 1737   4.092   1.682   9.615  0.3337 -0.9566  2.2862
   24CHL1  H11B 1738   4.237   1.737   9.698 -0.1636 -0.0339 -0.9776
   24CHL1    C9 1739   4.065   1.850   9.752  0.9075 -0.4452  0.4935
   24CHL1    H9 1740   4.119   1.930   9.807 -2.0953  1.7179  0.5362
   24CHL1   C10 1741   4.018   1.769   9.875 -0.0570  0.0327  0.0401
   24CHL1   C19 1742   3.961   1.633   9.819 -0.0801 -0.2545 -0.6829
   24CHL1  H19A 1743   3.878   1.656   9.749  0.4482 -0.4809 -1.3894
   24CHL1  H19B 1744   4.034   1.566   9.769 -1.4223 -2.7157  0.4652
   24CHL1  H19C 1745   3.926   1.566   9.901  0.9812  0.4810  0.4017
   24CHL1    C1 1746   4.129   1.744   9.973 -0.5347  0.5007 -0.5163
   24CHL1   H1A 1747   4.207   1.676   9.932 -1.3010 -0.3392 -0.5926
   24CHL1   H1B 1748   4.181   1.840   9.995  0.1182  0.1751 -0.6366
   24CHL1    C2 1749   4.092   1.672  10.104 -0.0586  0.0230  0.4075
   24CHL1   H2A 1750   4.190   1.655  10.154 -0.2857  1.7012  1.5000
   24CHL1   H2B 1751   4.045   1.575  10.077 -1.0316  0.0360  1.9224
   24CHL1   C20 1752   4.137   1.967   9.197 -0.4182  0.0984 -0.7167
   24CHL1   H20 1753   4.075   1.882   9.162  2.6014 -2.1444 -1.1018
   24CHL1   C21 1754   4.286   1.928   9.202  0.3974 -0.2499  0.0136
   24CHL1  H21A 1755   4.346   2.021   9.214  1.8862 -1.0383 -0.9594
   24CHL1  H21B 1756   4.308   1.879   9.105  1.7493 -0.0509  0.2005
   24CHL1  H21C 1757   4.297   1.849   9.281 -0.3446 -0.6380 -0.2623
   24CHL1   C22 1758   4.114   2.073   9.089 -0.3864  0.5673  0.7071
   24CHL1  H22A 1759   4.006   2.100   9.092 -1.2914 -2.6665  0.7488
   24CHL1  H22B 1760   4.180   2.160   9.111  1.4143 -0.5888  0.1088
   24CHL1   C23 1761   4.140   2.021   8.942 -0.1606  0.7389  0.6426
   24CHL1  H23A 1762   4.248   1.997   8.939 -0.2465  0.4551 -1.1240
   24CHL1  H23B 1763   4.078   1.929   8.929 -2.8175  2.4242  0.6813
   24CHL1   C24 1764   4.086   2.107   8.826  0.4674  0.2847  0.3141
   24CHL1  H24A 1765   3.985   2.147   8.848  0.0024  0.1205 -1.3992
   24CHL1  H24B 1766   4.158   2.191   8.816  1.6891 -0.7302  0.3324
   24CHL1   C25 1767   4.070   2.046   8.684 -0.2500 -0.0539 -0.4461
   24CHL1   H25 1768   3.972   1.997   8.693 -1.8758  3.0106 -0.1257
   24CHL1   C26 1769   4.042   2.159   8.578 -0.3019 -1.1957 -0.6585
   24CHL1  H26A 1770   3.950   2.211   8.612  1.5317  0.0990  2.8436
   24CHL1  H26B 1771   4.130   2.226   8.565 -1.7308  1.1247  0.8852
   24CHL1  H26C 1772   4.033   2.116   8.476 -1.0145 -0.0847 -1.0920
   24CHL1   C27 1773   4.176   1.940   8.640 -0.4898 -0.0713  0.2034
   24CHL1  H27A 1774   4.145   1.905   8.539 -1.6092  0.3578  0.3790
   24CHL1  H27B 1775   4.277   1.986   8.641  0.1493 -1.1921 -2.5953
   24CHL1  H27C 1776   4.168   1.861   8.717  1.4245  0.9582  1.5339
   25CHL1    C3 1777   4.514   2.512  10.394 -0.1025 -0.3399 -0.3606
   25CHL1    H3 1778   4.623   2.526  10.409 -0.7339  2.7510  2.5503
   25CHL1    O3 1779   4.451   2.461  10.510 -0.8674 -0.1949  0.1861
   25CHL1   H3' 1780   4.367   2.429  10.477 -1.2720  0.0280  0.9705
   25CHL1    C4 1781   4.464   2.653  10.373  0.2882  0.5728  0.3957
   25CHL1   H4A 1782   4.354   2.667  10.380  0.4721  1.3318  2.2288
   25CHL1   H4B 1783   4.504   2.715  10.456  3.3674  0.1075 -0.6083
   25CHL1    C5 1784   4.505   2.697  10.237  0.3448 -0.0399  0.5050
   25CHL1    C6 1785   4.582   2.810  10.232  0.4301 -0.2379 -0.4734
   25CHL1    H6 1786   4.596   2.856  10.330 -2.5099 -1.4824  0.6418
   25CHL1    C7 1787   4.645   2.869  10.106  0.2107 -0.4554  0.0876
   25CHL1   H7A 1788   4.653   2.980  10.115  1.8957 -0.5939  0.7407
   25CHL1   H7B 1789   4.748   2.827  10.103 -0.2155 -1.9252  2.6950
   25CHL1    C8 1790   4.551   2.835   9.990 -0.2309 -0.3659 -0.0482
   25CHL1    H8 1791   4.457   2.894   9.994 -0.6227 -0.9894 -0.0668
   25CHL1   C14 1792   4.625   2.874   9.862  0.2206  0.4420  0.2695
   25CHL1   H14 1793   4.722   2.820   9.861 -0.1107 -0.1881  1.1176
   25CHL1   C15 1794   4.673   3.017   9.845 -1.0861 -1.0074  0.1169
   25CHL1  H15A 1795   4.606   3.094   9.890  0.2968 -0.5736  1.5526
   25CHL1  H15B 1796   4.767   3.036   9.901 -1.4526  2.4588 -0.2712
   25CHL1   C16 1797   4.686   3.038   9.691 -0.2294  0.4921 -0.0055
   25CHL1  H16A 1798   4.613   3.116   9.659 -2.1255 -0.6952  1.2250
   25CHL1  H16B 1799   4.790   3.069   9.667 -0.1936  1.0185  0.7954
   25CHL1   C17 1800   4.645   2.913   9.622  0.1921 -0.0536  0.4580
   25CHL1   H17 1801   4.739   2.855   9.626  0.9524  1.0712 -0.4914
   25CHL1   C13 1802   4.552   2.845   9.728  0.5650  0.1419 -0.1440
   25CHL1   C18 1803   4.412   2.916   9.728  0.3415  0.4976  0.1510
   25CHL1  H18A 1804   4.365   2.902   9.628 -1.7099 -0.4008  1.1793
   25CHL1  H18B 1805   4.341   2.868   9.798 -0.5163  0.6556 -0.5909
   25CHL1  H18C 1806   4.428   3.023   9.756  0.7417  0.1152  1.4477
   25CHL1   C12 1807   4.524   2.691   9.722  0.5067 -0.4303 -0.4605
   25CHL1  H12A 1808   4.470   2.664   9.629  0.4384  1.4564 -1.0199
   25CHL1  H12B 1809   4.617   2.632   9.707 -0.9256 -2.6168 -1.2153
   25CHL1   C11 1810   4.465   2.635   9.856 -0.3614  0.1339 -0.0490
   25CHL1  H11A 1811   4.359   2.670   9.857 -0.6965 -0.8711  1.1169
   25CHL1  H11B 1812   4.449   2.525   9.856  1.9495 -0.2770  1.6252
   25CHL1    C9 1813   4.533   2.678   9.983  0.0919 -1.2816 -0.9970
   25CHL1    H9 1814   4.632   2.628   9.981 -0.5213 -2.5137 -3.5892
   25CHL1   C10 1815   4.461   2.620  10.109  0.2502  0.3815 -0.3722
   25CHL1   C19 1816   4.315   2.620  10.097  0.3381 -0.9544  0.0688
   25CHL1  H19A 1817   4.273   2.552  10.019 -1.7617  0.3586 -0.0400
   25CHL1  H19B 1818   4.273   2.599  10.198 -0.3594 -0.3787 -0.0950
   25CHL1  H19C 1819   4.276   2.722  10.078  0.3951 -0.9439  0.0076
   25CHL1    C1 1820   4.514   2.472  10.140  0.1805  0.0035 -0.6710
   25CHL1   H1A 1821   4.472   2.412  10.056 -1.7101  0.5714 -0.1763
   25CHL1   H1B 1822   4.624   2.484  10.130  0.5055 -2.3895 -0.5767
   25CHL1    C2 1823   4.474   2.423  10.280 -0.0042 -0.6438 -0.7943
   25CHL1   H2A 1824   4.517   2.321  10.291  0.7403 -0.4930 -2.0972
   25CHL1   H2B 1825   4.364   2.404  10.284  0.2323 -2.4794 -1.7944
   25CHL1   C20 1826   4.601   2.932   9.476  0.2895 -1.0347 -0.3807
   25CHL1   H20 1827   4.491   2.944   9.472  0.2269  0.1720  2.4836
   25CHL1   C21 1828   4.625   2.797   9.410 -1.0086 -0.0352  0.0045
   25CHL1  H21A 1829   4.592   2.706   9.464  0.0392  0.1810  1.0753
   25CHL1  H21B 1830   4.734   2.782   9.393 -0.6632  1.8122  0.3144
   25CHL1  H21C 1831   4.574   2.788   9.312 -1.0336 -1.2756  0.1156
   25CHL1   C22 1832   4.672   3.053   9.402  0.0427 -0.3800 -0.7493
   25CHL1  H22A 1833   4.627   3.145   9.445 -1.1724 -0.6714 -1.3671
   25CHL1  H22B 1834   4.782   3.050   9.421 -0.0015  1.1903  0.0018
   25CHL1   C23 1835   4.647   3.056   9.253 -0.3222 -0.2555 -0.2857
   25CHL1  H23A 1836   4.691   2.969   9.199 -1.3468  0.1204 -1.7600
   25CHL1  H23B 1837   4.537   3.043   9.240 -0.8199  2.0559  1.0950
   25CHL1   C24 1838   4.698   3.182   9.184 -0.2310  0.2526 -0.4579
   25CHL1  H24A 1839   4.681   3.280   9.235 -0.5499 -0.1933  0.3089
   25CHL1  H24B 1840   4.808   3.188   9.177 -0.2473  1.7817  0.1694
   25CHL1   C25 1841   4.640   3.194   9.039 -0.2719  0.3482 -0.1167
   25CHL1   H25 1842   4.643   3.095   8.988 -1.6772  0.4538 -0.4260
   25CHL1   C26 1843   4.495   3.241   9.043 -0.9869  0.5693 -0.1675
   25CHL1  H26A 1844   4.501   3.333   9.105  0.0151 -1.2417  2.6282
   25CHL1  H26B 1845   4.466   3.257   8.937 -1.0201 -0.4304 -0.3201
   25CHL1  H26C 1846   4.435   3.172   9.106  0.0397  0.5048  0.7832
   25CHL1   C27 1847   4.724   3.301   8.969  0.2285  0.2111 -0.3949
   25CHL1  H27A 1848   4.726   3.398   9.024 -1.7669 -0.3932  0.8695
   25CHL1  H27B 1849   4.824   3.261   8.939 -1.5228 -3.2836 -2.2176
   25CHL1  H27C 1850   4.669   3.328   8.877  0.1288 -1.7622 -0.9740
   26CHL1    C3 1851   6.310   5.398  10.117  0.5565 -0.2723 -0.0092
   26CHL1    H3 1852   6.297   5.507  10.100 -2.2653 -0.2661  1.6059
   26CHL1    O3 1853   6.313   5.381  10.257 -0.1389  0.1331  0.4914
   26CHL1   H3' 1854   6.349   5.464  10.291 -2.2005  2.2061 -1.9574
   26CHL1    C4 1855   6.193   5.319  10.055 -0.4894 -0.6208  0.2368
   26CHL1   H4A 1856   6.204   5.215  10.093  1.7475 -1.1780 -1.6544
   26CHL1   H4B 1857   6.096   5.362  10.088 -1.5297 -1.7258 -1.2270
   26CHL1    C5 1858   6.195   5.312   9.907  0.7744 -0.0304  0.1224
   26CHL1    C6 1859   6.088   5.347   9.836  0.0598 -0.2959 -0.8085
   26CHL1    H6 1860   5.994   5.372   9.888 -1.6323 -1.1731 -3.2278
   26CHL1    C7 1861   6.073   5.343   9.689  0.2297 -0.6562 -0.0206
   26CHL1   H7A 1862   5.981   5.291   9.653  1.6388 -1.0354 -3.4082
   26CHL1   H7B 1863   6.071   5.449   9.655 -0.6649 -1.0595 -1.3194
   26CHL1    C8 1864   6.193   5.277   9.618  0.4887  0.0536  0.0777
   26CHL1    H8 1865   6.182   5.167   9.625  2.3396 -0.0683  1.9245
   26CHL1   C14 1866   6.195   5.323   9.470  0.2372  0.6679  0.0662
   26CHL1   H14 1867   6.212   5.432   9.479 -1.4920  1.0429 -0.8010
   26CHL1   C15 1868   6.069   5.295   9.382  0.0917  0.2470 -0.0209
   26CHL1  H15A 1869   6.013   5.203   9.407  4.1082 -2.5883 -0.4638
   26CHL1  H15B 1870   5.989   5.372   9.389 -1.4497 -1.3500  0.4981
   26CHL1   C16 1871   6.124   5.279   9.242  0.0931 -0.5276 -0.2142
   26CHL1  H16A 1872   6.104   5.178   9.201 -1.7188  0.1534 -1.1239
   26CHL1  H16B 1873   6.089   5.349   9.164  0.1575 -0.3617 -0.0948
   26CHL1   C17 1874   6.279   5.303   9.251  0.5053  0.1876 -0.1742
   26CHL1   H17 1875   6.293   5.413   9.241  0.2763  0.1035 -1.6586
   26CHL1   C13 1876   6.315   5.262   9.398 -0.0598  0.2888  0.5597
   26CHL1   C18 1877   6.315   5.107   9.412 -0.8518  0.6501  0.2729
   26CHL1  H18A 1878   6.368   5.064   9.324 -1.4699 -1.6430  0.9672
   26CHL1  H18B 1879   6.369   5.055   9.493 -1.3608  0.0451  0.2327
   26CHL1  H18C 1880   6.214   5.061   9.414 -0.9934  0.9841  1.3647
   26CHL1   C12 1881   6.442   5.332   9.460  0.9516  0.2163  0.2571
   26CHL1  H12A 1882   6.531   5.290   9.409 -1.5078 -2.6087 -2.1135
   26CHL1  H12B 1883   6.434   5.441   9.440 -3.3847 -0.2249 -1.5489
   26CHL1   C11 1884   6.457   5.293   9.605 -0.4017 -0.2820  0.9160
   26CHL1  H11A 1885   6.498   5.190   9.613 -0.5682 -0.6932 -2.2250
   26CHL1  H11B 1886   6.540   5.352   9.652  0.4052 -0.5067 -0.1877
   26CHL1    C9 1887   6.328   5.314   9.689  0.3653 -0.1214  0.5599
   26CHL1    H9 1888   6.322   5.425   9.689 -0.3247 -0.1550  0.3841
   26CHL1   C10 1889   6.322   5.282   9.838 -0.2017 -0.5168  0.5702
   26CHL1   C19 1890   6.341   5.128   9.846 -0.4930 -0.2403  0.2080
   26CHL1  H19A 1891   6.337   5.077   9.945 -2.6333 -0.1329  0.2292
   26CHL1  H19B 1892   6.271   5.070   9.782  1.0626 -0.9946 -0.8525
   26CHL1  H19C 1893   6.438   5.102   9.799  0.9884  2.9171  1.2666
   26CHL1    C1 1894   6.441   5.354   9.908  0.2132  0.9138  0.0004
   26CHL1   H1A 1895   6.530   5.292   9.880 -0.2032  0.9954 -1.5926
   26CHL1   H1B 1896   6.452   5.458   9.871  1.3773  0.6965 -0.3374
   26CHL1    C2 1897   6.438   5.349  10.063  0.3001  0.0932  0.5287
   26CHL1   H2A 1898   6.521   5.409  10.105  0.4366 -0.1273  0.5782
   26CHL1   H2B 1899   6.445   5.244  10.100 -0.3019  0.6603  2.3843
   26CHL1   C20 1900   6.348   5.232   9.132  0.2356 -0.5353  0.1049
   26CHL1   H20 1901   6.344   5.121   9.142  0.2754 -0.5369  0.1028
   26CHL1   C21 1902   6.509   5.260   9.135 -0.5613  0.3082 -0.3620
   26CHL1  H21A 1903   6.543   5.362   9.162  1.7200  0.2118 -2.5030
   26CHL1  H21B 1904   6.551   5.239   9.034  1.9546  0.1458  0.6341
   26CHL1  H21C 1905   6.552   5.187   9.208  0.4499  1.4327  0.2096
   26CHL1   C22 1906   6.290   5.257   8.993 -0.2948 -0.3222  0.0127
   26CHL1  H22A 1907   6.357   5.198   8.926 -1.5854 -3.7579  1.5312
   26CHL1  H22B 1908   6.188   5.219   8.974  0.9945 -3.3960 -1.3754
   26CHL1   C23 1909   6.281   5.410   8.964  0.1267 -0.2664 -0.1950
   26CHL1  H23A 1910   6.200   5.457   9.023  0.6317 -1.1031  1.2070
   26CHL1  H23B 1911   6.376   5.467   8.975  0.8654 -0.8695 -2.6324
   26CHL1   C24 1912   6.267   5.441   8.807  0.4309 -0.2259 -0.8956
   26CHL1  H24A 1913   6.355   5.388   8.765  1.6961  0.8628  0.2680
   26CHL1  H24B 1914   6.175   5.404   8.758  0.2547  1.7720 -2.2137
   26CHL1   C25 1915   6.285   5.590   8.779  0.1421  0.2878  0.5916
   26CHL1   H25 1916   6.377   5.619   8.834  0.1023  2.3570 -0.3234
   26CHL1   C26 1917   6.305   5.615   8.629  0.1856 -0.1888 -0.0620
   26CHL1  H26A 1918   6.316   5.725   8.621  0.2325 -0.0595  1.3828
   26CHL1  H26B 1919   6.395   5.565   8.587  0.4433 -0.0195  0.2725
   26CHL1  H26C 1920   6.214   5.590   8.571 -1.0150 -1.2271  2.1459
   26CHL1   C27 1921   6.169   5.677   8.828  0.2314  0.0153  0.4907
   26CHL1  H27A 1922   6.089   5.659   8.753  1.0874 -0.0076 -0.4234
   26CHL1  H27B 1923   6.129   5.659   8.931 -0.3307 -1.6547  0.0104
   26CHL1  H27C 1924   6.196   5.784   8.811 -0.7706  0.1227 -0.5140
   27CHL1    C3 1925   5.558   2.187  10.468 -0.1097  0.2801 -0.0071
   27CHL1    H3 1926   5.470   2.255  10.459 -2.5178 -2.3436  1.7105
   27CHL1    O3 1927   5.558   2.134  10.604  0.0639  0.3660 -0.3078
   27CHL1   H3' 1928   5.633   2.074  10.611  1.3443  1.9869  0.6409
   27CHL1    C4 1929   5.527   2.066  10.376  0.2808 -0.3664 -0.6267
   27CHL1   H4A 1930   5.595   1.979  10.391 -0.0977 -0.3534  1.4358
   27CHL1   H4B 1931   5.427   2.021  10.395 -1.0580  2.1633 -1.2228
   27CHL1    C5 1932   5.539   2.110  10.235 -0.3277  0.0344  0.1588
   27CHL1    C6 1933   5.438   2.079  10.151  0.1529  0.3088 -0.4354
   27CHL1    H6 1934   5.358   2.016  10.192  1.1487 -0.6074  0.1442
   27CHL1    C7 1935   5.450   2.105  10.006 -0.2582 -0.2679 -0.2232
   27CHL1   H7A 1936   5.417   2.012   9.953 -0.1108 -0.7960  0.5891
   27CHL1   H7B 1937   5.376   2.180   9.973 -1.2703 -2.0399 -2.2845
   27CHL1    C8 1938   5.589   2.157   9.954  0.4516 -0.0142 -0.0393
   27CHL1    H8 1939   5.666   2.077   9.953 -0.1748 -0.6286 -1.2458
   27CHL1   C14 1940   5.587   2.216   9.817 -0.8942  0.2389  0.4598
   27CHL1   H14 1941   5.533   2.312   9.823 -1.3784  0.2266 -2.2565
   27CHL1   C15 1942   5.515   2.130   9.702  0.6827  0.0262  1.0491
   27CHL1  H15A 1943   5.548   2.024   9.709 -0.7536 -0.3755  2.0843
   27CHL1  H15B 1944   5.404   2.131   9.708  0.6696  0.0566  0.8061
   27CHL1   C16 1945   5.568   2.209   9.578 -0.1589  0.5581 -0.1268
   27CHL1  H16A 1946   5.587   2.133   9.499  1.7935 -0.9661  1.6828
   27CHL1  H16B 1947   5.495   2.286   9.545  0.7945  1.2882 -0.5963
   27CHL1   C17 1948   5.695   2.296   9.621 -0.0618 -0.1439  0.0040
   27CHL1   H17 1949   5.670   2.404   9.623  0.3501  0.1012 -3.3889
   27CHL1   C13 1950   5.728   2.250   9.768  0.3949 -0.1924 -0.1946
   27CHL1   C18 1951   5.821   2.136   9.754 -0.4081  1.0407  0.0473
   27CHL1  H18A 1952   5.832   2.076   9.847  0.6021 -0.6695 -1.1151
   27CHL1  H18B 1953   5.802   2.062   9.674  0.0214 -1.3452  2.0231
   27CHL1  H18C 1954   5.921   2.182   9.740 -0.9930  1.6064 -2.8886
   27CHL1   C12 1955   5.783   2.355   9.864 -0.2303  0.7467  0.2461
   27CHL1  H12A 1956   5.882   2.392   9.829  0.5701 -1.2008  0.3088
   27CHL1  H12B 1957   5.717   2.444   9.863 -0.4792  0.5899  1.2786
   27CHL1   C11 1958   5.789   2.307  10.010  0.2369  0.0803 -0.0798
   27CHL1  H11A 1959   5.877   2.239  10.013  1.7296  1.6733 -2.9868
   27CHL1  H11B 1960   5.818   2.389  10.079  0.2475 -0.3151  0.3924
   27CHL1    C9 1961   5.654   2.247  10.057 -0.2862 -0.0163  0.8364
   27CHL1    H9 1962   5.581   2.330  10.055  2.5569  2.6469 -0.5744
   27CHL1   C10 1963   5.670   2.178  10.194 -0.7276  0.0524 -0.4060
   27CHL1   C19 1964   5.777   2.067  10.202 -0.1036 -0.4542  0.2136
   27CHL1  H19A 1965   5.787   2.019  10.302 -1.6606  1.2115  1.2264
   27CHL1  H19B 1966   5.756   1.990  10.124  0.2004 -0.4249  0.1010
   27CHL1  H19C 1967   5.877   2.114  10.188 -1.1360  3.0221  3.0332
   27CHL1    C1 1968   5.693   2.292  10.299  0.1725 -0.3081  0.5678
   27CHL1   H1A 1969   5.778   2.362  10.281 -0.6067  0.2305 -1.2301
   27CHL1   H1B 1970   5.613   2.370  10.297  1.4792  1.0554 -0.7762
   27CHL1    C2 1971   5.698   2.244  10.445  0.0024  0.6391 -0.1335
   27CHL1   H2A 1972   5.703   2.337  10.506 -0.0603  0.0907  0.7198
   27CHL1   H2B 1973   5.786   2.180  10.466 -1.7176 -1.2628  1.7751
   27CHL1   C20 1974   5.818   2.289   9.520  0.0277 -0.1388 -0.5638
   27CHL1   H20 1975   5.858   2.186   9.513 -3.0868 -1.3411 -3.0088
   27CHL1   C21 1976   5.936   2.387   9.550  0.4050  0.5409 -0.1656
   27CHL1  H21A 1977   5.886   2.486   9.562  1.7046  1.1519  0.5206
   27CHL1  H21B 1978   6.022   2.396   9.481  0.4072  2.2938  0.0191
   27CHL1  H21C 1979   5.965   2.365   9.655  1.7559 -1.9633 -0.9820
   27CHL1   C22 1980   5.772   2.328   9.377 -0.2872  0.1348  0.1252
   27CHL1  H22A 1981   5.686   2.267   9.344 -1.1154  1.1377  0.3783
   27CHL1  H22B 1982   5.737   2.434   9.373  1.0890  0.5908 -0.5496
   27CHL1   C23 1983   5.873   2.302   9.263  0.2776 -0.7893 -0.5346
   27CHL1  H23A 1984   5.967   2.358   9.284  0.5671 -0.1947 -3.0887
   27CHL1  H23B 1985   5.892   2.193   9.259 -2.0814 -1.2462 -1.0182
   27CHL1   C24 1986   5.837   2.364   9.128  0.8221  0.1702 -0.0277
   27CHL1  H24A 1987   5.746   2.308   9.099 -0.5519  2.3604 -0.1568
   27CHL1  H24B 1988   5.808   2.470   9.146  0.9429  0.1956  0.0206
   27CHL1   C25 1989   5.947   2.366   9.014  0.3839 -0.3424  0.2437
   27CHL1   H25 1990   6.040   2.404   9.061  0.6377  1.8862 -1.8479
   27CHL1   C26 1991   5.970   2.220   8.956  0.6783  0.3307  0.1576
   27CHL1  H26A 1992   5.872   2.189   8.914  0.7879 -0.2584  0.3340
   27CHL1  H26B 1993   6.035   2.231   8.867  1.3851 -0.2581  0.5922
   27CHL1  H26C 1994   6.024   2.160   9.032  0.9291  2.6181  1.9279
   27CHL1   C27 1995   5.901   2.458   8.908  0.8345 -0.8081 -0.0128
   27CHL1  H27A 1996   5.963   2.442   8.817 -0.3062  1.0695 -1.1998
   27CHL1  H27B 1997   5.796   2.457   8.870  1.3140 -1.6683 -1.3976
   27CHL1  H27C 1998   5.914   2.563   8.942  3.1769 -0.6760 -1.0960
   28CHL1    C3 1999   5.074   6.778  10.128 -0.5911  1.1271  0.4463
   28CHL1    H3 2000   4.967   6.756  10.105 -0.5833 -0.2284  1.6136
   28CHL1    O3 2001   5.082   6.831  10.263  0.4460  0.1795  0.5193
   28CHL1   H3' 2002   5.155   6.892  10.271 -2.4244  3.8988  1.8078
   28CHL1    C4 2003   5.179   6.665  10.095  0.1290  0.0651 -0.6983
   28CHL1   H4A 2004   5.275   6.702  10.137 -1.0140  2.6481 -0.1969
   28CHL1   H4B 2005   5.141   6.585  10.163 -0.2221 -0.4023 -1.4295
   28CHL1    C5 2006   5.188   6.622   9.955 -0.3001 -0.2449 -0.8907
   28CHL1    C6 2007   5.175   6.492   9.919  0.5043  0.5875  0.0570
   28CHL1    H6 2008   5.144   6.411   9.987  0.0892 -0.6538 -1.5507
   28CHL1    C7 2009   5.184   6.452   9.775 -0.6090  0.3391 -0.3365
   28CHL1   H7A 2010   5.246   6.362   9.756 -1.5470 -0.2505 -0.7173
   28CHL1   H7B 2011   5.076   6.452   9.746 -1.4980 -2.2385  2.3484
   28CHL1    C8 2012   5.258   6.564   9.685  0.2460  0.3906 -0.9715
   28CHL1    H8 2013   5.367   6.556   9.702 -0.1336 -1.4834  1.0680
   28CHL1   C14 2014   5.228   6.529   9.538 -0.8871 -0.2410 -0.0050
   28CHL1   H14 2015   5.118   6.531   9.522 -0.7396 -1.4186 -1.3819
   28CHL1   C15 2016   5.266   6.385   9.506 -0.1014  0.6879  0.7248
   28CHL1  H15A 2017   5.375   6.366   9.521 -0.1925 -3.3012 -2.0230
   28CHL1  H15B 2018   5.208   6.304   9.554 -0.5965 -1.9683 -3.7730
   28CHL1   C16 2019   5.250   6.389   9.355  0.3384  0.1250  0.8349
   28CHL1  H16A 2020   5.346   6.362   9.307  0.2294  1.6225 -0.3056
   28CHL1  H16B 2021   5.176   6.325   9.301  1.6840 -0.6659 -0.1281
   28CHL1   C17 2022   5.238   6.540   9.308 -0.8863 -0.7174  0.4703
   28CHL1   H17 2023   5.129   6.562   9.307 -0.5709  1.0354 -0.9367
   28CHL1   C13 2024   5.289   6.619   9.429  0.4827  0.1050  0.1757
   28CHL1   C18 2025   5.436   6.637   9.428 -0.3025 -0.4762  0.3460
   28CHL1  H18A 2026   5.465   6.719   9.359 -2.0759 -0.2749 -0.2158
   28CHL1  H18B 2027   5.479   6.670   9.525 -1.9257 -0.7669  1.2062
   28CHL1  H18C 2028   5.483   6.548   9.381 -1.2830 -1.2957  0.8575
   28CHL1   C12 2029   5.222   6.759   9.460  0.2692 -0.4504 -0.1150
   28CHL1  H12A 2030   5.261   6.847   9.404 -3.5314  2.6040  1.5450
   28CHL1  H12B 2031   5.111   6.754   9.457  0.2194  0.0252  0.5503
   28CHL1   C11 2032   5.252   6.801   9.610  0.0594 -0.0879  0.1347
   28CHL1  H11A 2033   5.356   6.838   9.616 -0.6638  2.4388 -1.3208
   28CHL1  H11B 2034   5.199   6.898   9.614 -0.9195 -0.1522 -4.6011
   28CHL1    C9 2035   5.206   6.701   9.720 -0.0818  0.0080  0.6594
   28CHL1    H9 2036   5.096   6.694   9.704  0.2234 -1.2658 -1.1195
   28CHL1   C10 2037   5.213   6.747   9.868 -0.3261 -0.0257  0.3289
   28CHL1   C19 2038   5.356   6.794   9.889 -0.2168  0.4846  0.0055
   28CHL1  H19A 2039   5.374   6.823   9.995  1.3846  2.3046 -0.6887
   28CHL1  H19B 2040   5.418   6.704   9.867 -0.1616  0.4610  0.2554
   28CHL1  H19C 2041   5.384   6.881   9.826 -0.7371 -0.0257 -0.9513
   28CHL1    C1 2042   5.115   6.863   9.904  0.1785 -0.3773 -0.5072
   28CHL1   H1A 2043   5.148   6.947   9.838 -2.5425  0.0421 -1.4717
   28CHL1   H1B 2044   5.015   6.838   9.863 -1.1428 -1.2666  2.9631
   28CHL1    C2 2045   5.117   6.903  10.045  0.6183  0.0209  0.3979
   28CHL1   H2A 2046   5.043   6.984  10.064 -0.0663  0.1046 -2.2420
   28CHL1   H2B 2047   5.219   6.926  10.081  1.0311 -1.4169  0.1955
   28CHL1   C20 2048   5.303   6.574   9.175 -0.5313 -0.0380  0.3197
   28CHL1   H20 2049   5.413   6.558   9.171 -0.1194  2.3750  0.4529
   28CHL1   C21 2050   5.287   6.721   9.140 -0.7345  0.7542 -0.7383
   28CHL1  H21A 2051   5.343   6.777   9.218  3.3790 -0.9549 -2.1870
   28CHL1  H21B 2052   5.178   6.743   9.147 -1.3443 -1.1511 -3.0000
   28CHL1  H21C 2053   5.326   6.757   9.042 -0.4209  2.5899  0.0185
   28CHL1   C22 2054   5.232   6.498   9.057 -0.5539 -0.7080 -0.8058
   28CHL1  H22A 2055   5.220   6.391   9.084  1.8739 -1.1972 -1.4699
   28CHL1  H22B 2056   5.129   6.538   9.044 -0.1863  1.0180  1.0942
   28CHL1   C23 2057   5.324   6.495   8.929  0.4252  0.7996 -1.0672
   28CHL1  H23A 2058   5.387   6.587   8.931  1.0053  0.4456 -2.3264
   28CHL1  H23B 2059   5.388   6.409   8.958 -0.4137  0.8198  1.0338
   28CHL1   C24 2060   5.244   6.466   8.803 -0.4624 -0.0546 -0.5165
   28CHL1  H24A 2061   5.205   6.362   8.804  0.5705 -0.4611 -0.9980
   28CHL1  H24B 2062   5.155   6.532   8.798 -0.8728 -0.6161 -0.7038
   28CHL1   C25 2063   5.328   6.472   8.677 -0.0311 -1.0396 -0.6412
   28CHL1   H25 2064   5.413   6.402   8.694  2.6057  2.1279  0.3651
   28CHL1   C26 2065   5.258   6.423   8.547 -0.2724  0.1679 -0.4096
   28CHL1  H26A 2066   5.326   6.422   8.460  1.3275  0.6065  0.7740
   28CHL1  H26B 2067   5.221   6.321   8.568 -0.7895  0.3581 -0.3720
   28CHL1  H26C 2068   5.165   6.476   8.517 -0.5759  0.1554  0.4621
   28CHL1   C27 2069   5.381   6.611   8.646 -0.0909  0.4635  0.2264
   28CHL1  H27A 2070   5.432   6.662   8.731  0.0874  4.4689 -2.0454
   28CHL1  H27B 2071   5.454   6.592   8.565 -1.1217 -2.8077 -0.1065
   28CHL1  H27C 2072   5.300   6.680   8.612 -1.2429 -0.3578  1.2025
   29CHL1    C3 2073   6.472   0.482   6.523  0.4848  0.6404 -0.2341
   29CHL1    H3 2074   6.452   0.374   6.505  0.5550  0.8230 -1.5052
   29CHL1    O3 2075   6.457   0.541   6.401  0.2376  0.1525  0.1090
   29CHL1   H3' 2076   6.458   0.636   6.413 -0.8160  0.1961  0.0032
   29CHL1    C4 2077   6.358   0.520   6.623  0.2624  0.0874  0.3309
   29CHL1   H4A 2078   6.366   0.631   6.628  0.5127  0.0335  1.3560
   29CHL1   H4B 2079   6.261   0.500   6.573  0.1740  2.2930 -0.4881
   29CHL1    C5 2080   6.377   0.462   6.760 -0.6066  0.5864  0.2600
   29CHL1    C6 2081   6.275   0.399   6.815 -0.1221 -0.2871  0.0935
   29CHL1    H6 2082   6.176   0.408   6.767  0.1029  0.4840 -0.2421
   29CHL1    C7 2083   6.289   0.340   6.948 -0.2039 -0.0934 -0.1647
   29CHL1   H7A 2084   6.199   0.368   7.008 -0.1499 -1.4879  0.6062
   29CHL1   H7B 2085   6.286   0.229   6.940 -0.8991 -0.2516  1.6517
   29CHL1    C8 2086   6.402   0.393   7.034  0.3292 -0.0272  0.7548
   29CHL1    H8 2087   6.395   0.500   7.063  0.0598  0.9069 -2.3900
   29CHL1   C14 2088   6.413   0.307   7.157 -0.2837 -0.0427  0.2124
   29CHL1   H14 2089   6.428   0.202   7.122  0.7040  0.2300 -0.2279
   29CHL1   C15 2090   6.294   0.301   7.256  0.4397  0.0669 -0.2049
   29CHL1  H15A 2091   6.252   0.402   7.277  0.8174  0.1987 -0.0848
   29CHL1  H15B 2092   6.206   0.246   7.216  0.4386  0.8419 -1.3140
   29CHL1   C16 2093   6.358   0.238   7.382  0.1353 -0.1397 -0.1825
   29CHL1  H16A 2094   6.337   0.304   7.469  0.5243  1.7228 -1.4412
   29CHL1  H16B 2095   6.333   0.133   7.411  0.7052 -0.4118 -0.6503
   29CHL1   C17 2096   6.510   0.244   7.362 -0.5090 -1.1194  0.2125
   29CHL1   H17 2097   6.536   0.143   7.323  0.7134 -1.1462  1.0651
   29CHL1   C13 2098   6.537   0.338   7.244 -0.6208  0.2418 -0.9032
   29CHL1   C18 2099   6.536   0.482   7.294  0.2676 -0.7160 -0.8425
   29CHL1  H18A 2100   6.457   0.509   7.367  1.8392  1.2978  0.1986
   29CHL1  H18B 2101   6.625   0.504   7.357  1.2092 -1.3798 -1.8941
   29CHL1  H18C 2102   6.544   0.555   7.211 -0.4863  1.2520  0.7346
   29CHL1   C12 2103   6.664   0.317   7.156 -0.1526  0.3002 -0.6660
   29CHL1  H12A 2104   6.753   0.339   7.219 -1.4429 -0.5837  1.6138
   29CHL1  H12B 2105   6.668   0.211   7.125  0.1553 -0.7431  2.5592
   29CHL1   C11 2106   6.658   0.401   7.024 -0.0207  0.2122  0.4355
   29CHL1  H11A 2107   6.658   0.506   7.059 -2.1575  0.3843  0.0190
   29CHL1  H11B 2108   6.746   0.385   6.958 -0.4572  0.2343 -0.1555
   29CHL1    C9 2109   6.532   0.379   6.945 -0.7667  0.9246  0.1299
   29CHL1    H9 2110   6.536   0.281   6.891  0.1606  0.6752  0.6373
   29CHL1   C10 2111   6.516   0.469   6.818 -0.4918  0.3596  0.5842
   29CHL1   C19 2112   6.545   0.616   6.863 -0.2726  0.6202  0.8270
   29CHL1  H19A 2113   6.545   0.675   6.769  1.9769  0.1174  0.4516
   29CHL1  H19B 2114   6.464   0.646   6.934 -2.7588  0.2045 -1.6640
   29CHL1  H19C 2115   6.651   0.625   6.895  1.1839 -0.4357 -3.1654
   29CHL1    C1 2116   6.620   0.421   6.713  0.3394  0.6962 -0.5015
   29CHL1   H1A 2117   6.719   0.436   6.760 -0.6128 -0.9385  2.2370
   29CHL1   H1B 2118   6.597   0.313   6.697 -1.4400  0.6247  2.0242
   29CHL1    C2 2119   6.615   0.497   6.576  0.2883 -0.4090 -0.5179
   29CHL1   H2A 2120   6.690   0.469   6.500 -0.8486 -0.6572 -1.5814
   29CHL1   H2B 2121   6.628   0.606   6.592  1.4989 -0.1754 -2.6837
   29CHL1   C20 2122   6.595   0.256   7.497 -0.5114 -0.5705 -0.5208
   29CHL1   H20 2123   6.581   0.360   7.534 -0.1062 -0.7618  0.1810
   29CHL1   C21 2124   6.755   0.237   7.475  0.2640  0.5340 -0.3352
   29CHL1  H21A 2125   6.800   0.242   7.576 -1.2510  1.4193  0.3399
   29CHL1  H21B 2126   6.793   0.323   7.415 -0.2363  0.9993 -0.0014
   29CHL1  H21C 2127   6.772   0.139   7.427 -3.0472  0.1386 -0.9509
   29CHL1   C22 2128   6.543   0.170   7.614 -1.0151  0.2715  0.4387
   29CHL1  H22A 2129   6.434   0.189   7.622 -0.9575  0.2242  1.4871
   29CHL1  H22B 2130   6.566   0.064   7.588  1.6896  0.4959  1.6045
   29CHL1   C23 2131   6.605   0.212   7.743 -0.1410 -0.4727 -0.4794
   29CHL1  H23A 2132   6.637   0.319   7.749 -1.8322  0.1139 -1.3829
   29CHL1  H23B 2133   6.522   0.215   7.817  0.2278 -1.1199 -0.0318
   29CHL1   C24 2134   6.712   0.109   7.787 -0.0077  0.6800  0.0151
   29CHL1  H24A 2135   6.675   0.006   7.772  0.5180  0.7390 -2.1266
   29CHL1  H24B 2136   6.801   0.118   7.720 -1.1189 -1.9326 -1.9848
   29CHL1   C25 2137   6.748   0.127   7.932  0.0386 -0.4122  0.3298
   29CHL1   H25 2138   6.655   0.142   7.991 -0.4033 -0.4562 -0.3446
   29CHL1   C26 2139   6.823   0.006   7.989 -0.1810  0.0233  0.3764
   29CHL1  H26A 2140   6.930   0.011   7.958  0.1177  0.3045  1.4451
   29CHL1  H26B 2141   6.825   0.015   8.099  3.3139 -1.6182  0.5796
   29CHL1  H26C 2142   6.779  -0.090   7.953 -1.6897  1.7461 -2.7412
   29CHL1   C27 2143   6.835   0.248   7.969 -0.7195 -0.2409  0.0782
   29CHL1  H27A 2144   6.774   0.336   7.937 -2.2262 -1.6093 -0.9474
   29CHL1  H27B 2145   6.857   0.254   8.078  2.3561 -1.3782 -0.3746
   29CHL1  H27C 2146   6.930   0.262   7.913 -2.3943  0.8414 -2.7169
   30CHL1    C3 2147   2.978   5.670   7.216  0.4363  0.0365 -0.3879
   30CHL1    H3 2148   2.914   5.761   7.206  0.8345  0.2029 -1.4536
   30CHL1    O3 2149   3.008   5.617   7.084 -0.0205 -0.0094 -0.2397
   30CHL1   H3' 2150   2.941   5.548   7.082 -0.4336  0.3052  1.3140
   30CHL1    C4 2151   3.103   5.702   7.300 -0.7396 -0.1220  0.1220
   30CHL1   H4A 2152   3.172   5.615   7.294 -0.7387 -0.4300  3.1414
   30CHL1   H4B 2153   3.150   5.784   7.240  0.1931 -0.8383 -0.1516
   30CHL1    C5 2154   3.089   5.745   7.448  0.9957 -0.2561 -0.0969
   30CHL1    C6 2155   3.130   5.864   7.502 -0.1289  0.3764  0.8489
   30CHL1    H6 2156   3.193   5.931   7.443 -0.4587 -0.9262 -1.1011
   30CHL1    C7 2157   3.096   5.907   7.635 -0.0006 -1.0336 -0.3888
   30CHL1   H7A 2158   3.167   5.971   7.692 -2.0045  0.3272  0.7235
   30CHL1   H7B 2159   3.011   5.978   7.631 -1.7339 -2.9877  0.0593
   30CHL1    C8 2160   3.051   5.793   7.729  0.1670  0.1911 -0.2989
   30CHL1    H8 2161   3.142   5.737   7.761 -0.0150  0.5715  0.9426
   30CHL1   C14 2162   2.994   5.851   7.855  0.2613 -0.3590  0.7491
   30CHL1   H14 2163   2.896   5.889   7.820  0.1718 -0.8326  0.4736
   30CHL1   C15 2164   3.060   5.971   7.925 -0.2843  0.0714 -0.0465
   30CHL1  H15A 2165   3.162   5.936   7.949 -0.0999  0.0657 -0.7957
   30CHL1  H15B 2166   3.062   6.060   7.857  0.3381  1.4481  1.7007
   30CHL1   C16 2167   2.977   5.990   8.059 -0.5078  0.0738 -0.1079
   30CHL1  H16A 2168   3.059   5.984   8.133  1.0808 -2.3042 -1.9094
   30CHL1  H16B 2169   2.918   6.082   8.038 -1.9862 -1.3515 -2.5851
   30CHL1   C17 2170   2.897   5.862   8.070  0.0737  0.2890  0.0144
   30CHL1   H17 2171   2.794   5.886   8.035 -0.0270 -0.4058 -0.1762
   30CHL1   C13 2172   2.946   5.755   7.967 -0.7260 -0.0677 -0.1024
   30CHL1   C18 2173   3.066   5.685   8.024  0.3312 -0.3813  0.9480
   30CHL1  H18A 2174   3.117   5.626   7.944 -0.4029  1.9665 -1.3670
   30CHL1  H18B 2175   3.146   5.748   8.070  0.6145 -1.4082  1.9081
   30CHL1  H18C 2176   3.039   5.605   8.096  1.1108 -1.8187 -0.2778
   30CHL1   C12 2177   2.837   5.664   7.899 -0.5939 -0.2184 -0.4745
   30CHL1  H12A 2178   2.794   5.587   7.966  0.7106  0.6107  1.4212
   30CHL1  H12B 2179   2.756   5.735   7.870  0.4762  1.5825  0.7296
   30CHL1   C11 2180   2.898   5.600   7.769 -0.3284 -0.4817  0.4332
   30CHL1  H11A 2181   2.983   5.538   7.805  0.1493  1.5398  3.0606
   30CHL1  H11B 2182   2.820   5.525   7.743 -0.5086 -0.7396  1.6786
   30CHL1    C9 2183   2.951   5.699   7.664 -0.2613 -0.3725 -0.2796
   30CHL1    H9 2184   2.863   5.767   7.657  0.3731  0.7717  2.0219
   30CHL1   C10 2185   2.997   5.644   7.527  0.2666 -0.1610 -1.5460
   30CHL1   C19 2186   3.084   5.522   7.563  0.2246 -0.8300  0.3548
   30CHL1  H19A 2187   3.170   5.530   7.634 -0.2260 -3.9632  1.4047
   30CHL1  H19B 2188   3.009   5.457   7.613 -0.1967  0.8346  1.9991
   30CHL1  H19C 2189   3.114   5.470   7.470 -0.4737  0.7233 -0.7702
   30CHL1    C1 2190   2.870   5.604   7.442 -0.2005  0.0233 -0.5542
   30CHL1   H1A 2191   2.812   5.535   7.505 -0.8636  0.9700 -0.0993
   30CHL1   H1B 2192   2.813   5.700   7.443  2.8844  2.0979  2.9134
   30CHL1    C2 2193   2.902   5.566   7.298  0.1939 -0.3338  0.5123
   30CHL1   H2A 2194   2.806   5.542   7.247  0.5707  0.0116 -0.3836
   30CHL1   H2B 2195   2.954   5.468   7.298 -0.1626 -0.5449 -0.8445
   30CHL1   C20 2196   2.886   5.807   8.209  0.3415  0.2119  0.5715
   30CHL1   H20 2197   2.983   5.772   8.250  0.3558 -2.9837 -1.7847
   30CHL1   C21 2198   2.776   5.692   8.214  0.2304  0.3951 -0.7135
   30CHL1  H21A 2199   2.777   5.651   8.318 -1.3957 -0.7746 -1.1306
   30CHL1  H21B 2200   2.817   5.610   8.151  1.0103  0.7330 -0.6577
   30CHL1  H21C 2201   2.686   5.736   8.167  0.4153  2.3419  0.6374
   30CHL1   C22 2202   2.825   5.921   8.304  0.5885 -0.2453  0.1879
   30CHL1  H22A 2203   2.898   6.005   8.306  0.6605 -0.2707 -0.8419
   30CHL1  H22B 2204   2.726   5.944   8.261  0.7814 -0.3927 -0.3418
   30CHL1   C23 2205   2.807   5.877   8.451  0.2602  0.0814  0.1640
   30CHL1  H23A 2206   2.728   5.800   8.467 -0.1136  0.5869  0.8294
   30CHL1  H23B 2207   2.904   5.840   8.492 -1.0640 -2.9639  0.8195
   30CHL1   C24 2208   2.759   5.994   8.544  0.4150 -1.5106  0.4061
   30CHL1  H24A 2209   2.851   6.056   8.548 -1.3075  1.3067 -0.8691
   30CHL1  H24B 2210   2.677   6.051   8.495  1.1498 -2.1294 -1.6713
   30CHL1   C25 2211   2.720   5.955   8.685 -0.7101 -0.1860  0.4545
   30CHL1   H25 2212   2.643   5.878   8.666 -0.9867  0.3204 -0.5392
   30CHL1   C26 2213   2.841   5.898   8.757 -0.4650  0.3764 -0.4764
   30CHL1  H26A 2214   2.810   5.889   8.864 -0.8917 -0.1191 -0.6380
   30CHL1  H26B 2215   2.869   5.800   8.712  0.8790  0.8665 -0.7550
   30CHL1  H26C 2216   2.925   5.970   8.745  0.7212 -0.5655  1.6684
   30CHL1   C27 2217   2.657   6.071   8.765 -0.3644  0.3664  0.5273
   30CHL1  H27A 2218   2.556   6.083   8.718 -0.1498 -0.3139 -0.1267
   30CHL1  H27B 2219   2.653   6.046   8.873  3.8148  0.0224  0.7317
   30CHL1  H27C 2220   2.722   6.159   8.747 -0.9309  0.7976  0.5385
   31CHL1    C3 2221   4.177   0.699   6.733  0.2407  0.1026 -0.0809
   31CHL1    H3 2222   4.233   0.794   6.733  0.8799 -0.2593  1.1136
   31CHL1    O3 2223   4.137   0.685   6.601 -0.0670 -0.2193 -0.1704
   31CHL1   H3' 2224   4.214   0.712   6.550 -0.6929  0.6814 -0.6786
   31CHL1    C4 2225   4.280   0.591   6.763 -0.3810  0.7362  0.4759
   31CHL1   H4A 2226   4.256   0.490   6.724  1.3257  0.8750 -1.0994
   31CHL1   H4B 2227   4.375   0.618   6.712  0.6591 -2.1217  0.7112
   31CHL1    C5 2228   4.304   0.587   6.918  0.3802 -0.5232  0.8150
   31CHL1    C6 2229   4.424   0.606   6.974  0.8196  0.2345 -0.2493
   31CHL1    H6 2230   4.514   0.618   6.911  0.2492  0.5947 -1.0074
   31CHL1    C7 2231   4.462   0.603   7.120  0.2211  0.1269  0.1505
   31CHL1   H7A 2232   4.552   0.542   7.144 -0.2891  0.4935  3.5058
   31CHL1   H7B 2233   4.496   0.704   7.153  1.5115  0.1354 -1.1056
   31CHL1    C8 2234   4.349   0.558   7.215  0.1640 -0.5296 -0.4256
   31CHL1    H8 2235   4.341   0.447   7.207 -3.4874 -0.4494  0.1734
   31CHL1   C14 2236   4.376   0.596   7.354 -0.0241 -0.3752  0.0997
   31CHL1   H14 2237   4.372   0.707   7.356 -1.5741 -0.4214  1.1367
   31CHL1   C15 2238   4.501   0.537   7.420  0.0343  0.2859  0.4156
   31CHL1  H15A 2239   4.508   0.435   7.376 -3.0879  0.0209  0.2886
   31CHL1  H15B 2240   4.583   0.602   7.383 -0.2218 -0.1793 -1.0325
   31CHL1   C16 2241   4.475   0.537   7.565  0.4794 -0.2303 -0.3837
   31CHL1  H16A 2242   4.482   0.433   7.606 -0.2595  0.4145  1.4878
   31CHL1  H16B 2243   4.551   0.598   7.618  0.6023 -1.8376  1.3986
   31CHL1   C17 2244   4.333   0.590   7.584  0.5397 -0.3816  0.0725
   31CHL1   H17 2245   4.350   0.700   7.586 -2.1149  0.0729  2.2526
   31CHL1   C13 2246   4.262   0.561   7.451  0.5429  0.0597 -0.1492
   31CHL1   C18 2247   4.217   0.405   7.441  0.0551 -1.3400  0.0484
   31CHL1  H18A 2248   4.201   0.370   7.337 -0.3844 -1.7438  0.2476
   31CHL1  H18B 2249   4.298   0.337   7.476 -1.5508 -3.6246 -0.4924
   31CHL1  H18C 2250   4.124   0.381   7.497  0.1745 -5.1530 -1.1219
   31CHL1   C12 2251   4.140   0.644   7.408  1.2796  0.3627 -0.6194
   31CHL1  H12A 2252   4.053   0.605   7.464  0.6077 -2.4288 -3.3880
   31CHL1  H12B 2253   4.145   0.754   7.425  0.0897  0.6170 -1.7481
   31CHL1   C11 2254   4.097   0.623   7.258 -0.0190  0.0529 -0.2300
   31CHL1  H11A 2255   4.051   0.523   7.266  4.4197 -2.1347  1.7779
   31CHL1  H11B 2256   4.012   0.694   7.245 -0.5833 -0.2731  1.4321
   31CHL1    C9 2257   4.219   0.627   7.160  0.2689  0.1462  1.1557
   31CHL1    H9 2258   4.259   0.731   7.155 -1.1346  0.6675  0.0579
   31CHL1   C10 2259   4.181   0.581   7.013 -0.0070 -0.7495  0.1555
   31CHL1   C19 2260   4.128   0.439   7.020  0.2131  0.3036 -0.0954
   31CHL1  H19A 2261   4.127   0.381   6.925 -4.8569 -0.1007 -0.0968
   31CHL1  H19B 2262   4.183   0.376   7.093 -1.2270 -1.0973 -0.1613
   31CHL1  H19C 2263   4.023   0.441   7.057  0.1511 -2.6857  0.1209
   31CHL1    C1 2264   4.081   0.691   6.961 -0.5204  0.7217 -0.8855
   31CHL1   H1A 2265   3.989   0.680   7.021 -0.6876 -0.0537 -1.2782
   31CHL1   H1B 2266   4.115   0.793   6.990 -0.3278  0.1595  1.0171
   31CHL1    C2 2267   4.051   0.689   6.818 -0.0178  0.2346  0.1651
   31CHL1   H2A 2268   3.992   0.780   6.794 -1.1764 -0.5680 -0.0980
   31CHL1   H2B 2269   3.992   0.596   6.802 -1.4186  0.8717  1.3089
   31CHL1   C20 2270   4.263   0.543   7.712  0.2618  0.3157 -0.8472
   31CHL1   H20 2271   4.226   0.438   7.703 -1.2897  0.8435 -0.9863
   31CHL1   C21 2272   4.138   0.621   7.746 -0.1462 -0.3093  0.5402
   31CHL1  H21A 2273   4.094   0.590   7.844 -0.0593 -1.6939  0.1468
   31CHL1  H21B 2274   4.056   0.603   7.674  1.1100  1.8820 -1.5741
   31CHL1  H21C 2275   4.150   0.732   7.738 -1.4835 -0.2886 -1.9398
   31CHL1   C22 2276   4.354   0.551   7.838 -0.0024  0.1465 -0.0206
   31CHL1  H22A 2277   4.283   0.541   7.922 -2.2345  0.5881 -1.7592
   31CHL1  H22B 2278   4.438   0.478   7.840  1.8407  2.0561 -1.8062
   31CHL1   C23 2279   4.423   0.689   7.866  0.2932  0.7017  0.0263
   31CHL1  H23A 2280   4.459   0.718   7.765  0.8226  0.4413  0.1398
   31CHL1  H23B 2281   4.344   0.763   7.891 -0.1387  0.3067 -0.1579
   31CHL1   C24 2282   4.532   0.681   7.977  0.0815  0.6423 -0.6321
   31CHL1  H24A 2283   4.487   0.684   8.079 -1.4080  1.3975 -1.2792
   31CHL1  H24B 2284   4.578   0.581   7.965  1.0574  1.1039 -0.8957
   31CHL1   C25 2285   4.645   0.789   7.961  0.0610  0.7231 -0.2055
   31CHL1   H25 2286   4.596   0.889   7.963  0.7858  1.1063 -1.3071
   31CHL1   C26 2287   4.742   0.773   8.081 -0.2467 -0.5989  0.1943
   31CHL1  H26A 2288   4.765   0.664   8.090 -1.6884 -0.8668  1.0178
   31CHL1  H26B 2289   4.835   0.831   8.067  1.6092 -3.3948  0.0357
   31CHL1  H26C 2290   4.687   0.795   8.175 -2.2268 -0.1073 -1.0045
   31CHL1   C27 2291   4.718   0.774   7.826  0.2834  0.3909 -0.2544
   31CHL1  H27A 2292   4.652   0.813   7.746  1.7957  0.6020 -1.4475
   31CHL1  H27B 2293   4.746   0.668   7.805 -0.9717  0.3377 -1.8277
   31CHL1  H27C 2294   4.806   0.842   7.822  1.1797 -0.7764 -2.2392
   32CHL1    C3 2295   5.143   5.526   6.992  0.0453 -0.5085  0.0967
   32CHL1    H3 2296   5.092   5.621   7.017  0.3834 -0.0637 -0.8548
   32CHL1    O3 2297   5.138   5.497   6.851  0.0288  0.7048  0.7337
   32CHL1   H3' 2298   5.202   5.427   6.836 -0.3519  0.6964 -1.0404
   32CHL1    C4 2299   5.290   5.524   7.026  0.2050  0.8661 -0.7018
   32CHL1   H4A 2300   5.328   5.424   6.997 -2.9041 -0.5491 -0.2911
   32CHL1   H4B 2301   5.357   5.585   6.961 -0.0755  4.1970  1.8609
   32CHL1    C5 2302   5.316   5.543   7.170  0.6275  0.3370 -1.0158
   32CHL1    C6 2303   5.389   5.649   7.216  0.0007  0.7242  0.3254
   32CHL1    H6 2304   5.420   5.721   7.139 -1.7612  1.0889 -0.0996
   32CHL1    C7 2305   5.410   5.675   7.363  0.3201  0.0826  0.1489
   32CHL1   H7A 2306   5.516   5.706   7.380  1.3382 -3.0963  0.2104
   32CHL1   H7B 2307   5.335   5.753   7.387 -0.3773 -0.6461  0.3739
   32CHL1    C8 2308   5.367   5.557   7.451 -0.1524 -0.3178 -0.1623
   32CHL1    H8 2309   5.438   5.474   7.431 -1.8460 -1.6699 -0.8083
   32CHL1   C14 2310   5.366   5.602   7.597  0.2234 -0.0401  0.9863
   32CHL1   H14 2311   5.281   5.673   7.601 -0.5664 -1.0274  2.4425
   32CHL1   C15 2312   5.486   5.674   7.644 -0.2686  0.3761 -0.7848
   32CHL1  H15A 2313   5.578   5.622   7.611 -0.6047 -0.7912  0.0630
   32CHL1  H15B 2314   5.478   5.779   7.607 -0.2767  0.5335 -0.3480
   32CHL1   C16 2315   5.482   5.665   7.801  0.2435  0.3044  0.0350
   32CHL1  H16A 2316   5.572   5.604   7.824  1.1987  1.8243  0.4411
   32CHL1  H16B 2317   5.490   5.761   7.856  0.2792  1.1112 -1.3320
   32CHL1   C17 2318   5.352   5.578   7.827 -0.5630 -0.1122 -0.2967
   32CHL1   H17 2319   5.270   5.651   7.847  0.9161  1.4478  0.2693
   32CHL1   C13 2320   5.335   5.497   7.696  0.4183 -0.2923  0.3589
   32CHL1   C18 2321   5.423   5.369   7.697 -0.4252  0.0789 -0.3617
   32CHL1  H18A 2322   5.397   5.284   7.763 -0.2197 -0.7284 -1.2934
   32CHL1  H18B 2323   5.438   5.326   7.596 -0.3981  0.1164 -0.3737
   32CHL1  H18C 2324   5.523   5.389   7.742 -0.9362 -1.4717  1.5892
   32CHL1   C12 2325   5.188   5.454   7.660 -0.1623 -0.4708 -0.1163
   32CHL1  H12A 2326   5.166   5.370   7.730  2.1494 -1.1119 -0.0822
   32CHL1  H12B 2327   5.117   5.539   7.671  0.4591 -0.0145  0.4611
   32CHL1   C11 2328   5.177   5.406   7.511  0.3002  0.0539 -0.5567
   32CHL1  H11A 2329   5.232   5.309   7.505 -1.4843 -1.0668  0.3624
   32CHL1  H11B 2330   5.071   5.378   7.492 -0.1385  0.5534  1.0221
   32CHL1    C9 2331   5.232   5.500   7.408  0.1791 -0.0335  0.6081
   32CHL1    H9 2332   5.160   5.585   7.406 -0.3239 -0.4514 -1.7794
   32CHL1   C10 2333   5.236   5.444   7.258 -0.2000  0.3291 -0.2029
   32CHL1   C19 2334   5.300   5.310   7.247  0.3415  0.0803  0.0497
   32CHL1  H19A 2335   5.398   5.308   7.301 -1.0466  1.9514  2.8867
   32CHL1  H19B 2336   5.233   5.230   7.286 -2.1716 -0.1327 -4.1490
   32CHL1  H19C 2337   5.314   5.276   7.142  0.1749 -0.6699  0.2617
   32CHL1    C1 2338   5.082   5.433   7.215  0.0369 -0.1756  0.7837
   32CHL1   H1A 2339   5.030   5.349   7.265  1.3784 -0.7836  1.1715
   32CHL1   H1B 2340   5.026   5.524   7.249 -0.4582 -0.3337  0.4125
   32CHL1    C2 2341   5.067   5.415   7.064  0.2067  0.2482 -0.0308
   32CHL1   H2A 2342   4.961   5.433   7.036  0.4479  1.9944  0.0484
   32CHL1   H2B 2343   5.095   5.311   7.038 -1.1962 -0.2765  0.4707
   32CHL1   C20 2344   5.357   5.513   7.966  0.0738  0.1334 -0.0886
   32CHL1   H20 2345   5.447   5.448   7.966 -1.0744 -1.5256 -0.3338
   32CHL1   C21 2346   5.236   5.416   7.987  0.5403  0.0516  0.0870
   32CHL1  H21A 2347   5.140   5.472   7.983 -0.1945 -1.1813  0.2240
   32CHL1  H21B 2348   5.235   5.369   8.087 -0.4854 -0.3450 -0.1028
   32CHL1  H21C 2349   5.237   5.332   7.915 -1.5592  0.4172 -0.4439
   32CHL1   C22 2350   5.373   5.612   8.080  0.0461 -0.2173  0.5588
   32CHL1  H22A 2351   5.435   5.703   8.063 -0.8449  0.3609  0.3603
   32CHL1  H22B 2352   5.274   5.651   8.111  0.5601  0.2312  1.6863
   32CHL1   C23 2353   5.443   5.547   8.205 -0.2053  0.0401  0.3188
   32CHL1  H23A 2354   5.406   5.443   8.201 -0.2288  0.0851 -1.0634
   32CHL1  H23B 2355   5.554   5.537   8.200 -0.2790 -0.8326  0.3891
   32CHL1   C24 2356   5.412   5.616   8.331  0.1678 -0.2524 -0.6121
   32CHL1  H24A 2357   5.453   5.719   8.334  1.1336 -0.6500  0.3167
   32CHL1  H24B 2358   5.305   5.642   8.344  0.7950  2.6797 -0.7708
   32CHL1   C25 2359   5.458   5.536   8.453 -0.4823 -0.3104  0.0424
   32CHL1   H25 2360   5.403   5.440   8.456 -0.3944 -0.3306  1.0509
   32CHL1   C26 2361   5.602   5.512   8.455 -0.3651 -0.8040 -0.0540
   32CHL1  H26A 2362   5.652   5.611   8.460 -0.5342 -0.6386 -1.3776
   32CHL1  H26B 2363   5.630   5.446   8.539  0.2143 -1.0033 -0.3955
   32CHL1  H26C 2364   5.636   5.472   8.357  3.1110  0.7112  0.3764
   32CHL1   C27 2365   5.419   5.614   8.580 -0.2068  0.4117  0.0267
   32CHL1  H27A 2366   5.433   5.548   8.668  1.1212  2.0735  1.1352
   32CHL1  H27B 2367   5.472   5.712   8.587  1.3030 -0.2718 -1.2724
   32CHL1  H27C 2368   5.312   5.642   8.572 -0.8640 -2.3446 -2.9089
   33CHL1    C3 2369   3.962   5.982   6.961 -0.4584  0.7600  0.3131
   33CHL1    H3 2370   4.008   6.079   6.989 -2.8900  1.2667  2.9393
   33CHL1    O3 2371   3.942   5.981   6.819  0.3829  0.1397  0.1074
   33CHL1   H3' 2372   3.899   5.896   6.805  0.7932  0.0347 -0.5980
   33CHL1    C4 2373   4.070   5.876   6.982  0.6298  0.1520  0.4383
   33CHL1   H4A 2374   4.045   5.779   6.935 -0.0435  0.9881 -0.9838
   33CHL1   H4B 2375   4.156   5.918   6.925  0.7955 -2.1315 -1.1502
   33CHL1    C5 2376   4.101   5.861   7.132  0.1049 -0.0894 -0.3127
   33CHL1    C6 2377   4.228   5.877   7.181  0.2046 -0.6981  0.2605
   33CHL1    H6 2378   4.308   5.890   7.106 -0.3641 -1.9275 -0.5836
   33CHL1    C7 2379   4.268   5.861   7.323  0.0183  0.2042  0.0114
   33CHL1   H7A 2380   4.363   5.805   7.333  1.0383  2.0515  1.4197
   33CHL1   H7B 2381   4.282   5.961   7.369 -2.6141  0.6526 -0.0128
   33CHL1    C8 2382   4.157   5.796   7.405  0.0118 -0.2524  0.3463
   33CHL1    H8 2383   4.159   5.685   7.395 -3.1635 -1.0687  5.1877
   33CHL1   C14 2384   4.182   5.825   7.549 -0.4426  0.3335 -0.9197
   33CHL1   H14 2385   4.155   5.931   7.568 -0.8057  0.2006 -0.6974
   33CHL1   C15 2386   4.320   5.798   7.622 -0.1591 -0.2858 -0.2003
   33CHL1  H15A 2387   4.368   5.708   7.579 -0.0869  0.2119 -1.2056
   33CHL1  H15B 2388   4.391   5.883   7.611  1.1751 -1.0089  2.0996
   33CHL1   C16 2389   4.298   5.780   7.773 -0.0533 -0.0547 -0.6770
   33CHL1  H16A 2390   4.333   5.680   7.807 -0.2243  0.8024  2.2320
   33CHL1  H16B 2391   4.364   5.852   7.826  0.2441 -0.8222  0.0244
   33CHL1   C17 2392   4.149   5.784   7.794 -0.1740  0.5383  0.2692
   33CHL1   H17 2393   4.118   5.886   7.824 -3.5830 -0.9133  2.1177
   33CHL1   C13 2394   4.085   5.756   7.651  0.2468  0.1682  0.1622
   33CHL1   C18 2395   4.099   5.604   7.633  0.3388 -0.1187 -0.7619
   33CHL1  H18A 2396   4.200   5.572   7.668 -0.7947 -1.4434  1.4769
   33CHL1  H18B 2397   4.016   5.566   7.696  1.6833 -0.3186  0.9602
   33CHL1  H18C 2398   4.073   5.580   7.528 -1.2606 -1.5057 -0.0827
   33CHL1   C12 2399   3.938   5.806   7.616 -0.1569  0.5381 -0.8227
   33CHL1  H12A 2400   3.855   5.771   7.682  0.1992  1.1983 -0.0134
   33CHL1  H12B 2401   3.943   5.917   7.619  0.9296  0.4880 -0.5404
   33CHL1   C11 2402   3.903   5.780   7.471  0.2108 -0.0484  0.1812
   33CHL1  H11A 2403   3.892   5.670   7.468 -0.7670  0.0612 -1.7414
   33CHL1  H11B 2404   3.807   5.821   7.431 -0.7078 -2.4893 -0.2966
   33CHL1    C9 2405   4.013   5.841   7.374  0.4768  1.2446  0.4352
   33CHL1    H9 2406   4.011   5.951   7.389  1.3454  1.5212 -1.1933
   33CHL1   C10 2407   3.979   5.825   7.219 -0.3924 -0.1107  0.5743
   33CHL1   C19 2408   3.925   5.680   7.198  0.6066  0.2154 -0.6550
   33CHL1  H19A 2409   3.825   5.675   7.246  0.2376  4.4754 -0.5283
   33CHL1  H19B 2410   3.922   5.652   7.091  4.1125 -0.4593 -0.6853
   33CHL1  H19C 2411   3.993   5.613   7.255  0.6976  1.0305  0.2377
   33CHL1    C1 2412   3.862   5.922   7.189 -0.8894  0.6259  0.1143
   33CHL1   H1A 2413   3.770   5.881   7.236 -1.2699  0.2295 -0.9602
   33CHL1   H1B 2414   3.880   6.025   7.228  1.0289  0.7285 -0.8964
   33CHL1    C2 2415   3.831   5.947   7.039 -0.3595 -0.0853 -0.4978
   33CHL1   H2A 2416   3.748   6.020   7.032 -0.1106  0.3288  0.6790
   33CHL1   H2B 2417   3.793   5.850   6.999 -1.4005  0.1326 -0.0701
   33CHL1   C20 2418   4.096   5.702   7.910  0.6348 -0.1189  0.1842
   33CHL1   H20 2419   4.113   5.599   7.874  3.0449  0.8540 -1.8029
   33CHL1   C21 2420   3.947   5.739   7.926  0.5062 -0.3911  0.0945
   33CHL1  H21A 2421   3.874   5.673   7.874  0.3444 -0.3308  0.2443
   33CHL1  H21B 2422   3.933   5.843   7.889 -0.0170 -0.6535 -0.4720
   33CHL1  H21C 2423   3.912   5.731   8.031 -1.6442  1.6147 -0.4110
   33CHL1   C22 2424   4.167   5.728   8.041  0.6227  0.1449 -0.0298
   33CHL1  H22A 2425   4.129   5.679   8.133  1.2418  1.9660  1.2623
   33CHL1  H22B 2426   4.269   5.690   8.019 -0.7380 -4.1186  0.2162
   33CHL1   C23 2427   4.180   5.875   8.080 -0.3913 -0.8429 -0.1273
   33CHL1  H23A 2428   4.234   5.935   8.004 -0.3458 -0.1323  0.4527
   33CHL1  H23B 2429   4.080   5.924   8.086  1.0423  2.1814  1.0817
   33CHL1   C24 2430   4.249   5.881   8.217  0.5886  0.1851  0.2115
   33CHL1  H24A 2431   4.189   5.828   8.295 -1.3232 -0.2371 -1.4751
   33CHL1  H24B 2432   4.352   5.842   8.204 -0.2966 -1.5508 -2.3531
   33CHL1   C25 2433   4.280   6.026   8.260 -0.8591  0.4377  0.3586
   33CHL1   H25 2434   4.277   6.091   8.170  1.1523 -0.5907 -0.5144
   33CHL1   C26 2435   4.165   6.071   8.358  0.2944  0.2017 -0.2352
   33CHL1  H26A 2436   4.148   5.984   8.425  0.9291  0.7393  0.6396
   33CHL1  H26B 2437   4.197   6.162   8.412  0.0782  0.9880 -1.3915
   33CHL1  H26C 2438   4.074   6.089   8.296  2.0342  0.2553 -2.9230
   33CHL1   C27 2439   4.424   6.046   8.318 -0.2678  0.0989  0.2655
   33CHL1  H27A 2440   4.438   5.982   8.408 -2.1266 -0.7248  0.0263
   33CHL1  H27B 2441   4.506   6.030   8.245  0.7113 -1.0826  1.5747
   33CHL1  H27C 2442   4.438   6.150   8.355  0.9414 -0.1793  0.6226
   34CHL1    C3 2443   5.883   4.207   7.097 -0.2754 -0.3180 -0.2572
   34CHL1    H3 2444   5.932   4.297   7.054 -3.0271  0.1962 -2.6759
   34CHL1    O3 2445   5.816   4.172   6.981  0.3494 -0.4325 -0.0857
   34CHL1   H3' 2446   5.768   4.091   7.000  0.5996 -0.1494  2.0348
   34CHL1    C4 2447   5.969   4.085   7.137  0.3564 -0.1335  0.6364
   34CHL1   H4A 2448   5.909   3.992   7.134  0.5048 -0.3266  2.4929
   34CHL1   H4B 2449   6.049   4.059   7.065 -0.0120 -1.1214  0.5725
   34CHL1    C5 2450   6.021   4.112   7.271 -0.0822 -0.0464 -0.1423
   34CHL1    C6 2451   6.158   4.110   7.290  0.2094 -0.1593  0.4986
   34CHL1    H6 2452   6.226   4.092   7.205 -1.4439 -0.3305 -0.8513
   34CHL1    C7 2453   6.226   4.119   7.420  0.7445  0.3720 -1.0526
   34CHL1   H7A 2454   6.300   4.037   7.436 -0.1142 -0.1873  0.1970
   34CHL1   H7B 2455   6.263   4.220   7.446  1.0398 -0.5646  2.7342
   34CHL1    C8 2456   6.122   4.101   7.540  0.1815 -0.3480 -0.2317
   34CHL1    H8 2457   6.098   3.993   7.550  0.3093 -0.2040  2.2637
   34CHL1   C14 2458   6.172   4.138   7.680 -0.3119  0.3941 -0.3753
   34CHL1   H14 2459   6.192   4.246   7.661 -0.0089  0.1319 -1.6202
   34CHL1   C15 2460   6.315   4.093   7.729  0.5801 -0.3925 -0.2088
   34CHL1  H15A 2461   6.354   3.994   7.697  1.3941 -0.2584  0.3670
   34CHL1  H15B 2462   6.384   4.170   7.688 -0.8431 -0.4910 -3.0372
   34CHL1   C16 2463   6.306   4.096   7.882  0.1864  0.0306  0.2598
   34CHL1  H16A 2464   6.320   3.989   7.909 -0.0430 -0.0074  0.2276
   34CHL1  H16B 2465   6.398   4.145   7.921  0.8592 -2.1453  1.5968
   34CHL1   C17 2466   6.165   4.156   7.924  0.0660 -0.1788 -0.2494
   34CHL1   H17 2467   6.183   4.265   7.925 -2.1164  0.2271  1.2024
   34CHL1   C13 2468   6.077   4.123   7.804 -0.4337 -0.0467 -0.0465
   34CHL1   C18 2469   6.037   3.973   7.818  0.4468 -0.4377  0.0312
   34CHL1  H18A 2470   6.008   3.937   7.717 -0.7327 -1.5135  0.7365
   34CHL1  H18B 2471   6.122   3.909   7.852 -0.1411 -0.3691  1.7236
   34CHL1  H18C 2472   5.950   3.966   7.887  3.0008  2.5255  4.0538
   34CHL1   C12 2473   5.963   4.220   7.774  0.5005 -0.1641 -0.1208
   34CHL1  H12A 2474   5.887   4.218   7.854  0.3476  0.2633 -0.2512
   34CHL1  H12B 2475   6.005   4.323   7.767 -1.6835  0.8790  1.2644
   34CHL1   C11 2476   5.892   4.197   7.634  0.4755  0.2687  0.2206
   34CHL1  H11A 2477   5.829   4.108   7.651 -0.6674  1.1968  0.9811
   34CHL1  H11B 2478   5.833   4.291   7.631 -1.1200 -0.6077  1.8628
   34CHL1    C9 2479   5.991   4.185   7.513 -0.4149  0.2971 -0.1194
   34CHL1    H9 2480   6.029   4.288   7.498 -1.1589  0.3171 -2.2677
   34CHL1   C10 2481   5.919   4.141   7.379 -0.0179  0.2053  0.2101
   34CHL1   C19 2482   5.845   4.006   7.407 -0.8003  0.1899  0.1476
   34CHL1  H19A 2483   5.828   3.942   7.317 -1.2494  1.7205 -0.9089
   34CHL1  H19B 2484   5.913   3.944   7.468 -0.9321 -1.4046 -1.2458
   34CHL1  H19C 2485   5.756   4.029   7.470  1.5982  1.7273  3.2307
   34CHL1    C1 2486   5.831   4.265   7.337 -0.5445  0.6037 -1.0319
   34CHL1   H1A 2487   5.750   4.269   7.413  0.0808 -0.8035 -0.2505
   34CHL1   H1B 2488   5.878   4.365   7.343 -0.3557  0.6031 -2.2825
   34CHL1    C2 2489   5.775   4.243   7.202 -0.5953  0.2457  0.5387
   34CHL1   H2A 2490   5.709   4.329   7.176  1.0379  1.3848  0.0378
   34CHL1   H2B 2491   5.715   4.150   7.212  0.1291 -0.2212  0.5561
   34CHL1   C20 2492   6.135   4.113   8.065 -0.1892  0.6323 -0.6801
   34CHL1   H20 2493   6.124   4.003   8.069  0.1261  0.5589 -1.5879
   34CHL1   C21 2494   5.999   4.175   8.105 -0.0192  0.1933 -0.2135
   34CHL1  H21A 2495   5.974   4.282   8.085 -0.3827  0.1990  0.2377
   34CHL1  H21B 2496   6.003   4.161   8.215  3.4068 -3.5872 -0.6114
   34CHL1  H21C 2497   5.915   4.106   8.083 -0.2253 -1.3375  4.3682
   34CHL1   C22 2498   6.250   4.155   8.155  0.7516  0.5642 -0.0122
   34CHL1  H22A 2499   6.349   4.116   8.123  0.1809 -0.9983  0.0692
   34CHL1  H22B 2500   6.259   4.266   8.164  1.6976  0.4066  1.2622
   34CHL1   C23 2501   6.247   4.095   8.297  0.1138 -0.7451  0.0507
   34CHL1  H23A 2502   6.333   4.143   8.350 -1.3534  1.3056  0.7117
   34CHL1  H23B 2503   6.150   4.125   8.343  0.2012 -1.5713  0.8117
   34CHL1   C24 2504   6.254   3.948   8.305  0.5384  0.3952  0.4018
   34CHL1  H24A 2505   6.157   3.907   8.271  0.7332  1.0840 -1.0595
   34CHL1  H24B 2506   6.336   3.908   8.241 -0.1333 -0.7071  0.2113
   34CHL1   C25 2507   6.259   3.890   8.450  0.6375  0.3151  0.5558
   34CHL1   H25 2508   6.273   3.781   8.438  2.4626  0.6981 -1.4905
   34CHL1   C26 2509   6.378   3.935   8.536  0.3967  0.3016  0.0671
   34CHL1  H26A 2510   6.468   3.921   8.472  0.2087 -1.9264  0.2083
   34CHL1  H26B 2511   6.360   4.040   8.566 -0.3739 -0.1014  1.0784
   34CHL1  H26C 2512   6.397   3.875   8.628  1.7804  2.4386  1.2349
   34CHL1   C27 2513   6.127   3.935   8.527 -0.5580 -0.5463 -0.6321
   34CHL1  H27A 2514   6.129   3.867   8.615  3.7388 -0.2489 -0.2954
   34CHL1  H27B 2515   6.143   4.043   8.544  1.9544 -0.9694  0.1898
   34CHL1  H27C 2516   6.048   3.919   8.450  1.7268 -2.3064 -2.7894
   35CHL1    C3 2517   2.145   5.210   7.258 -0.9595 -0.1588  0.3300
   35CHL1    H3 2518   2.077   5.123   7.253 -1.0686  0.0015 -1.6069
   35CHL1    O3 2519   2.162   5.269   7.126  0.4317  0.6644 -0.2537
   35CHL1   H3' 2520   2.195   5.356   7.146 -1.7506  2.1040 -2.3020
   35CHL1    C4 2521   2.091   5.319   7.348  0.3522 -0.0134 -0.0334
   35CHL1   H4A 2522   2.158   5.408   7.335 -0.8769  1.3487  2.2879
   35CHL1   H4B 2523   1.994   5.344   7.300  0.2502 -1.0549 -0.3964
   35CHL1    C5 2524   2.079   5.272   7.491 -0.3677 -0.2788 -0.0308
   35CHL1    C6 2525   1.955   5.276   7.549 -0.5236 -0.4695  0.5665
   35CHL1    H6 2526   1.875   5.333   7.499  0.4851 -0.1825 -0.7828
   35CHL1    C7 2527   1.927   5.220   7.680  0.0174 -0.4536 -0.2697
   35CHL1   H7A 2528   1.863   5.292   7.734  0.0830 -0.3580 -0.3186
   35CHL1   H7B 2529   1.870   5.127   7.659  0.4221 -0.4071 -1.6803
   35CHL1    C8 2530   2.050   5.181   7.767  0.9088 -0.1487  0.2190
   35CHL1    H8 2531   2.085   5.276   7.813 -1.3175  0.6649  0.3505
   35CHL1   C14 2532   2.004   5.094   7.875 -0.4611  0.4877 -0.7257
   35CHL1   H14 2533   1.966   5.006   7.819  1.4453 -1.9275  1.5051
   35CHL1   C15 2534   1.893   5.148   7.972  0.7509 -0.4630 -0.3385
   35CHL1  H15A 2535   1.923   5.238   8.029 -3.3120  1.3070 -0.6747
   35CHL1  H15B 2536   1.796   5.159   7.919  0.6665 -0.8352 -0.2632
   35CHL1   C16 2537   1.894   5.043   8.084 -0.1981  0.9804  0.4667
   35CHL1  H16A 2538   1.909   5.100   8.179  0.3436  0.8409  0.4681
   35CHL1  H16B 2539   1.807   4.977   8.100 -0.4340  1.3502  0.7434
   35CHL1   C17 2540   2.030   4.959   8.065  0.0153 -0.0499  0.2834
   35CHL1   H17 2541   1.992   4.868   8.014  0.4905 -0.5242  0.7528
   35CHL1   C13 2542   2.120   5.037   7.971  0.8470 -0.5122  0.2776
   35CHL1   C18 2543   2.180   5.151   8.043 -0.5736  0.0687  0.1732
   35CHL1  H18A 2544   2.265   5.114   8.105 -2.6192 -0.8977  2.5755
   35CHL1  H18B 2545   2.210   5.232   7.973  0.5242 -1.1245 -0.7846
   35CHL1  H18C 2546   2.122   5.197   8.126 -0.3781 -1.0082  0.9325
   35CHL1   C12 2547   2.219   4.962   7.884  0.3891 -0.7682 -0.9111
   35CHL1  H12A 2548   2.312   4.924   7.932  0.5454 -0.4487 -0.9576
   35CHL1  H12B 2549   2.163   4.877   7.840 -0.3586  0.1672 -1.8004
   35CHL1   C11 2550   2.269   5.051   7.769  0.0180  0.0208 -0.2748
   35CHL1  H11A 2551   2.334   5.130   7.813  0.7464 -1.2501  1.0332
   35CHL1  H11B 2552   2.319   4.988   7.692  0.7639  1.0880 -0.6782
   35CHL1    C9 2553   2.153   5.111   7.680  0.3734 -0.2852  0.5468
   35CHL1    H9 2554   2.096   5.022   7.646 -1.5079  0.7156  0.8755
   35CHL1   C10 2555   2.192   5.195   7.558 -0.3361  0.0047  0.4139
   35CHL1   C19 2556   2.311   5.286   7.594 -0.7191 -0.3772  0.1811
   35CHL1  H19A 2557   2.283   5.354   7.677  1.4782  0.2773  0.4564
   35CHL1  H19B 2558   2.403   5.229   7.621 -2.1389 -2.4653  0.8740
   35CHL1  H19C 2559   2.329   5.341   7.500 -0.1115 -1.3587 -0.2941
   35CHL1    C1 2560   2.254   5.099   7.453 -0.2181 -0.8092  0.1348
   35CHL1   H1A 2561   2.354   5.068   7.491  0.2410  0.2227 -0.1944
   35CHL1   H1B 2562   2.183   5.017   7.430 -3.5791  2.2745 -1.4080
   35CHL1    C2 2563   2.279   5.162   7.318  0.3853  0.3510  0.6982
   35CHL1   H2A 2564   2.324   5.085   7.252  0.7238  1.4493 -0.3965
   35CHL1   H2B 2565   2.349   5.247   7.313  0.4560  0.2329 -1.0542
   35CHL1   C20 2566   2.087   4.912   8.198 -0.0007  0.6707 -0.5680
   35CHL1   H20 2567   2.109   4.996   8.268  0.6819 -2.5064  3.4065
   35CHL1   C21 2568   2.216   4.835   8.173 -0.0073 -0.4845 -0.2710
   35CHL1  H21A 2569   2.180   4.753   8.107 -0.7301  0.6828 -1.3938
   35CHL1  H21B 2570   2.248   4.793   8.270 -0.3265 -1.9227 -0.7694
   35CHL1  H21C 2571   2.306   4.883   8.130 -0.9263  0.3731 -1.3365
   35CHL1   C22 2572   1.976   4.839   8.289 -0.5157 -0.9777 -0.4151
   35CHL1  H22A 2573   1.887   4.904   8.307  0.8245  0.7239  0.3564
   35CHL1  H22B 2574   1.957   4.739   8.245  1.1672 -2.3947  1.8645
   35CHL1   C23 2575   2.014   4.838   8.442  0.0098  0.1624 -0.8155
   35CHL1  H23A 2576   2.105   4.779   8.464 -0.2831  0.3219  0.8951
   35CHL1  H23B 2577   2.014   4.943   8.478  1.0966  0.2803 -1.1142
   35CHL1   C24 2578   1.917   4.756   8.533  0.1087 -0.1877  0.2025
   35CHL1  H24A 2579   1.812   4.776   8.504  0.7852  1.1750 -1.5008
   35CHL1  H24B 2580   1.931   4.648   8.508 -0.8994  0.2924 -2.8577
   35CHL1   C25 2581   1.933   4.791   8.679 -0.0993 -0.0951  0.2887
   35CHL1   H25 2582   1.844   4.746   8.728  1.7521 -1.6766  2.4113
   35CHL1   C26 2583   2.063   4.725   8.739  0.0705  0.2606  0.8018
   35CHL1  H26A 2584   2.089   4.780   8.832  2.2315 -1.2209  1.1333
   35CHL1  H26B 2585   2.056   4.616   8.756  1.8155  0.1840  1.1569
   35CHL1  H26C 2586   2.147   4.744   8.669 -0.1836  0.2229  0.4860
   35CHL1   C27 2587   1.923   4.945   8.704 -0.0974 -0.0456 -0.5842
   35CHL1  H27A 2588   1.928   4.961   8.814  1.5988 -1.6409 -0.3761
   35CHL1  H27B 2589   1.841   4.996   8.649 -0.4878  1.1187  1.0129
   35CHL1  H27C 2590   2.023   4.984   8.676  1.0854 -0.8370  2.1376
   36CHL1    C3 2591   2.815   4.983   7.105 -0.3257 -0.4932  0.1334
   36CHL1    H3 2592   2.884   4.914   7.157  2.5494  2.2095  0.2508
   36CHL1    O3 2593   2.816   4.971   6.958 -0.0893 -0.9514 -0.3574
   36CHL1   H3' 2594   2.743   5.022   6.921 -1.1219 -1.0658  1.3839
   36CHL1    C4 2595   2.678   4.964   7.163  0.9150  0.0524 -0.0600
   36CHL1   H4A 2596   2.628   5.050   7.113  1.3706  1.1026  1.2355
   36CHL1   H4B 2597   2.645   4.864   7.127  0.2114 -0.4665  1.9080
   36CHL1    C5 2598   2.669   4.986   7.315  0.4473  0.2160 -0.5999
   36CHL1    C6 2599   2.620   4.892   7.400 -0.0095 -0.5544 -0.1253
   36CHL1    H6 2600   2.579   4.800   7.355  0.4972 -1.1589  0.6063
   36CHL1    C7 2601   2.616   4.904   7.553  0.0449  0.3035 -0.1559
   36CHL1   H7A 2602   2.519   4.883   7.604  2.1332 -0.1650  4.0593
   36CHL1   H7B 2603   2.671   4.819   7.598 -0.4220  0.4405  0.7008
   36CHL1    C8 2604   2.666   5.038   7.612  0.0927  0.5046  0.9364
   36CHL1    H8 2605   2.576   5.102   7.600 -2.7381 -3.2048  0.6235
   36CHL1   C14 2606   2.722   5.024   7.748 -0.6481 -0.3866 -0.1593
   36CHL1   H14 2607   2.812   4.961   7.732 -0.6750 -0.5056  0.1349
   36CHL1   C15 2608   2.630   4.952   7.845 -0.3157  0.5013  0.5006
   36CHL1  H15A 2609   2.531   5.001   7.830 -0.2591  0.1264 -1.2018
   36CHL1  H15B 2610   2.622   4.844   7.823  2.4890  0.2988  0.2065
   36CHL1   C16 2611   2.687   4.987   7.981  0.5485  0.1641  0.8886
   36CHL1  H16A 2612   2.611   5.020   8.055  0.7193  1.6467  0.4340
   36CHL1  H16B 2613   2.747   4.902   8.021  3.8164  1.8785  0.0342
   36CHL1   C17 2614   2.798   5.090   7.969  0.2394  0.7890  0.3351
   36CHL1   H17 2615   2.892   5.031   7.967 -0.1874  0.0422  1.3456
   36CHL1   C13 2616   2.778   5.147   7.825 -0.2291 -0.0128 -0.5281
   36CHL1   C18 2617   2.666   5.254   7.825  0.5784  0.3589  0.5809
   36CHL1  H18A 2618   2.618   5.251   7.725  0.4531 -2.8789  0.6212
   36CHL1  H18B 2619   2.581   5.219   7.888 -1.3934 -2.2960 -3.2029
   36CHL1  H18C 2620   2.706   5.357   7.834 -0.1650  0.9608 -2.2767
   36CHL1   C12 2621   2.896   5.194   7.735 -0.6850 -0.0160  0.0446
   36CHL1  H12A 2622   2.939   5.291   7.768 -0.4592  0.1147 -0.6256
   36CHL1  H12B 2623   2.977   5.119   7.748 -0.4152  0.5303  1.8235
   36CHL1   C11 2624   2.866   5.210   7.586  0.3311  0.5162 -0.5760
   36CHL1  H11A 2625   2.814   5.306   7.565 -2.8611 -1.1694 -1.0111
   36CHL1  H11B 2626   2.966   5.219   7.539 -0.4733  2.3235 -2.0568
   36CHL1    C9 2627   2.779   5.090   7.523 -0.4130  0.2888  0.5947
   36CHL1    H9 2628   2.850   5.004   7.525  1.6197  1.8788 -0.1736
   36CHL1   C10 2629   2.740   5.109   7.370 -0.3588 -0.2789 -0.0463
   36CHL1   C19 2630   2.647   5.232   7.347  0.1614 -0.1581  0.0483
   36CHL1  H19A 2631   2.630   5.261   7.241  0.7934  1.2011  0.3013
   36CHL1  H19B 2632   2.545   5.228   7.389 -0.0601 -0.2182 -0.4900
   36CHL1  H19C 2633   2.682   5.325   7.397  2.7159 -0.2495 -1.3757
   36CHL1    C1 2634   2.875   5.132   7.299 -0.1106  0.2576  0.2719
   36CHL1   H1A 2635   2.915   5.231   7.327 -0.4031  0.6405 -0.6388
   36CHL1   H1B 2636   2.941   5.049   7.331 -2.5790 -1.3689  1.5038
   36CHL1    C2 2637   2.866   5.126   7.142  0.4391  0.0381  0.0026
   36CHL1   H2A 2638   2.962   5.149   7.090  0.7144  0.4876  0.7026
   36CHL1   H2B 2639   2.801   5.211   7.115 -1.4373 -0.6081  2.2258
   36CHL1   C20 2640   2.815   5.180   8.089  0.1736  0.1008 -0.5356
   36CHL1   H20 2641   2.717   5.233   8.101  0.1287  0.3332 -1.7856
   36CHL1   C21 2642   2.936   5.268   8.062  0.0453 -0.4322  0.6013
   36CHL1  H21A 2643   3.020   5.205   8.028 -1.9536 -2.7279 -0.3793
   36CHL1  H21B 2644   2.977   5.321   8.151  0.7237 -3.0269  1.9189
   36CHL1  H21C 2645   2.918   5.347   7.985  1.8393 -0.5372  0.0170
   36CHL1   C22 2646   2.824   5.115   8.229  0.2151  0.4090  0.2167
   36CHL1  H22A 2647   2.810   5.196   8.303 -2.1989  2.1921 -1.9954
   36CHL1  H22B 2648   2.737   5.049   8.249 -0.2736  1.4393  1.6678
   36CHL1   C23 2649   2.959   5.053   8.252  0.4022  0.3755 -0.1646
   36CHL1  H23A 2650   2.999   4.989   8.170 -0.1573  0.9646 -0.9061
   36CHL1  H23B 2651   3.034   5.133   8.270  2.5252 -1.6196  0.3210
   36CHL1   C24 2652   2.965   4.964   8.384 -0.2643 -0.7444  0.0551
   36CHL1  H24A 2653   3.072   4.958   8.415 -0.9565 -1.4797  2.5570
   36CHL1  H24B 2654   2.912   5.022   8.463  0.6313 -0.4663  0.4710
   36CHL1   C25 2655   2.914   4.812   8.373  1.0213  0.6599 -0.0681
   36CHL1   H25 2656   2.807   4.810   8.345  0.9257  0.3990  0.3106
   36CHL1   C26 2657   2.994   4.741   8.271 -0.0019  0.7085  0.9600
   36CHL1  H26A 2658   2.962   4.782   8.173  0.0790  0.7031  0.9319
   36CHL1  H26B 2659   3.104   4.753   8.284  0.2003 -1.2328  1.3705
   36CHL1  H26C 2660   2.977   4.632   8.289  1.1563  0.9339  4.1266
   36CHL1   C27 2661   2.927   4.749   8.517 -0.3495 -0.0396 -0.0538
   36CHL1  H27A 2662   2.884   4.647   8.515 -2.3983  0.7661  0.5337
   36CHL1  H27B 2663   3.028   4.768   8.560  0.1970  0.6322 -1.5385
   36CHL1  H27C 2664   2.862   4.812   8.582  0.2529 -0.3020  0.8285
   37CHL1    C3 2665   0.059   0.016   6.885  0.2393  0.2889  0.3171
   37CHL1    H3 2666  -0.027   0.075   6.925 -0.6822  0.1354 -1.3408
   37CHL1    O3 2667   0.064   0.023   6.745 -0.8467 -0.0681  0.0481
   37CHL1   H3' 2668  -0.029   0.020   6.721 -0.5259  0.0371 -1.2916
   37CHL1    C4 2669   0.191   0.061   6.947 -0.2271 -0.5444  0.1126
   37CHL1   H4A 2670   0.264   0.001   6.889 -2.3263 -2.7783 -0.3848
   37CHL1   H4B 2671   0.212   0.170   6.948 -1.7338 -0.2175  2.3697
   37CHL1    C5 2672   0.193   0.026   7.091  0.1584  0.0577 -0.2814
   37CHL1    C6 2673   0.244   0.107   7.180 -0.3875  0.4358 -0.5136
   37CHL1    H6 2674   0.275   0.204   7.138 -0.6969  0.4115 -0.8010
   37CHL1    C7 2675   0.261   0.077   7.325  0.3258 -0.2350 -0.1219
   37CHL1   H7A 2676   0.364   0.113   7.349  0.1184  1.1307 -1.1621
   37CHL1   H7B 2677   0.177   0.125   7.379  1.1606  0.0788  0.9586
   37CHL1    C8 2678   0.252  -0.075   7.358 -0.5815 -0.2716 -0.4089
   37CHL1    H8 2679   0.339  -0.137   7.328 -0.9115 -1.4247  0.9201
   37CHL1   C14 2680   0.235  -0.094   7.511  0.6821  0.5310 -0.0308
   37CHL1   H14 2681   0.135  -0.053   7.535  0.8057  0.3289  0.8930
   37CHL1   C15 2682   0.328  -0.020   7.606 -1.0055  0.2502  1.4612
   37CHL1  H15A 2683   0.431  -0.022   7.563 -1.8562  1.7459 -0.8640
   37CHL1  H15B 2684   0.306   0.088   7.618  1.8829  1.0279  0.7328
   37CHL1   C16 2685   0.331  -0.107   7.738 -0.3067 -0.2245 -0.3677
   37CHL1  H16A 2686   0.437  -0.140   7.744 -0.0002  0.6443 -0.8594
   37CHL1  H16B 2687   0.292  -0.048   7.824 -1.3491 -0.6565 -0.5218
   37CHL1   C17 2688   0.229  -0.226   7.706 -0.0654  0.2728 -0.9072
   37CHL1   H17 2689   0.131  -0.180   7.728  0.0998  0.9787 -1.5920
   37CHL1   C13 2690   0.227  -0.238   7.554 -0.0109  0.7715 -0.5735
   37CHL1   C18 2691   0.362  -0.309   7.519  0.2047  0.3333  0.3678
   37CHL1  H18A 2692   0.377  -0.309   7.408 -1.3696  0.5073  0.1297
   37CHL1  H18B 2693   0.450  -0.278   7.579  0.8360  0.7057 -0.7227
   37CHL1  H18C 2694   0.353  -0.417   7.546  3.8460  0.2282  1.6980
   37CHL1   C12 2695   0.108  -0.297   7.475  0.3293  0.3375 -0.0288
   37CHL1  H12A 2696   0.094  -0.402   7.510  0.5381  1.3390  3.4253
   37CHL1  H12B 2697   0.019  -0.241   7.511  0.2904  1.0123 -1.1429
   37CHL1   C11 2698   0.120  -0.280   7.323 -0.3621  0.9920  0.9704
   37CHL1  H11A 2699   0.191  -0.355   7.283 -2.7512 -0.2071 -1.3111
   37CHL1  H11B 2700   0.023  -0.326   7.293  1.2165 -1.5819 -0.5896
   37CHL1    C9 2701   0.136  -0.134   7.275 -0.5045 -0.0676  0.6196
   37CHL1    H9 2702   0.046  -0.079   7.309 -1.5043 -0.8815 -0.5987
   37CHL1   C10 2703   0.143  -0.118   7.129  0.0819  0.3492  0.1565
   37CHL1   C19 2704   0.256  -0.208   7.066  0.1530  0.5303 -0.2469
   37CHL1  H19A 2705   0.285  -0.198   6.959 -0.0026  1.1822 -0.2312
   37CHL1  H19B 2706   0.347  -0.203   7.129  0.0225  1.0637 -0.0947
   37CHL1  H19C 2707   0.222  -0.313   7.080  1.9379  0.0490  0.7422
   37CHL1    C1 2708   0.007  -0.152   7.067  0.1645  0.1191 -0.0436
   37CHL1   H1A 2709  -0.015  -0.258   7.092 -0.1701 -0.6564 -3.1828
   37CHL1   H1B 2710  -0.060  -0.081   7.121 -0.5696 -0.4115 -0.2319
   37CHL1    C2 2711   0.009  -0.130   6.920 -0.1885  0.0647  0.2201
   37CHL1   H2A 2712  -0.091  -0.141   6.874  0.3187  2.6059 -1.6770
   37CHL1   H2B 2713   0.083  -0.192   6.865 -1.8467 -0.9568 -0.9401
   37CHL1   C20 2714   0.247  -0.348   7.795 -1.0848 -0.0968  0.4098
   37CHL1   H20 2715   0.344  -0.392   7.763 -1.9079 -0.5867 -1.5384
   37CHL1   C21 2716   0.138  -0.451   7.771 -0.3497 -0.3120  0.1000
   37CHL1  H21A 2717   0.043  -0.396   7.784  1.4749  2.8744  0.9250
   37CHL1  H21B 2718   0.155  -0.539   7.838  0.3680  1.0721  1.8056
   37CHL1  H21C 2719   0.146  -0.492   7.668 -0.8796 -1.2116  0.3980
   37CHL1   C22 2720   0.261  -0.309   7.938 -0.0822 -0.1614 -0.3009
   37CHL1  H22A 2721   0.345  -0.238   7.957 -2.7008  3.6802 -1.8214
   37CHL1  H22B 2722   0.180  -0.243   7.976  0.2496  0.1885 -0.1923
   37CHL1   C23 2723   0.262  -0.425   8.048 -0.0982 -0.5898 -0.6920
   37CHL1  H23A 2724   0.181  -0.500   8.032 -0.5482 -0.0724 -0.8660
   37CHL1  H23B 2725   0.361  -0.474   8.039  0.3545  0.2923 -0.6767
   37CHL1   C24 2726   0.261  -0.369   8.192 -0.2169  0.2990 -0.2037
   37CHL1  H24A 2727   0.345  -0.299   8.209  0.1968 -0.5379  1.4118
   37CHL1  H24B 2728   0.162  -0.324   8.219  0.6699  2.2103  0.0191
   37CHL1   C25 2729   0.280  -0.479   8.298  0.0012  0.9079  0.3735
   37CHL1   H25 2730   0.203  -0.556   8.277  1.4728 -0.9846  1.5841
   37CHL1   C26 2731   0.420  -0.551   8.298 -0.4355 -0.7037 -0.6127
   37CHL1  H26A 2732   0.492  -0.484   8.350  0.9648 -2.3886 -0.2789
   37CHL1  H26B 2733   0.418  -0.647   8.353 -0.1724 -0.7208 -0.6329
   37CHL1  H26C 2734   0.460  -0.573   8.196  2.1553 -1.3873  0.4641
   37CHL1   C27 2735   0.248  -0.426   8.438 -0.8631  0.6974 -0.7492
   37CHL1  H27A 2736   0.148  -0.379   8.433  0.2256  3.7756  2.2464
   37CHL1  H27B 2737   0.255  -0.510   8.510  1.9544 -1.6225 -3.4864
   37CHL1  H27C 2738   0.324  -0.349   8.463 -0.6178  0.6827 -1.4392
   38CHL1    C3 2739   4.367   1.190   6.653 -0.0414 -0.3727 -0.3571
   38CHL1    H3 2740   4.317   1.289   6.662  0.8889  0.4150 -2.8798
   38CHL1    O3 2741   4.400   1.164   6.523 -0.2058  0.5077  0.7897
   38CHL1   H3' 2742   4.315   1.153   6.480  0.0297 -1.3409  0.7355
   38CHL1    C4 2743   4.501   1.200   6.727 -0.0851 -0.3634  0.0958
   38CHL1   H4A 2744   4.557   1.113   6.688 -0.8803 -0.6679 -0.3871
   38CHL1   H4B 2745   4.559   1.284   6.682 -0.3371 -0.0601  0.3338
   38CHL1    C5 2746   4.500   1.208   6.879 -0.5760  0.9797  0.0243
   38CHL1    C6 2747   4.561   1.303   6.947 -0.0502 -0.7465 -0.1157
   38CHL1    H6 2748   4.619   1.382   6.896  1.4196 -0.8461  1.3189
   38CHL1    C7 2749   4.557   1.305   7.096 -0.4686 -0.1692 -0.3704
   38CHL1   H7A 2750   4.653   1.340   7.140 -0.2610 -1.3865  0.1958
   38CHL1   H7B 2751   4.483   1.385   7.115  1.1375  1.3940 -0.4370
   38CHL1    C8 2752   4.506   1.182   7.168 -0.0475 -0.8384 -0.3104
   38CHL1    H8 2753   4.592   1.111   7.165  1.5548  0.9227  1.1146
   38CHL1   C14 2754   4.466   1.215   7.316 -0.5944  0.2247 -0.4966
   38CHL1   H14 2755   4.375   1.279   7.310 -1.2513 -0.5794  0.6223
   38CHL1   C15 2756   4.570   1.288   7.406  0.0503 -0.3011  0.2109
   38CHL1  H15A 2757   4.671   1.242   7.402 -0.0688 -0.9050  2.8209
   38CHL1  H15B 2758   4.596   1.396   7.400  1.3803 -0.6744 -1.4744
   38CHL1   C16 2759   4.516   1.275   7.552 -0.5545  0.2169 -0.8498
   38CHL1  H16A 2760   4.597   1.225   7.609  0.4716  0.9255 -1.6363
   38CHL1  H16B 2761   4.498   1.369   7.608 -1.6269  1.2512 -2.8193
   38CHL1   C17 2762   4.389   1.177   7.537 -0.4106  1.1703  0.1983
   38CHL1   H17 2763   4.299   1.237   7.513 -1.4416 -1.2081 -2.3325
   38CHL1   C13 2764   4.412   1.101   7.400 -0.1003  0.1095 -0.8900
   38CHL1   C18 2765   4.528   0.995   7.428 -0.2885  0.3518 -0.8987
   38CHL1  H18A 2766   4.583   0.958   7.339 -2.8039  0.8880 -2.7975
   38CHL1  H18B 2767   4.602   1.040   7.497  0.1805 -0.2453 -1.0083
   38CHL1  H18C 2768   4.486   0.904   7.475 -1.5504  2.2722  2.0665
   38CHL1   C12 2769   4.284   1.047   7.321  1.1250 -0.0328 -0.1059
   38CHL1  H12A 2770   4.251   0.948   7.359  3.7003 -1.0461 -0.2727
   38CHL1  H12B 2771   4.207   1.126   7.330  0.9745 -0.2415  0.4993
   38CHL1   C11 2772   4.317   1.008   7.171  0.3485  0.3019  0.0984
   38CHL1  H11A 2773   4.379   0.916   7.173 -2.2003 -1.5232 -0.2620
   38CHL1  H11B 2774   4.219   0.977   7.127  0.9361 -0.5473 -0.6426
   38CHL1    C9 2775   4.386   1.121   7.095 -0.5231 -0.1516  0.0789
   38CHL1    H9 2776   4.308   1.200   7.094 -1.8439 -1.4079  0.4089
   38CHL1   C10 2777   4.421   1.094   6.945  0.1139 -0.5785  1.1239
   38CHL1   C19 2778   4.493   0.963   6.937  0.2171 -0.3365 -0.1375
   38CHL1  H19A 2779   4.580   0.960   7.006 -1.0763 -2.7740  1.5103
   38CHL1  H19B 2780   4.422   0.880   6.957 -1.2947  0.1344 -2.9522
   38CHL1  H19C 2781   4.514   0.944   6.829 -1.4750  2.0319 -0.9671
   38CHL1    C1 2782   4.284   1.082   6.875 -0.0020  0.0494 -0.0708
   38CHL1   H1A 2783   4.237   0.989   6.913  0.8448 -0.3450  0.0356
   38CHL1   H1B 2784   4.226   1.172   6.906 -0.4273 -0.9690  2.2888
   38CHL1    C2 2785   4.288   1.075   6.718  0.6432  0.5954  0.3976
   38CHL1   H2A 2786   4.192   1.082   6.661  1.0037 -1.1818 -0.4721
   38CHL1   H2B 2787   4.336   0.981   6.685 -0.7316  0.3781 -1.1048
   38CHL1   C20 2788   4.369   1.097   7.658  0.0843 -0.2460 -0.4231
   38CHL1   H20 2789   4.461   1.041   7.683  1.0968  2.5688  2.7837
   38CHL1   C21 2790   4.254   0.995   7.637 -0.2519 -0.8905  0.7525
   38CHL1  H21A 2791   4.163   1.055   7.619  0.9811  0.4055 -1.6101
   38CHL1  H21B 2792   4.235   0.932   7.727 -0.3564 -0.6794  0.8775
   38CHL1  H21C 2793   4.271   0.919   7.557  1.0878 -0.9885  1.1020
   38CHL1   C22 2794   4.357   1.189   7.780  0.1082  0.7079 -0.3261
   38CHL1  H22A 2795   4.453   1.242   7.796  1.5431 -2.1181  1.0937
   38CHL1  H22B 2796   4.282   1.270   7.767  0.0957  0.3297 -3.1388
   38CHL1   C23 2797   4.323   1.124   7.912 -0.2636  0.2787  0.5355
   38CHL1  H23A 2798   4.212   1.122   7.918 -0.2975  2.0812  0.8879
   38CHL1  H23B 2799   4.353   1.017   7.919 -0.1166  0.2539 -0.3683
   38CHL1   C24 2800   4.371   1.214   8.026 -0.4415  0.2098  0.3176
   38CHL1  H24A 2801   4.480   1.210   8.009 -0.7450 -0.3549 -1.6852
   38CHL1  H24B 2802   4.338   1.317   8.002 -2.0493 -0.4614 -0.4807
   38CHL1   C25 2803   4.332   1.174   8.169  0.2836  0.7658 -0.3406
   38CHL1   H25 2804   4.221   1.165   8.180  0.3500  1.7554  1.4472
   38CHL1   C26 2805   4.384   1.029   8.195  1.0410  0.1614  0.1304
   38CHL1  H26A 2806   4.343   0.992   8.291  1.5760  0.9536  0.6799
   38CHL1  H26B 2807   4.355   0.958   8.114 -1.4737  1.0220  0.1922
   38CHL1  H26C 2808   4.495   1.031   8.202  1.0144  2.6434  0.9920
   38CHL1   C27 2809   4.390   1.273   8.271  0.2180 -0.0694  0.0192
   38CHL1  H27A 2810   4.384   1.248   8.379  1.5109 -0.3605  0.0378
   38CHL1  H27B 2811   4.498   1.275   8.246 -0.2700  0.6823 -2.2955
   38CHL1  H27C 2812   4.335   1.366   8.247 -1.2322 -0.4745  1.5796
   39CHL1    C3 2813   4.333   0.109   6.952  0.1619  0.1675  0.3897
   39CHL1    H3 2814   4.351   0.218   6.964  1.0964 -0.0693  1.2816
   39CHL1    O3 2815   4.336   0.090   6.809 -0.8574  0.0495 -0.7972
   39CHL1   H3' 2816   4.282   0.165   6.784  1.5179  3.3126  2.5955
   39CHL1    C4 2817   4.455   0.031   7.009 -0.1299 -0.2202  0.2177
   39CHL1   H4A 2818   4.451  -0.076   6.981  0.8197  0.5650 -3.3306
   39CHL1   H4B 2819   4.546   0.075   6.964  0.6871  0.9073  2.7611
   39CHL1    C5 2820   4.463   0.053   7.154  0.0528 -0.2057 -0.3932
   39CHL1    C6 2821   4.578   0.104   7.207  0.3409  0.6282  0.2096
   39CHL1    H6 2822   4.660   0.114   7.134 -1.2145 -1.6782 -2.0630
   39CHL1    C7 2823   4.602   0.122   7.356  0.4986  0.3962  0.2374
   39CHL1   H7A 2824   4.705   0.096   7.387  0.3336 -1.0109 -0.3052
   39CHL1   H7B 2825   4.596   0.225   7.397 -0.1600 -0.6707  3.0701
   39CHL1    C8 2826   4.505   0.037   7.440  0.6025 -0.5116  0.7764
   39CHL1    H8 2827   4.537  -0.069   7.441 -1.5632 -1.2946 -1.6235
   39CHL1   C14 2828   4.506   0.090   7.581 -0.3084 -0.1251 -0.3730
   39CHL1   H14 2829   4.463   0.192   7.582 -1.0195 -0.4167 -0.5357
   39CHL1   C15 2830   4.632   0.114   7.657  0.3610 -0.2023 -0.3747
   39CHL1  H15A 2831   4.715   0.041   7.647  0.1978 -0.2331 -1.7897
   39CHL1  H15B 2832   4.669   0.218   7.643  1.8714 -0.7458 -0.6722
   39CHL1   C16 2833   4.597   0.120   7.808 -0.2741 -0.1461  0.4947
   39CHL1  H16A 2834   4.666   0.051   7.860  0.1328  0.2454  0.4837
   39CHL1  H16B 2835   4.610   0.222   7.851 -0.8578  1.0293 -1.9517
   39CHL1   C17 2836   4.450   0.081   7.823  0.0449 -0.1604 -0.4640
   39CHL1   H17 2837   4.399   0.180   7.829  0.5649  0.0226  2.6543
   39CHL1   C13 2838   4.420   0.010   7.684  0.0504  0.1076 -0.6189
   39CHL1   C18 2839   4.468  -0.132   7.698 -0.1145  0.3454  0.0910
   39CHL1  H18A 2840   4.569  -0.136   7.745  0.2896  0.7577 -0.7116
   39CHL1  H18B 2841   4.398  -0.194   7.758 -0.2656 -1.4347 -1.7870
   39CHL1  H18C 2842   4.477  -0.185   7.601  1.0949  1.2773 -0.3384
   39CHL1   C12 2843   4.271   0.014   7.634  0.2093  0.5861 -0.1085
   39CHL1  H12A 2844   4.217  -0.061   7.695  1.1819  0.8288  1.1098
   39CHL1  H12B 2845   4.223   0.112   7.652 -1.1884 -0.3061  1.2050
   39CHL1   C11 2846   4.254  -0.025   7.486 -0.3814 -0.0813 -0.0890
   39CHL1  H11A 2847   4.248  -0.136   7.483  0.3616 -0.1569  0.8937
   39CHL1  H11B 2848   4.158  -0.001   7.435  0.1748  0.2715 -1.0068
   39CHL1    C9 2849   4.355   0.044   7.394  0.1469  0.2099 -0.1590
   39CHL1    H9 2850   4.336   0.153   7.400  0.0398  0.2024 -0.3640
   39CHL1   C10 2851   4.339   0.007   7.241 -0.3467  0.0289 -0.2312
   39CHL1   C19 2852   4.327  -0.152   7.244 -0.3358  0.4575 -0.2582
   39CHL1  H19A 2853   4.404  -0.189   7.315 -1.2283 -1.7757 -0.3672
   39CHL1  H19B 2854   4.229  -0.183   7.288  1.1916 -1.3368  2.1168
   39CHL1  H19C 2855   4.340  -0.192   7.141  0.2890 -0.0357  0.0103
   39CHL1    C1 2856   4.215   0.060   7.163 -0.6331  0.0372 -0.2594
   39CHL1   H1A 2857   4.119   0.021   7.203 -1.2310  0.4373 -1.2554
   39CHL1   H1B 2858   4.225   0.169   7.182  1.3397 -0.1730  0.1051
   39CHL1    C2 2859   4.206   0.047   7.010  0.2612 -0.4442  0.1583
   39CHL1   H2A 2860   4.112   0.080   6.959 -0.0628 -0.0001  1.0142
   39CHL1   H2B 2861   4.200  -0.062   6.993  1.7914 -0.3260 -1.3483
   39CHL1   C20 2862   4.419   0.007   7.960 -0.3158 -0.3984 -0.3167
   39CHL1   H20 2863   4.483  -0.082   7.973 -1.5891 -1.1483  1.3067
   39CHL1   C21 2864   4.273  -0.038   7.957 -0.0522  0.5572  0.1564
   39CHL1  H21A 2865   4.203   0.036   7.913 -3.4160 -1.7999  1.0940
   39CHL1  H21B 2866   4.231  -0.043   8.060 -0.0765  1.4563  0.1973
   39CHL1  H21C 2867   4.251  -0.130   7.899  1.9945  1.9855 -3.1792
   39CHL1   C22 2868   4.437   0.087   8.093 -0.3707  0.0187 -0.2180
   39CHL1  H22A 2869   4.394   0.028   8.176 -1.8005  1.2827 -0.0275
   39CHL1  H22B 2870   4.547   0.102   8.104 -0.3407  2.2178 -2.4315
   39CHL1   C23 2871   4.386   0.231   8.094  0.3585  0.8680 -0.0355
   39CHL1  H23A 2872   4.446   0.301   8.032 -0.4472  1.4670 -0.1549
   39CHL1  H23B 2873   4.290   0.217   8.041 -0.0148 -0.0466  0.8553
   39CHL1   C24 2874   4.388   0.294   8.232  0.5258 -0.9420  0.6740
   39CHL1  H24A 2875   4.321   0.236   8.298 -1.2857  1.0425  0.6993
   39CHL1  H24B 2876   4.491   0.287   8.272  0.7674 -1.1642  0.0372
   39CHL1   C25 2877   4.340   0.439   8.223 -0.9307  0.3002 -0.3966
   39CHL1   H25 2878   4.374   0.470   8.122  1.7330 -0.1948  0.2505
   39CHL1   C26 2879   4.188   0.457   8.231 -0.1824  0.1240  0.1126
   39CHL1  H26A 2880   4.173   0.553   8.176  0.4318 -0.1778 -0.5931
   39CHL1  H26B 2881   4.137   0.382   8.167 -0.0542  0.9380 -0.9825
   39CHL1  H26C 2882   4.143   0.463   8.332  0.4383  2.3173  0.3251
   39CHL1   C27 2883   4.412   0.535   8.321 -0.3870 -0.2484 -0.3506
   39CHL1  H27A 2884   4.384   0.640   8.296  1.0250  0.0515 -0.7483
   39CHL1  H27B 2885   4.382   0.505   8.424 -1.6369  0.1137 -0.5981
   39CHL1  H27C 2886   4.522   0.528   8.305 -0.5913 -1.4240 -1.3647
   40CHL1    C3 2887   5.385   6.607   6.810  0.1453 -0.4802  0.3180
   40CHL1    H3 2888   5.296   6.660   6.851 -1.0004 -1.2951 -1.0579
   40CHL1    O3 2889   5.394   6.643   6.674  0.7800 -0.6803  0.4444
   40CHL1   H3' 2890   5.399   6.560   6.624 -1.7603 -0.0288 -1.0807
   40CHL1    C4 2891   5.511   6.672   6.879  0.4523 -0.6049  0.3842
   40CHL1   H4A 2892   5.607   6.656   6.826  0.3566  3.6299 -1.4742
   40CHL1   H4B 2893   5.485   6.779   6.864  0.1023 -0.8665 -0.9276
   40CHL1    C5 2894   5.524   6.638   7.028  0.7173 -0.2752 -0.1731
   40CHL1    C6 2895   5.537   6.738   7.108 -0.0592 -0.5202 -0.1061
   40CHL1    H6 2896   5.542   6.838   7.062 -2.3496 -1.0012 -1.6068
   40CHL1    C7 2897   5.551   6.716   7.258  0.0990 -0.0093 -0.2338
   40CHL1   H7A 2898   5.628   6.790   7.291  0.7169 -0.4561 -0.6520
   40CHL1   H7B 2899   5.451   6.742   7.298  0.1614  1.1159 -0.7442
   40CHL1    C8 2900   5.571   6.569   7.296 -0.2095  0.3628 -0.1015
   40CHL1    H8 2901   5.679   6.549   7.284 -0.6439 -1.2139 -1.7574
   40CHL1   C14 2902   5.545   6.551   7.451 -0.2156  0.9249 -0.0282
   40CHL1   H14 2903   5.437   6.576   7.458 -0.5429  0.9218 -3.3479
   40CHL1   C15 2904   5.623   6.640   7.550  0.0957 -0.1153  0.4192
   40CHL1  H15A 2905   5.729   6.620   7.523 -0.0870 -1.4051  0.6143
   40CHL1  H15B 2906   5.601   6.749   7.553 -2.2630 -0.5346 -0.0494
   40CHL1   C16 2907   5.592   6.574   7.685  0.5325  0.1537 -0.2895
   40CHL1  H16A 2908   5.689   6.577   7.740  1.0852 -2.6166 -0.9479
   40CHL1  H16B 2909   5.501   6.617   7.731  0.7294  0.1327  0.1213
   40CHL1   C17 2910   5.550   6.426   7.658 -0.3335  0.0893  0.7745
   40CHL1   H17 2911   5.441   6.421   7.679 -0.5760  0.1234 -0.4189
   40CHL1   C13 2912   5.559   6.406   7.501 -0.0938 -0.2651  0.0720
   40CHL1   C18 2913   5.702   6.356   7.471 -0.2257  0.2291  0.8698
   40CHL1  H18A 2914   5.709   6.253   7.512  0.5939 -0.2185 -0.3309
   40CHL1  H18B 2915   5.737   6.352   7.366  2.2054 -1.8321  1.6573
   40CHL1  H18C 2916   5.775   6.415   7.530  2.2477  1.8492 -3.4231
   40CHL1   C12 2917   5.454   6.321   7.423  0.4674  0.2262 -0.0150
   40CHL1  H12A 2918   5.471   6.220   7.465  4.6248  1.5871  2.1488
   40CHL1  H12B 2919   5.346   6.346   7.434  0.2229 -0.8112  0.0299
   40CHL1   C11 2920   5.482   6.327   7.269 -0.1758  0.4542 -0.6321
   40CHL1  H11A 2921   5.570   6.263   7.245 -2.1859 -3.4965  1.5279
   40CHL1  H11B 2922   5.394   6.269   7.235  1.4937 -1.4602 -1.9015
   40CHL1    C9 2923   5.477   6.474   7.221 -0.1604  0.2961  0.1192
   40CHL1    H9 2924   5.379   6.519   7.246 -0.5293 -1.1174  1.3181
   40CHL1   C10 2925   5.500   6.496   7.068  0.6578 -0.1845 -0.3752
   40CHL1   C19 2926   5.631   6.419   7.039 -0.4170  0.2211 -0.4049
   40CHL1  H19A 2927   5.655   6.440   6.932 -1.7345  0.4012 -0.6867
   40CHL1  H19B 2928   5.716   6.453   7.101 -0.8165 -0.3372  0.4582
   40CHL1  H19C 2929   5.610   6.309   7.040  0.2878  0.0568 -1.6007
   40CHL1    C1 2930   5.380   6.441   6.990 -0.5414 -1.0071  0.7035
   40CHL1   H1A 2931   5.370   6.332   7.011  1.8981 -0.9248  2.8768
   40CHL1   H1B 2932   5.283   6.481   7.026 -1.0455  0.7876 -2.2774
   40CHL1    C2 2933   5.387   6.460   6.836 -0.6016  0.0389 -0.5670
   40CHL1   H2A 2934   5.303   6.401   6.793 -1.2721 -0.3622  1.1928
   40CHL1   H2B 2935   5.481   6.417   6.795 -0.6507 -1.7232  1.0016
   40CHL1   C20 2936   5.604   6.324   7.759 -0.1077 -0.3268 -0.0856
   40CHL1   H20 2937   5.712   6.314   7.735  0.1421 -2.2702  1.6604
   40CHL1   C21 2938   5.542   6.193   7.710  0.2248  0.4141 -0.1397
   40CHL1  H21A 2939   5.600   6.144   7.629  0.0758 -0.9187  0.5361
   40CHL1  H21B 2940   5.434   6.208   7.688 -0.3903 -0.3726  2.1055
   40CHL1  H21C 2941   5.537   6.119   7.792 -0.2085  0.6689  0.0714
   40CHL1   C22 2942   5.557   6.354   7.903 -0.5952  0.6269  0.6511
   40CHL1  H22A 2943   5.572   6.461   7.931  1.4931  1.0654 -1.7463
   40CHL1  H22B 2944   5.447   6.341   7.904 -0.7576  1.5178 -1.1669
   40CHL1   C23 2945   5.628   6.265   8.005 -0.1698 -0.2775 -0.6337
   40CHL1  H23A 2946   5.628   6.156   7.982 -2.6265 -0.7628  1.3024
   40CHL1  H23B 2947   5.732   6.305   8.005 -0.0853 -0.4204  1.0264
   40CHL1   C24 2948   5.569   6.288   8.151  1.5165 -0.4168  0.4879
   40CHL1  H24A 2949   5.570   6.397   8.174  0.9285  0.7007 -3.8725
   40CHL1  H24B 2950   5.462   6.263   8.138  0.9659  1.6340  0.7351
   40CHL1   C25 2951   5.633   6.212   8.264 -0.0412 -0.4404 -0.2578
   40CHL1   H25 2952   5.649   6.104   8.244  3.2821  0.0325 -0.7177
   40CHL1   C26 2953   5.768   6.284   8.286 -0.3853 -0.8198 -0.1977
   40CHL1  H26A 2954   5.826   6.243   8.371  1.1847  0.1859 -0.7366
   40CHL1  H26B 2955   5.831   6.283   8.195 -1.1506  0.4683 -0.7788
   40CHL1  H26C 2956   5.742   6.389   8.314 -0.9076 -0.4081 -2.1054
   40CHL1   C27 2957   5.550   6.217   8.387  0.4762  0.4783  0.1425
   40CHL1  H27A 2958   5.513   6.319   8.412 -2.0733 -0.4343  0.3158
   40CHL1  H27B 2959   5.458   6.156   8.389  2.4076 -2.6987  3.0259
   40CHL1  H27C 2960   5.604   6.181   8.477 -0.3893 -2.5361 -0.4557
   41CHL1    C3 2961   6.563   5.008   6.799 -0.3324  0.5754  0.2106
   41CHL1    H3 2962   6.615   4.912   6.780 -3.3126 -0.8179 -1.8012
   41CHL1    O3 2963   6.509   5.047   6.673 -0.2573 -0.4453  0.1422
   41CHL1   H3' 2964   6.474   5.135   6.686  0.7242  0.0322 -0.3067
   41CHL1    C4 2965   6.442   4.985   6.888 -0.6342 -0.1653 -0.6433
   41CHL1   H4A 2966   6.378   5.076   6.881 -1.5370 -0.7108  0.3040
   41CHL1   H4B 2967   6.389   4.900   6.841 -1.6169  0.3036 -0.4047
   41CHL1    C5 2968   6.486   4.955   7.041  0.9571 -0.7956  0.1997
   41CHL1    C6 2969   6.458   4.842   7.107 -0.2758  1.2834  0.2494
   41CHL1    H6 2970   6.389   4.771   7.060 -0.3743  0.4568  1.6017
   41CHL1    C7 2971   6.484   4.836   7.255  0.0963 -0.7318 -0.3477
   41CHL1   H7A 2972   6.389   4.816   7.309  1.8651 -1.2844  2.8205
   41CHL1   H7B 2973   6.562   4.758   7.267  1.5610  1.0608  2.8094
   41CHL1    C8 2974   6.533   4.970   7.319  0.7057  0.2395 -0.0262
   41CHL1    H8 2975   6.443   5.033   7.335  1.1865  1.4585 -1.7924
   41CHL1   C14 2976   6.607   4.937   7.449  1.0473 -0.2107  0.1527
   41CHL1   H14 2977   6.687   4.868   7.416  0.1342 -1.0005 -0.4710
   41CHL1   C15 2978   6.522   4.862   7.549  0.0457  0.2970 -0.4829
   41CHL1  H15A 2979   6.420   4.903   7.561 -1.0696 -1.4402 -3.0848
   41CHL1  H15B 2980   6.507   4.755   7.524 -0.8027 -0.0249  1.2331
   41CHL1   C16 2981   6.598   4.877   7.685  0.0325 -0.1375 -0.4246
   41CHL1  H16A 2982   6.523   4.913   7.758  0.0150  2.4832 -1.6119
   41CHL1  H16B 2983   6.650   4.786   7.720 -1.7554 -0.6549  1.0381
   41CHL1   C17 2984   6.708   4.988   7.661 -0.5503  0.7479 -0.3895
   41CHL1   H17 2985   6.797   4.925   7.641 -0.5571  0.9419 -1.0386
   41CHL1   C13 2986   6.666   5.058   7.526  0.5463 -0.7343 -0.3333
   41CHL1   C18 2987   6.556   5.162   7.552 -0.6727 -0.0406  0.4431
   41CHL1  H18A 2988   6.483   5.128   7.628 -2.0413  1.0284 -0.3462
   41CHL1  H18B 2989   6.597   5.257   7.593 -1.9467 -0.2043  2.2287
   41CHL1  H18C 2990   6.514   5.201   7.457  3.1678  1.8373 -0.7230
   41CHL1   C12 2991   6.778   5.116   7.429 -0.6549 -0.2128 -0.1284
   41CHL1  H12A 2992   6.830   5.206   7.469  0.1775 -0.4886 -0.5592
   41CHL1  H12B 2993   6.858   5.039   7.430  0.1818  0.6341  0.9488
   41CHL1   C11 2994   6.728   5.146   7.284  0.5550  0.0148 -0.7759
   41CHL1  H11A 2995   6.681   5.246   7.295 -0.2002 -0.5950  3.3043
   41CHL1  H11B 2996   6.824   5.142   7.228  0.4922 -4.0430 -0.9153
   41CHL1    C9 2997   6.635   5.034   7.230 -0.8847 -0.1527  0.4164
   41CHL1    H9 2998   6.701   4.948   7.206 -0.9766  0.6785 -3.4291
   41CHL1   C10 2999   6.575   5.073   7.092  0.5516  0.5303 -0.5472
   41CHL1   C19 3000   6.508   5.211   7.109  0.0941 -0.2125  0.1300
   41CHL1  H19A 3001   6.443   5.209   7.199  1.3689 -0.7659  1.0829
   41CHL1  H19B 3002   6.583   5.292   7.119 -0.0942 -0.2767  2.7297
   41CHL1  H19C 3003   6.450   5.225   7.016 -0.3585  0.9574  0.5791
   41CHL1    C1 3004   6.693   5.097   6.990 -0.0345 -0.4827 -0.2696
   41CHL1   H1A 3005   6.746   5.188   7.026 -1.4923  0.6892 -0.9958
   41CHL1   H1B 3006   6.761   5.010   7.004  0.4091 -0.3675 -1.5632
   41CHL1    C2 3007   6.644   5.124   6.850 -0.4217  0.2277  0.0507
   41CHL1   H2A 3008   6.724   5.135   6.774  1.5155 -1.1999  1.7306
   41CHL1   H2B 3009   6.583   5.216   6.859 -1.1558 -0.3883  1.8583
   41CHL1   C20 3010   6.739   5.076   7.782  0.0612  0.0200  0.5312
   41CHL1   H20 3011   6.657   5.150   7.793 -0.0367 -0.3274  2.5020
   41CHL1   C21 3012   6.874   5.155   7.755 -0.8271 -0.1660  0.7324
   41CHL1  H21A 3013   6.958   5.086   7.732 -1.0730 -0.0651 -0.5516
   41CHL1  H21B 3014   6.887   5.215   7.847  0.2101  1.3712 -0.3657
   41CHL1  H21C 3015   6.859   5.232   7.677  0.4254  0.4490  1.0827
   41CHL1   C22 3016   6.747   5.010   7.915 -0.0515  0.4690 -0.3237
   41CHL1  H22A 3017   6.770   5.089   7.989  3.3202 -1.6156  1.0746
   41CHL1  H22B 3018   6.652   4.961   7.945 -0.1302  2.1278  2.4840
   41CHL1   C23 3019   6.856   4.900   7.929 -0.1383 -0.0339 -0.0742
   41CHL1  H23A 3020   6.833   4.809   7.869  0.5930 -0.7082  0.6415
   41CHL1  H23B 3021   6.960   4.928   7.902 -0.3762  0.3070 -0.6551
   41CHL1   C24 3022   6.865   4.864   8.072 -0.4139  1.0821  0.1746
   41CHL1  H24A 3023   6.921   4.948   8.117 -1.2256  0.9272  1.5264
   41CHL1  H24B 3024   6.769   4.850   8.126  0.8235 -1.4625  1.9402
   41CHL1   C25 3025   6.962   4.741   8.093  0.3524  0.3591 -0.5456
   41CHL1   H25 3026   7.064   4.773   8.064 -0.5077  2.9652 -0.9540
   41CHL1   C26 3027   6.962   4.702   8.240 -0.0422 -0.3521  0.0487
   41CHL1  H26A 3028   7.033   4.619   8.256  0.7872  0.0021 -1.5584
   41CHL1  H26B 3029   7.001   4.785   8.302  0.3560 -0.2547 -0.3237
   41CHL1  H26C 3030   6.861   4.676   8.279 -0.7131  0.4404 -1.0831
   41CHL1   C27 3031   6.925   4.616   8.006  0.8944 -0.4901  0.0622
   41CHL1  H27A 3032   6.953   4.629   7.899 -0.1094 -2.0205 -0.4216
   41CHL1  H27B 3033   6.991   4.530   8.030 -0.4030 -2.1673 -2.0656
   41CHL1  H27C 3034   6.816   4.597   7.997  1.2997 -2.4329 -1.4321
   42CHL1    C3 3035   1.377   1.958   6.910  0.3266  0.2305 -0.3262
   42CHL1    H3 3036   1.482   1.972   6.943  1.0257 -2.7827 -1.0058
   42CHL1    O3 3037   1.372   1.985   6.772 -0.3242 -0.1410 -0.0212
   42CHL1   H3' 3038   1.303   1.933   6.732 -0.0838 -0.5034  0.0323
   42CHL1    C4 3039   1.329   1.810   6.938  0.6427  0.9091  0.2215
   42CHL1   H4A 3040   1.232   1.793   6.887  0.1282  0.4823  1.3217
   42CHL1   H4B 3041   1.400   1.739   6.888  0.6372  0.1469  1.2596
   42CHL1    C5 3042   1.314   1.777   7.087  0.1271  0.5756 -0.6219
   42CHL1    C6 3043   1.372   1.664   7.137  0.9329 -0.3405  0.3937
   42CHL1    H6 3044   1.421   1.592   7.071  1.7736  1.6735 -1.3061
   42CHL1    C7 3045   1.357   1.629   7.280  0.7782 -0.0083  0.2129
   42CHL1   H7A 3046   1.338   1.521   7.300 -0.4499  0.7614  3.8335
   42CHL1   H7B 3047   1.450   1.642   7.338 -0.2703  1.1556  1.6953
   42CHL1    C8 3048   1.240   1.708   7.353  0.3406  0.1949  0.7254
   42CHL1    H8 3049   1.139   1.674   7.319  0.2105  0.2923  1.0147
   42CHL1   C14 3050   1.256   1.690   7.503  0.1722  0.3232  0.0598
   42CHL1   H14 3051   1.344   1.756   7.518 -1.2060  2.7047 -1.7721
   42CHL1   C15 3052   1.288   1.556   7.564 -0.7929  0.2038  0.7084
   42CHL1  H15A 3053   1.233   1.482   7.504 -0.2074 -0.8713  1.4551
   42CHL1  H15B 3054   1.398   1.539   7.558 -0.8424  0.4558 -1.5493
   42CHL1   C16 3055   1.252   1.567   7.708 -0.6465 -0.4467  0.1037
   42CHL1  H16A 3056   1.160   1.505   7.718 -0.4485 -0.9751 -1.2371
   42CHL1  H16B 3057   1.327   1.533   7.784  1.8478  1.7619 -1.1956
   42CHL1   C17 3058   1.203   1.716   7.731  0.1260  0.7919 -0.2621
   42CHL1   H17 3059   1.289   1.784   7.748 -0.6147  1.8188 -0.5336
   42CHL1   C13 3060   1.149   1.756   7.588 -0.0827  0.1590 -0.8638
   42CHL1   C18 3061   1.010   1.699   7.558 -0.3935 -0.4620  0.1060
   42CHL1  H18A 3062   0.996   1.591   7.576 -1.4941 -0.2321  0.6875
   42CHL1  H18B 3063   0.935   1.753   7.618  0.1966  1.0405 -0.4542
   42CHL1  H18C 3064   0.984   1.722   7.452 -0.0513 -1.0228 -0.1061
   42CHL1   C12 3065   1.150   1.905   7.564  0.4947  0.2992 -0.2917
   42CHL1  H12A 3066   1.059   1.957   7.602  2.3445  2.9417  0.8425
   42CHL1  H12B 3067   1.237   1.947   7.618  0.0351 -1.4620  1.9886
   42CHL1   C11 3068   1.146   1.942   7.406 -0.7392  0.5958 -0.0403
   42CHL1  H11A 3069   1.039   1.927   7.378 -0.6351 -2.1652  0.7446
   42CHL1  H11B 3070   1.163   2.050   7.386 -0.3162  0.3491 -1.1158
   42CHL1    C9 3071   1.248   1.860   7.321 -0.1497  0.4274  0.4844
   42CHL1    H9 3072   1.349   1.891   7.354 -0.3523 -0.4779  2.0821
   42CHL1   C10 3073   1.241   1.888   7.166  0.1212 -0.0733 -0.7489
   42CHL1   C19 3074   1.095   1.878   7.125  0.3651  0.3917 -0.6116
   42CHL1  H19A 3075   1.026   1.956   7.164  0.6744  0.8016 -0.8740
   42CHL1  H19B 3076   1.085   1.869   7.015 -0.8232 -3.2420 -0.3151
   42CHL1  H19C 3077   1.053   1.785   7.169  0.1730 -0.7974 -3.1444
   42CHL1    C1 3078   1.299   2.031   7.138 -0.0128  0.8398 -0.6667
   42CHL1   H1A 3079   1.239   2.103   7.197  4.5340  2.6808  2.1998
   42CHL1   H1B 3080   1.401   2.034   7.183 -1.6254  2.1461  3.3732
   42CHL1    C2 3081   1.294   2.060   6.986  0.5969 -0.0366  0.2056
   42CHL1   H2A 3082   1.339   2.160   6.966  0.6566 -0.6225 -3.2154
   42CHL1   H2B 3083   1.193   2.066   6.939  0.5255 -2.5717 -0.1074
   42CHL1   C20 3084   1.107   1.733   7.849  0.3611 -0.4123 -1.2694
   42CHL1   H20 3085   1.010   1.687   7.822 -0.6587  1.1559 -0.4341
   42CHL1   C21 3086   1.070   1.879   7.884 -0.6927  0.2876  0.5461
   42CHL1  H21A 3087   1.015   1.921   7.797  0.8473  1.6575  0.1923
   42CHL1  H21B 3088   1.163   1.939   7.890  0.7579 -1.7979  0.0164
   42CHL1  H21C 3089   1.004   1.882   7.973  0.3779 -0.0344  1.3700
   42CHL1   C22 3090   1.146   1.662   7.980  0.5860 -0.2154 -0.0938
   42CHL1  H22A 3091   1.073   1.703   8.052 -0.6545  0.9462 -1.9165
   42CHL1  H22B 3092   1.139   1.552   7.960  1.0131 -0.3645  0.5515
   42CHL1   C23 3093   1.284   1.688   8.042 -0.4109  0.4750  0.2337
   42CHL1  H23A 3094   1.356   1.698   7.959 -0.9666  1.9168 -0.1056
   42CHL1  H23B 3095   1.274   1.788   8.090 -1.1448  0.6328 -0.2303
   42CHL1   C24 3096   1.328   1.575   8.144 -0.4432 -1.2857  0.1106
   42CHL1  H24A 3097   1.338   1.478   8.090 -0.1654 -0.7347 -0.8514
   42CHL1  H24B 3098   1.428   1.607   8.180 -1.0587  1.1451 -0.1530
   42CHL1   C25 3099   1.232   1.554   8.268 -0.1217  0.4964  0.6256
   42CHL1   H25 3100   1.139   1.519   8.220  0.3817  0.3126 -0.2486
   42CHL1   C26 3101   1.292   1.440   8.357  0.2065 -0.0982 -0.2307
   42CHL1  H26A 3102   1.220   1.427   8.441  2.8613 -1.9315  1.9279
   42CHL1  H26B 3103   1.304   1.347   8.297  1.9678 -1.4903  2.1093
   42CHL1  H26C 3104   1.393   1.463   8.395  0.2256 -0.5567  0.0036
   42CHL1   C27 3105   1.199   1.682   8.339 -0.6205  0.2058 -0.5998
   42CHL1  H27A 3106   1.291   1.738   8.367  0.1476 -0.0826 -2.3955
   42CHL1  H27B 3107   1.138   1.676   8.431  0.2926 -0.7923 -0.0450
   42CHL1  H27C 3108   1.149   1.756   8.272 -1.1621 -0.5756 -1.0731
   43CHL1    C3 3109   0.768   6.615   6.835 -0.3768 -0.3617  0.2446
   43CHL1    H3 3110   0.814   6.715   6.849 -0.1300 -0.5398  0.7127
   43CHL1    O3 3111   0.751   6.617   6.692  0.4283 -0.3175  0.3125
   43CHL1   H3' 3112   0.780   6.530   6.664  1.1526 -0.1958  0.6343
   43CHL1    C4 3113   0.862   6.499   6.877 -0.0227  0.3889  0.7593
   43CHL1   H4A 3114   0.816   6.400   6.857  2.0739 -0.4866 -0.0355
   43CHL1   H4B 3115   0.953   6.507   6.813 -0.2680  0.6561  0.4428
   43CHL1    C5 3116   0.890   6.513   7.024  0.4892  0.3996  0.1013
   43CHL1    C6 3117   1.014   6.532   7.065  0.0251  0.5231  0.7483
   43CHL1    H6 3118   1.098   6.530   6.995  1.4283 -0.3078  2.3810
   43CHL1    C7 3119   1.058   6.544   7.201 -0.7139  0.2377  0.1535
   43CHL1   H7A 3120   1.149   6.482   7.216  1.1753  2.9430  0.8539
   43CHL1   H7B 3121   1.092   6.649   7.219  2.5933 -1.1365  2.9130
   43CHL1    C8 3122   0.947   6.502   7.304 -0.1284 -0.6376 -0.6822
   43CHL1    H8 3123   0.950   6.391   7.306 -1.9303 -0.7183 -0.3151
   43CHL1   C14 3124   0.979   6.566   7.433  0.3646 -0.1208  0.1029
   43CHL1   H14 3125   0.970   6.675   7.412 -0.0838 -0.5263 -2.0374
   43CHL1   C15 3126   1.120   6.549   7.489  0.5735 -0.1322  0.1556
   43CHL1  H15A 3127   1.156   6.444   7.503  2.6078  0.6079  0.8648
   43CHL1  H15B 3128   1.199   6.602   7.432  0.7545  0.5933  1.0659
   43CHL1   C16 3129   1.100   6.617   7.629  0.3121  0.1969 -0.1214
   43CHL1  H16A 3130   1.138   6.548   7.708 -1.1515 -0.4152  0.0804
   43CHL1  H16B 3131   1.167   6.705   7.643 -1.8428  1.6758  1.5779
   43CHL1   C17 3132   0.949   6.643   7.653  0.5497  0.2693  0.3896
   43CHL1   H17 3133   0.933   6.749   7.624  1.8751  0.3732 -0.0158
   43CHL1   C13 3134   0.882   6.541   7.553  0.5675  0.4313  0.6049
   43CHL1   C18 3135   0.890   6.390   7.602  0.7188 -0.2846  0.2990
   43CHL1  H18A 3136   0.884   6.319   7.516  0.4507  0.6178 -0.4362
   43CHL1  H18B 3137   0.975   6.382   7.673  0.6188  1.5289  0.6719
   43CHL1  H18C 3138   0.800   6.383   7.667 -0.4029  2.6753 -0.7771
   43CHL1   C12 3139   0.742   6.577   7.508  0.4312  0.3323 -0.0783
   43CHL1  H12A 3140   0.665   6.540   7.579  1.6710  2.5971  2.6683
   43CHL1  H12B 3141   0.732   6.688   7.509  1.8484  0.4932  2.3898
   43CHL1   C11 3142   0.698   6.523   7.365 -0.0926 -0.0682  0.5968
   43CHL1  H11A 3143   0.691   6.413   7.379  0.1318 -0.1172  0.3280
   43CHL1  H11B 3144   0.601   6.574   7.348  0.7308  2.2434  2.2373
   43CHL1    C9 3145   0.811   6.555   7.260  0.1185 -0.4782 -0.4858
   43CHL1    H9 3146   0.808   6.666   7.262 -2.0680 -0.4407 -2.1271
   43CHL1   C10 3147   0.762   6.510   7.121 -0.1231 -0.1832  0.5404
   43CHL1   C19 3148   0.716   6.367   7.125 -0.1168 -0.3277  0.6678
   43CHL1  H19A 3149   0.778   6.293   7.180 -1.4055 -0.3730  2.1292
   43CHL1  H19B 3150   0.618   6.368   7.178  0.0654  0.4033  0.9906
   43CHL1  H19C 3151   0.699   6.335   7.020  2.5873  3.2123 -1.0553
   43CHL1    C1 3152   0.657   6.614   7.062  0.3206 -0.1265  0.2132
   43CHL1   H1A 3153   0.559   6.598   7.112 -0.0473 -0.4378 -0.5833
   43CHL1   H1B 3154   0.687   6.720   7.080 -0.0739  0.2761 -1.3363
   43CHL1    C2 3155   0.635   6.607   6.908  0.0306  0.3602 -0.2554
   43CHL1   H2A 3156   0.573   6.694   6.875 -0.5023  0.0021 -0.2117
   43CHL1   H2B 3157   0.578   6.514   6.886 -0.9676  0.8520  0.1529
   43CHL1   C20 3158   0.906   6.637   7.801  0.3364 -1.0331  0.5557
   43CHL1   H20 3159   0.926   6.534   7.838  1.0038 -1.7568 -1.6335
   43CHL1   C21 3160   0.758   6.675   7.817  0.7650 -0.4518 -0.4584
   43CHL1  H21A 3161   0.712   6.757   7.757 -1.0097 -0.1777  1.1674
   43CHL1  H21B 3162   0.735   6.703   7.922 -0.5333  0.1556 -0.8746
   43CHL1  H21C 3163   0.692   6.588   7.798  1.3023 -1.3065  1.3526
   43CHL1   C22 3164   0.996   6.737   7.886  0.7417 -0.1931  0.1125
   43CHL1  H22A 3165   1.103   6.706   7.882  0.9209  0.2220  1.2461
   43CHL1  H22B 3166   0.985   6.840   7.847 -0.0855  1.0184  3.2132
   43CHL1   C23 3167   0.950   6.745   8.029 -0.4305  0.1518 -0.4545
   43CHL1  H23A 3168   1.024   6.807   8.084  1.0199  0.4422 -2.6121
   43CHL1  H23B 3169   0.855   6.802   8.042  0.0784  1.0092 -0.3848
   43CHL1   C24 3170   0.965   6.621   8.117 -0.5262 -0.0297 -0.0622
   43CHL1  H24A 3171   0.906   6.534   8.082  0.6401 -0.4484 -1.0610
   43CHL1  H24B 3172   1.067   6.579   8.102 -0.3430  0.7418 -1.1048
   43CHL1   C25 3173   0.907   6.647   8.257 -0.1250  0.4458  0.1676
   43CHL1   H25 3174   0.945   6.742   8.301 -1.3512  1.1668 -0.2712
   43CHL1   C26 3175   0.751   6.653   8.258 -0.1553 -0.1768  0.1710
   43CHL1  H26A 3176   0.711   6.665   8.361 -0.8921  0.5093 -0.1879
   43CHL1  H26B 3177   0.713   6.729   8.187  1.6496  1.4535  0.8672
   43CHL1  H26C 3178   0.711   6.555   8.224  3.5527 -2.4721  1.7559
   43CHL1   C27 3179   0.949   6.531   8.344 -0.1190  0.2927 -0.8350
   43CHL1  H27A 3180   0.931   6.558   8.450  0.0951 -1.9065 -0.1865
   43CHL1  H27B 3181   0.902   6.436   8.311  0.7346  0.1976 -1.8286
   43CHL1  H27C 3182   1.059   6.514   8.350 -0.1610  0.1748 -0.3530
   44CHL1    C3 3183   0.421   4.817   6.668 -0.1388  1.0730  0.7036
   44CHL1    H3 3184   0.522   4.774   6.651 -0.6144  1.0641 -3.1204
   44CHL1    O3 3185   0.362   4.843   6.540  0.1900  0.0073  0.1793
   44CHL1   H3' 3186   0.275   4.881   6.553 -0.4315 -1.9304  2.3493
   44CHL1    C4 3187   0.344   4.706   6.737  0.3447  1.0090  0.2169
   44CHL1   H4A 3188   0.236   4.731   6.732 -0.0421 -0.5060  0.3466
   44CHL1   H4B 3189   0.359   4.612   6.679 -2.0576  0.8616 -0.2765
   44CHL1    C5 3190   0.370   4.688   6.882 -0.8393 -0.5470 -0.6375
   44CHL1    C6 3191   0.411   4.575   6.937  0.3085  0.1241  0.0580
   44CHL1    H6 3192   0.410   4.484   6.875  2.0736 -0.6403  1.0813
   44CHL1    C7 3193   0.421   4.550   7.082  0.0243 -0.7349  0.2620
   44CHL1   H7A 3194   0.375   4.453   7.109 -1.2490 -0.2631 -0.1154
   44CHL1   H7B 3195   0.530   4.542   7.100  0.2651 -0.2305 -0.8701
   44CHL1    C8 3196   0.375   4.669   7.169  0.1127  0.1567  0.4856
   44CHL1    H8 3197   0.265   4.660   7.161  0.2203  0.4917 -2.4778
   44CHL1   C14 3198   0.416   4.656   7.313  0.1259  0.6949 -0.0449
   44CHL1   H14 3199   0.526   4.658   7.329 -0.0741  0.5968  1.5696
   44CHL1   C15 3200   0.375   4.527   7.395  0.0564  0.1332 -0.2491
   44CHL1  H15A 3201   0.269   4.505   7.370  0.1494  0.8358 -1.3815
   44CHL1  H15B 3202   0.434   4.435   7.373 -0.3534  0.1149 -1.3415
   44CHL1   C16 3203   0.384   4.569   7.541 -0.1819 -0.5049  0.1652
   44CHL1  H16A 3204   0.293   4.536   7.596 -2.1549  1.2659 -1.8282
   44CHL1  H16B 3205   0.465   4.518   7.597  0.9808  0.1715 -0.8653
   44CHL1   C17 3206   0.416   4.722   7.543 -0.2931 -0.4427  0.2372
   44CHL1   H17 3207   0.526   4.736   7.531 -0.5700  0.8973 -0.9907
   44CHL1   C13 3208   0.356   4.771   7.407 -0.0138 -0.2461 -0.4765
   44CHL1   C18 3209   0.199   4.775   7.414  0.0118  0.5242  0.2308
   44CHL1  H18A 3210   0.171   4.882   7.430  0.2140  0.3978  1.5888
   44CHL1  H18B 3211   0.162   4.735   7.317  5.0226 -1.9165 -1.0093
   44CHL1  H18C 3212   0.155   4.710   7.492 -1.0701  0.6503 -0.2686
   44CHL1   C12 3213   0.410   4.903   7.353 -0.0808  1.0154 -0.7273
   44CHL1  H12A 3214   0.366   4.980   7.419 -0.3621 -0.4150  0.8072
   44CHL1  H12B 3215   0.519   4.924   7.361  0.0108  0.8937 -1.5229
   44CHL1   C11 3216   0.374   4.925   7.204  0.2184  0.4891 -0.0122
   44CHL1  H11A 3217   0.264   4.943   7.205  0.3772  1.7654 -1.4698
   44CHL1  H11B 3218   0.417   5.020   7.167  1.2137 -0.3055 -0.9450
   44CHL1    C9 3219   0.414   4.805   7.109  0.5520 -0.3829  0.5262
   44CHL1    H9 3220   0.525   4.799   7.106  0.5222 -0.6338 -0.2592
   44CHL1   C10 3221   0.367   4.826   6.965 -0.0116 -0.1877  0.6779
   44CHL1   C19 3222   0.221   4.876   6.965  0.0309  0.4497  0.1377
   44CHL1  H19A 3223   0.155   4.821   7.035  0.8079 -1.3167 -0.4548
   44CHL1  H19B 3224   0.221   4.983   6.995  1.2008  0.6753 -0.5910
   44CHL1  H19C 3225   0.172   4.867   6.866  1.3061  0.6580 -0.5349
   44CHL1    C1 3226   0.459   4.927   6.894  0.0325  1.1617  0.0769
   44CHL1   H1A 3227   0.441   5.021   6.950  0.6231 -0.2889  2.8848
   44CHL1   H1B 3228   0.564   4.893   6.902 -0.3759 -1.0665 -2.7237
   44CHL1    C2 3229   0.425   4.951   6.746  0.0450  0.8156 -0.4841
   44CHL1   H2A 3230   0.494   5.029   6.707  0.2647  0.1156 -1.5547
   44CHL1   H2B 3231   0.324   4.996   6.740 -0.2683  0.0930 -0.6659
   44CHL1   C20 3232   0.377   4.792   7.675  0.0963  0.4860 -0.2736
   44CHL1   H20 3233   0.267   4.779   7.677  0.3305 -1.9679 -0.0339
   44CHL1   C21 3234   0.412   4.941   7.677 -1.0043 -0.4012  0.0500
   44CHL1  H21A 3235   0.394   4.984   7.777 -1.9482 -0.3286 -0.1440
   44CHL1  H21B 3236   0.352   4.995   7.600  0.3462 -0.6071 -1.2096
   44CHL1  H21C 3237   0.520   4.949   7.650 -1.4233 -0.5888 -1.8286
   44CHL1   C22 3238   0.424   4.727   7.806  0.2045 -0.4983 -0.9954
   44CHL1  H22A 3239   0.377   4.771   7.897  1.1302  0.6576 -1.0597
   44CHL1  H22B 3240   0.402   4.619   7.813 -0.7448 -0.2188  0.9606
   44CHL1   C23 3241   0.576   4.737   7.835 -0.0134 -0.2876  0.2694
   44CHL1  H23A 3242   0.627   4.685   7.751  1.3365 -0.5726  1.2338
   44CHL1  H23B 3243   0.619   4.839   7.830 -1.7338  0.4170 -1.8940
   44CHL1   C24 3244   0.620   4.674   7.967  0.4523 -0.0801  0.3261
   44CHL1  H24A 3245   0.617   4.753   8.044  0.2185  0.6325 -0.3996
   44CHL1  H24B 3246   0.551   4.600   8.012  0.9417 -0.1187  1.0231
   44CHL1   C25 3247   0.768   4.617   7.967  0.8462  0.1239 -0.0128
   44CHL1   H25 3248   0.805   4.573   7.872  0.0984 -0.8039  0.1075
   44CHL1   C26 3249   0.874   4.727   7.989 -0.7823  0.3278 -0.3220
   44CHL1  H26A 3250   0.976   4.695   7.956  0.6055  3.9640  0.0002
   44CHL1  H26B 3251   0.860   4.823   7.935 -0.0064 -0.0749 -1.2926
   44CHL1  H26C 3252   0.888   4.754   8.095 -0.9272  0.3723 -0.3145
   44CHL1   C27 3253   0.775   4.506   8.073 -0.3342  0.1864  0.5268
   44CHL1  H27A 3254   0.703   4.421   8.066 -0.9181  0.2800  3.8362
   44CHL1  H27B 3255   0.871   4.452   8.084 -1.5188 -1.6561  2.6562
   44CHL1  H27C 3256   0.755   4.552   8.172 -0.5272 -0.1612  0.6523
   45CHL1    C3 3257   1.613   3.095   6.736  0.5208 -0.7341 -0.2378
   45CHL1    H3 3258   1.514   3.133   6.769  0.5845  0.1124 -0.9713
   45CHL1    O3 3259   1.633   3.140   6.600 -0.3092 -1.0132  0.3714
   45CHL1   H3' 3260   1.547   3.137   6.557 -0.0386  1.6495 -0.5596
   45CHL1    C4 3261   1.720   3.166   6.820  0.5027  0.8875 -0.5683
   45CHL1   H4A 3262   1.821   3.140   6.782  1.1297 -1.8708  2.5409
   45CHL1   H4B 3263   1.715   3.277   6.818  1.3998  0.9430 -0.0794
   45CHL1    C5 3264   1.726   3.112   6.963 -0.4099 -0.0426  0.3347
   45CHL1    C6 3265   1.707   3.197   7.065  0.5086 -0.2130 -0.1374
   45CHL1    H6 3266   1.687   3.304   7.048  1.8108 -0.0946 -1.0593
   45CHL1    C7 3267   1.712   3.168   7.212 -0.5884 -0.0301  0.2045
   45CHL1   H7A 3268   1.775   3.241   7.267  1.9453 -0.7381 -1.5207
   45CHL1   H7B 3269   1.610   3.157   7.252 -0.1119 -1.7534  1.0453
   45CHL1    C8 3270   1.774   3.025   7.229 -0.5744 -1.4469 -0.3403
   45CHL1    H8 3271   1.883   3.040   7.239 -0.6015 -2.0274  1.0463
   45CHL1   C14 3272   1.744   2.974   7.368 -0.0752  0.0614 -0.2030
   45CHL1   H14 3273   1.633   2.970   7.376 -0.0441  0.4397  0.5770
   45CHL1   C15 3274   1.776   3.069   7.489 -0.1771 -0.1289 -0.0017
   45CHL1  H15A 3275   1.882   3.100   7.475 -0.3831  0.6183  0.0320
   45CHL1  H15B 3276   1.706   3.155   7.489 -2.4594 -1.8340 -2.0424
   45CHL1   C16 3277   1.763   2.978   7.603  0.4744  0.4926 -0.4845
   45CHL1  H16A 3278   1.840   2.985   7.683 -0.2277 -1.7948  0.4658
   45CHL1  H16B 3279   1.670   3.001   7.658 -0.6644 -0.3231 -2.0155
   45CHL1   C17 3280   1.741   2.834   7.553  0.2409  0.5970  0.0244
   45CHL1   H17 3281   1.631   2.818   7.541 -0.1342 -0.0871  3.3296
   45CHL1   C13 3282   1.795   2.842   7.411 -0.4263  0.3996 -0.4367
   45CHL1   C18 3283   1.947   2.823   7.402 -0.4449 -0.2661  0.4993
   45CHL1  H18A 3284   1.986   2.847   7.300 -0.4640 -1.1504  0.2767
   45CHL1  H18B 3285   2.000   2.902   7.460  0.4857  0.4680 -1.2552
   45CHL1  H18C 3286   1.983   2.724   7.437  1.1276  0.0780 -0.0317
   45CHL1   C12 3287   1.732   2.746   7.316 -0.8045  0.0144 -0.2590
   45CHL1  H12A 3288   1.768   2.646   7.349  0.0033  0.9170  1.7645
   45CHL1  H12B 3289   1.621   2.744   7.312 -0.8128  1.3266 -1.4002
   45CHL1   C11 3290   1.769   2.778   7.168 -0.8743  0.4315 -0.2276
   45CHL1  H11A 3291   1.876   2.749   7.156 -1.5429 -2.1081 -0.6327
   45CHL1  H11B 3292   1.712   2.710   7.102 -1.5170 -1.5577  2.2239
   45CHL1    C9 3293   1.729   2.923   7.130  1.0603 -0.4002  0.0246
   45CHL1    H9 3294   1.619   2.938   7.141  1.1766  0.4828 -0.0009
   45CHL1   C10 3295   1.744   2.964   6.984  0.3171 -0.0303  0.5219
   45CHL1   C19 3296   1.885   2.932   6.932 -0.0247 -0.3306 -0.5270
   45CHL1  H19A 3297   1.905   2.962   6.827  1.0535  0.9443  0.0070
   45CHL1  H19B 3298   1.964   2.992   6.982 -1.5552  2.2298 -1.0136
   45CHL1  H19C 3299   1.910   2.824   6.941  2.2340  0.2485  0.9418
   45CHL1    C1 3300   1.641   2.888   6.896 -0.2045 -0.2060  0.2591
   45CHL1   H1A 3301   1.649   2.777   6.907 -3.3177 -0.4454  1.1231
   45CHL1   H1B 3302   1.544   2.913   6.945 -0.8728  0.3240 -1.2870
   45CHL1    C2 3303   1.632   2.946   6.748 -0.1095  0.5703 -0.8579
   45CHL1   H2A 3304   1.550   2.883   6.706 -0.6391 -1.0258  2.2676
   45CHL1   H2B 3305   1.722   2.910   6.695  0.8132  0.7068  0.5763
   45CHL1   C20 3306   1.799   2.717   7.642 -0.2736 -0.1073  0.4750
   45CHL1   H20 3307   1.887   2.665   7.600 -0.4209 -0.6153  0.7859
   45CHL1   C21 3308   1.687   2.612   7.643  0.2125  0.9153 -0.3965
   45CHL1  H21A 3309   1.593   2.665   7.671  0.2581  1.1631 -0.7140
   45CHL1  H21B 3310   1.722   2.528   7.708 -0.9087 -0.0292 -0.9705
   45CHL1  H21C 3311   1.673   2.554   7.549 -0.0172  2.0449 -1.0693
   45CHL1   C22 3312   1.838   2.755   7.785 -0.3023 -0.6316  0.4569
   45CHL1  H22A 3313   1.934   2.812   7.787 -0.7459  0.1215  0.7885
   45CHL1  H22B 3314   1.758   2.820   7.826  1.9860  1.3763  2.1030
   45CHL1   C23 3315   1.862   2.640   7.879  0.4011 -0.2553  0.7230
   45CHL1  H23A 3316   1.771   2.577   7.888  0.1258 -0.1169 -0.8789
   45CHL1  H23B 3317   1.932   2.566   7.837  0.5354 -0.8339  1.9433
   45CHL1   C24 3318   1.903   2.696   8.015 -0.3561 -0.0609  0.1153
   45CHL1  H24A 3319   2.003   2.743   8.018 -0.9362  1.2933 -1.0353
   45CHL1  H24B 3320   1.837   2.783   8.032 -0.7168  0.6194 -3.9036
   45CHL1   C25 3321   1.884   2.607   8.140  0.9096 -0.4913  0.0106
   45CHL1   H25 3322   1.941   2.514   8.115  1.5694 -0.5547  1.6116
   45CHL1   C26 3323   1.947   2.666   8.263 -0.0695  0.3943  0.1829
   45CHL1  H26A 3324   1.880   2.745   8.303  1.1921  1.5223  0.1411
   45CHL1  H26B 3325   1.950   2.580   8.333 -2.6033 -0.8881 -1.1602
   45CHL1  H26C 3326   2.049   2.708   8.251  1.8618 -3.1563  2.6151
   45CHL1   C27 3327   1.740   2.571   8.172  0.0606  0.4514 -0.3339
   45CHL1  H27A 3328   1.734   2.512   8.265  0.6427 -0.6503 -0.9774
   45CHL1  H27B 3329   1.690   2.668   8.195  1.5218  0.6356  2.4414
   45CHL1  H27C 3330   1.694   2.514   8.088  0.0167 -0.1095  0.0716
   46CHL1    C3 3331   1.691   4.697   7.048 -0.3122 -0.0396  0.1262
   46CHL1    H3 3332   1.614   4.774   7.070  2.2587  2.6166  0.4906
   46CHL1    O3 3333   1.724   4.695   6.909  0.5495  0.2550  0.0997
   46CHL1   H3' 3334   1.777   4.620   6.884  0.3697  0.0142  0.4295
   46CHL1    C4 3335   1.819   4.732   7.123 -0.3213  0.1362  0.2199
   46CHL1   H4A 3336   1.905   4.669   7.090 -0.6054  1.1451 -2.7057
   46CHL1   H4B 3337   1.844   4.837   7.098  0.9550 -0.1036  0.3895
   46CHL1    C5 3338   1.802   4.719   7.276  0.5102  0.1854 -0.0928
   46CHL1    C6 3339   1.845   4.812   7.363  0.4993 -0.1297  0.1350
   46CHL1    H6 3340   1.896   4.896   7.313  0.5707 -1.2816 -1.8215
   46CHL1    C7 3341   1.828   4.812   7.507  0.3333  0.6177 -0.6577
   46CHL1   H7A 3342   1.921   4.854   7.550 -0.4368  1.4340  0.2517
   46CHL1   H7B 3343   1.744   4.878   7.540  1.4649  0.8652  1.9687
   46CHL1    C8 3344   1.789   4.676   7.562  0.6520 -0.5716 -0.2509
   46CHL1    H8 3345   1.883   4.617   7.559 -1.1938 -3.7577 -0.4286
   46CHL1   C14 3346   1.742   4.691   7.711  0.2179  0.3715  0.1501
   46CHL1   H14 3347   1.650   4.754   7.700 -0.0054 -0.2091 -1.5755
   46CHL1   C15 3348   1.828   4.768   7.813  0.0499  0.3150  0.1976
   46CHL1  H15A 3349   1.939   4.757   7.804  0.1767  1.5297  0.0357
   46CHL1  H15B 3350   1.813   4.878   7.804 -2.3677 -0.0606 -1.0637
   46CHL1   C16 3351   1.767   4.719   7.949  0.5954  0.1801 -0.3331
   46CHL1  H16A 3352   1.847   4.664   8.003  1.2744 -0.0271 -1.5185
   46CHL1  H16B 3353   1.727   4.798   8.017  2.0390  1.1414 -0.5551
   46CHL1   C17 3354   1.662   4.605   7.925  0.2394 -0.6704  0.7932
   46CHL1   H17 3355   1.560   4.649   7.920  0.6772  0.2318 -0.8776
   46CHL1   C13 3356   1.699   4.560   7.772  0.0961  0.4705 -0.9868
   46CHL1   C18 3357   1.826   4.465   7.781  0.9294 -0.6244 -0.8331
   46CHL1  H18A 3358   1.801   4.367   7.826  0.5214  1.1154  3.1330
   46CHL1  H18B 3359   1.874   4.450   7.682  0.7155  0.5768 -1.1329
   46CHL1  H18C 3360   1.896   4.515   7.852 -0.0032  0.3680 -0.5848
   46CHL1   C12 3361   1.588   4.501   7.686  0.0953 -0.1393  0.0608
   46CHL1  H12A 3362   1.567   4.398   7.722 -0.4887 -0.0620 -0.0593
   46CHL1  H12B 3363   1.499   4.567   7.693  1.1439  1.3890 -0.5686
   46CHL1   C11 3364   1.621   4.486   7.534  1.3673  0.3878 -0.8331
   46CHL1  H11A 3365   1.691   4.399   7.527 -1.2704 -2.5258  3.7349
   46CHL1  H11B 3366   1.522   4.463   7.488  1.0108 -1.2888  0.6706
   46CHL1    C9 3367   1.682   4.613   7.477  0.0057 -0.3565 -0.0339
   46CHL1    H9 3368   1.595   4.682   7.482  1.1880  1.2894 -1.1232
   46CHL1   C10 3369   1.724   4.601   7.329  0.4072  0.2919  0.1919
   46CHL1   C19 3370   1.824   4.475   7.318  0.8089  0.0581 -0.1823
   46CHL1  H19A 3371   1.767   4.380   7.319  0.8375 -0.0489 -2.8698
   46CHL1  H19B 3372   1.879   4.483   7.222  0.4213  4.8862 -0.2465
   46CHL1  H19C 3373   1.912   4.482   7.387  2.4956  0.5673 -2.2763
   46CHL1    C1 3374   1.599   4.565   7.237  0.7634  0.2677  0.2189
   46CHL1   H1A 3375   1.548   4.472   7.271  0.0623  0.7968  0.6468
   46CHL1   H1B 3376   1.519   4.640   7.255 -1.5095 -1.9675 -0.0929
   46CHL1    C2 3377   1.636   4.561   7.085  0.3270  0.4553 -0.4492
   46CHL1   H2A 3378   1.552   4.532   7.018 -2.2596 -0.7304  3.0407
   46CHL1   H2B 3379   1.706   4.475   7.084 -0.5870 -0.3045 -1.0455
   46CHL1   C20 3380   1.662   4.494   8.030  0.0511  0.0679  0.1389
   46CHL1   H20 3381   1.753   4.431   8.034  0.7490  0.9097 -1.6183
   46CHL1   C21 3382   1.557   4.388   7.981 -0.9418 -0.5752 -0.3567
   46CHL1  H21A 3383   1.469   4.448   7.947  1.0729  1.7662 -1.8052
   46CHL1  H21B 3384   1.520   4.327   8.065 -2.6151  1.5084  0.5280
   46CHL1  H21C 3385   1.600   4.319   7.905 -1.1629  0.6649 -1.6620
   46CHL1   C22 3386   1.637   4.548   8.169  0.5621 -0.0864 -0.1357
   46CHL1  H22A 3387   1.707   4.631   8.191 -0.5457  1.1574 -1.1138
   46CHL1  H22B 3388   1.532   4.585   8.175  1.0254  1.1101  0.9077
   46CHL1   C23 3389   1.649   4.437   8.274  0.5788  0.0439  1.1270
   46CHL1  H23A 3390   1.549   4.435   8.322 -0.9801  2.2160 -1.7848
   46CHL1  H23B 3391   1.680   4.339   8.230  0.6437  1.2217 -1.6560
   46CHL1   C24 3392   1.738   4.467   8.393  0.0850  0.1787  0.4740
   46CHL1  H24A 3393   1.845   4.473   8.363  0.2091  1.0017  1.0630
   46CHL1  H24B 3394   1.708   4.561   8.444 -2.1929  0.7989 -1.8239
   46CHL1   C25 3395   1.737   4.351   8.502  0.7335 -0.1335 -0.1610
   46CHL1   H25 3396   1.633   4.338   8.540  1.1557 -0.7540  0.7932
   46CHL1   C26 3397   1.791   4.215   8.451  0.2340  0.0663 -0.9828
   46CHL1  H26A 3398   1.895   4.221   8.412  1.1634  0.1370  1.3607
   46CHL1  H26B 3399   1.792   4.145   8.536  0.5615 -0.9111 -1.7746
   46CHL1  H26C 3400   1.733   4.170   8.368  2.5957  1.0417 -3.3083
   46CHL1   C27 3401   1.821   4.388   8.624 -0.0251 -0.3187 -0.4426
   46CHL1  H27A 3402   1.814   4.308   8.702 -0.1014 -0.4677 -0.6036
   46CHL1  H27B 3403   1.927   4.412   8.602 -0.1699  0.6941 -0.0552
   46CHL1  H27C 3404   1.773   4.477   8.669 -0.2410 -1.3435  1.4859
   47CHL1    C3 3405   0.927   4.368   6.572  0.2060  0.2781 -0.6367
   47CHL1    H3 3406   1.023   4.406   6.614  0.5504 -0.6843 -0.5213
   47CHL1    O3 3407   0.928   4.375   6.431  0.3274  0.4524 -0.5863
   47CHL1   H3' 3408   0.870   4.450   6.417 -0.9198 -0.6336 -1.4487
   47CHL1    C4 3409   0.911   4.225   6.601  0.1097 -0.3220 -0.3032
   47CHL1   H4A 3410   0.818   4.194   6.549  0.4158  0.6872 -1.4953
   47CHL1   H4B 3411   0.997   4.175   6.551 -0.7370 -1.3582 -0.7652
   47CHL1    C5 3412   0.899   4.208   6.755  0.2093  0.3331 -0.1077
   47CHL1    C6 3413   0.987   4.125   6.812 -0.4107  0.5416  0.5424
   47CHL1    H6 3414   1.052   4.080   6.736  0.3557  1.7347  0.4693
   47CHL1    C7 3415   0.996   4.095   6.952 -0.5490 -0.2786  0.7941
   47CHL1   H7A 3416   0.998   3.985   6.962 -0.2204 -0.4015 -0.4735
   47CHL1   H7B 3417   1.097   4.117   6.992  0.2054 -0.7962 -0.7808
   47CHL1    C8 3418   0.879   4.157   7.035 -0.1691 -0.5721 -0.0711
   47CHL1    H8 3419   0.793   4.087   7.025 -0.0978 -0.9097  1.4392
   47CHL1   C14 3420   0.928   4.165   7.176 -0.1270  0.1953 -0.5962
   47CHL1   H14 3421   1.014   4.235   7.170  0.7607 -0.9766 -4.3031
   47CHL1   C15 3422   0.983   4.028   7.233 -0.3183 -0.0218 -0.1125
   47CHL1  H15A 3423   0.931   3.943   7.185  0.8689 -0.9910  0.2712
   47CHL1  H15B 3424   1.090   4.032   7.201 -0.2650 -0.4483  0.0015
   47CHL1   C16 3425   0.975   4.047   7.379  0.1612  1.1411  0.7026
   47CHL1  H16A 3426   0.923   3.958   7.420  0.0100 -0.8050 -3.3060
   47CHL1  H16B 3427   1.076   4.047   7.426 -0.4792  0.7075  2.1207
   47CHL1   C17 3428   0.901   4.181   7.404 -0.6174  0.1183 -0.2252
   47CHL1   H17 3429   0.978   4.256   7.432  0.1986 -1.2320  1.3754
   47CHL1   C13 3430   0.827   4.209   7.274 -0.7925  0.1490 -0.1345
   47CHL1   C18 3431   0.697   4.121   7.265  0.0773  0.4021  0.5479
   47CHL1  H18A 3432   0.653   4.131   7.163 -0.0278  0.1879  0.5714
   47CHL1  H18B 3433   0.722   4.014   7.283 -1.0147 -0.5677 -2.8468
   47CHL1  H18C 3434   0.623   4.150   7.342  1.6173  0.9334  1.8840
   47CHL1   C12 3435   0.780   4.351   7.236 -0.8011 -0.8592  0.4155
   47CHL1  H12A 3436   0.690   4.389   7.288 -0.9341  0.5992 -0.7882
   47CHL1  H12B 3437   0.863   4.423   7.254 -1.1885 -0.2245 -0.2776
   47CHL1   C11 3438   0.752   4.369   7.080  0.2007  0.0818 -0.5850
   47CHL1  H11A 3439   0.645   4.343   7.064  0.3216 -1.3533  0.7690
   47CHL1  H11B 3440   0.763   4.479   7.065  0.2320  0.1632  0.0280
   47CHL1    C9 3441   0.848   4.292   6.983  0.4096 -0.6605 -0.1966
   47CHL1    H9 3442   0.943   4.349   6.989 -0.0609  0.0341  0.9125
   47CHL1   C10 3443   0.803   4.289   6.837 -0.2623 -0.6380  0.5291
   47CHL1   C19 3444   0.655   4.239   6.819  0.2431  0.1437 -0.2020
   47CHL1  H19A 3445   0.626   4.209   6.716 -0.1219 -0.6373  0.1192
   47CHL1  H19B 3446   0.652   4.147   6.881 -1.1196  2.3091  3.2924
   47CHL1  H19C 3447   0.576   4.306   6.860  0.8617  0.2946  0.7967
   47CHL1    C1 3448   0.812   4.435   6.778  0.9267  0.1436 -0.7799
   47CHL1   H1A 3449   0.719   4.482   6.818  1.6484  1.1661 -0.2531
   47CHL1   H1B 3450   0.896   4.492   6.823 -0.0901  0.9331  0.1789
   47CHL1    C2 3451   0.798   4.439   6.626 -0.1128  0.6244 -0.1772
   47CHL1   H2A 3452   0.783   4.547   6.603 -1.2464  0.1852 -1.6179
   47CHL1   H2B 3453   0.715   4.374   6.592  1.3459 -1.2987 -0.2268
   47CHL1   C20 3454   0.819   4.177   7.535  0.3545  0.2312 -0.4603
   47CHL1   H20 3455   0.728   4.115   7.519  0.1100  0.9415 -2.1259
   47CHL1   C21 3456   0.777   4.324   7.566 -0.3685 -0.4830 -0.4395
   47CHL1  H21A 3457   0.716   4.364   7.482 -0.2715  2.0481  0.5981
   47CHL1  H21B 3458   0.864   4.393   7.573  0.1727 -1.0932 -1.0437
   47CHL1  H21C 3459   0.721   4.333   7.662 -0.2992  0.4283 -0.4689
   47CHL1   C22 3460   0.908   4.121   7.657  0.5258 -0.5899 -0.3072
   47CHL1  H22A 3461   0.947   4.019   7.638 -1.2006 -1.5688  1.0522
   47CHL1  H22B 3462   0.989   4.192   7.684 -2.2538  2.8722 -0.3110
   47CHL1   C23 3463   0.823   4.121   7.790 -0.0709  0.3730  1.0658
   47CHL1  H23A 3464   0.798   4.221   7.831  0.1793  0.4786  0.9637
   47CHL1  H23B 3465   0.729   4.065   7.772 -0.4409  0.2883  3.0633
   47CHL1   C24 3466   0.902   4.045   7.908 -0.7696 -0.0867  0.4682
   47CHL1  H24A 3467   0.918   3.938   7.886  0.3494  0.4869 -1.9820
   47CHL1  H24B 3468   1.000   4.097   7.896 -0.8622  0.0382  0.2420
   47CHL1   C25 3469   0.853   4.064   8.043 -0.3249 -0.0662 -0.6438
   47CHL1   H25 3470   0.853   4.174   8.053 -0.3340 -0.0927 -0.3438
   47CHL1   C26 3471   0.704   4.011   8.052  0.1996  0.3727  0.1720
   47CHL1  H26A 3472   0.661   3.973   7.957  0.5301 -0.1082  0.2112
   47CHL1  H26B 3473   0.708   3.941   8.138  0.7718  1.2729  0.8905
   47CHL1  H26C 3474   0.646   4.092   8.102 -0.4393 -0.8944  1.5460
   47CHL1   C27 3475   0.952   4.002   8.145  0.5129  0.8546  0.4216
   47CHL1  H27A 3476   1.055   4.027   8.112 -0.2300  2.2612 -0.9738
   47CHL1  H27B 3477   0.926   4.030   8.249  1.2871  1.7110  0.3947
   47CHL1  H27C 3478   0.941   3.892   8.150  1.1489  0.7811  0.2102
   48CHL1    C3 3479   5.008   0.719   6.321 -0.2357  0.1585 -0.4472
   48CHL1    H3 3480   5.056   0.628   6.364 -0.8621 -0.6403 -1.3993
   48CHL1    O3 3481   4.988   0.707   6.183  0.2304  0.3917  0.4810
   48CHL1   H3' 3482   4.928   0.776   6.154  0.7711  0.7556  0.2152
   48CHL1    C4 3483   4.877   0.735   6.394 -0.2296  0.2436  0.8556
   48CHL1   H4A 3484   4.829   0.822   6.344  1.6625 -0.2875 -2.1515
   48CHL1   H4B 3485   4.823   0.640   6.375 -0.0656  0.8539 -3.6669
   48CHL1    C5 3486   4.911   0.763   6.538  0.2164  0.0800 -0.5591
   48CHL1    C6 3487   4.848   0.690   6.636 -0.2898 -0.8684 -0.1974
   48CHL1    H6 3488   4.784   0.605   6.606  1.7821 -2.1149 -1.3004
   48CHL1    C7 3489   4.865   0.722   6.785 -0.5695 -0.5695 -0.2324
   48CHL1   H7A 3490   4.762   0.715   6.826 -0.9241  0.7970 -0.8555
   48CHL1   H7B 3491   4.940   0.658   6.836  1.3640 -0.0386 -2.2917
   48CHL1    C8 3492   4.914   0.864   6.816  0.5014 -0.3899 -0.1137
   48CHL1    H8 3493   4.835   0.941   6.802  0.2040  0.0779  3.2933
   48CHL1   C14 3494   4.961   0.856   6.964  0.1212  0.7439  0.5524
   48CHL1   H14 3495   5.058   0.800   6.965 -0.0574  0.3514 -1.0715
   48CHL1   C15 3496   4.867   0.798   7.071  0.2454 -0.5549  0.5639
   48CHL1  H15A 3497   4.762   0.828   7.058  0.2785 -1.0978 -1.1332
   48CHL1  H15B 3498   4.852   0.688   7.063  1.9982 -0.7027 -1.9271
   48CHL1   C16 3499   4.928   0.843   7.204  0.0683 -0.7989  0.4910
   48CHL1  H16A 3500   4.849   0.887   7.270 -1.0634  1.3778 -2.1254
   48CHL1  H16B 3501   4.974   0.756   7.255  0.4855 -1.5717 -1.1395
   48CHL1   C17 3502   5.042   0.951   7.167 -0.0092  0.4781 -0.2848
   48CHL1   H17 3503   5.139   0.895   7.167 -2.0406 -3.4115  1.0623
   48CHL1   C13 3504   5.014   0.990   7.022 -0.4537 -0.1487 -0.1975
   48CHL1   C18 3505   4.903   1.097   7.022  0.2997  0.5564  0.1027
   48CHL1  H18A 3506   4.801   1.064   7.050 -0.5419  1.7412 -1.3782
   48CHL1  H18B 3507   4.937   1.182   7.084 -1.4803  0.8376  0.7429
   48CHL1  H18C 3508   4.896   1.150   6.925  0.5963  1.9060  0.8034
   48CHL1   C12 3509   5.136   1.038   6.925 -0.2792 -0.4681  0.2800
   48CHL1  H12A 3510   5.161   1.140   6.962  0.5289 -0.6838  0.3372
   48CHL1  H12B 3511   5.216   0.965   6.949 -0.2641 -0.8082 -0.7715
   48CHL1   C11 3512   5.113   1.026   6.776  0.1063 -0.4843  0.4977
   48CHL1  H11A 3513   5.051   1.110   6.740 -1.3272 -2.7809 -2.8057
   48CHL1  H11B 3514   5.206   1.032   6.716  0.2459 -1.2199  0.6300
   48CHL1    C9 3515   5.033   0.897   6.730 -0.0154  0.2094  0.6736
   48CHL1    H9 3516   5.113   0.822   6.745  1.7168  0.7115 -4.2706
   48CHL1   C10 3517   4.998   0.882   6.575 -0.1789 -0.0282  0.1286
   48CHL1   C19 3518   4.915   1.003   6.532  0.2105 -0.0004  0.6572
   48CHL1  H19A 3519   4.876   1.003   6.428 -0.1605 -0.9640  0.7892
   48CHL1  H19B 3520   4.832   1.008   6.606  0.4581 -2.3338  1.1728
   48CHL1  H19C 3521   4.976   1.093   6.559 -0.2405  1.1361 -1.8895
   48CHL1    C1 3522   5.120   0.875   6.488 -1.0961 -0.1012  0.1813
   48CHL1   H1A 3523   5.171   0.972   6.505 -0.6552 -0.4459  0.8682
   48CHL1   H1B 3524   5.186   0.795   6.529 -2.2607 -1.1324  0.1204
   48CHL1    C2 3525   5.104   0.842   6.337 -0.0359  0.0689 -0.7901
   48CHL1   H2A 3526   5.199   0.842   6.279  0.5010  4.1708 -0.2264
   48CHL1   H2B 3527   5.059   0.933   6.291 -1.5415  1.3830  2.9242
   48CHL1   C20 3528   5.056   1.050   7.281 -0.7237 -0.5816 -0.2649
   48CHL1   H20 3529   4.968   1.117   7.273  0.1672  0.8530  1.4138
   48CHL1   C21 3530   5.175   1.147   7.251 -0.2446 -0.2685 -0.2685
   48CHL1  H21A 3531   5.211   1.202   7.340  1.9999 -0.5197 -0.9549
   48CHL1  H21B 3532   5.145   1.234   7.190  0.2417  0.3396  0.3433
   48CHL1  H21C 3533   5.255   1.087   7.202  0.1820  1.4507 -1.7464
   48CHL1   C22 3534   5.059   0.984   7.418 -0.9765 -0.1459 -0.5347
   48CHL1  H22A 3535   4.974   0.918   7.445 -0.5991 -0.6934 -0.6594
   48CHL1  H22B 3536   5.145   0.914   7.428  1.2241  2.2042 -1.8417
   48CHL1   C23 3537   5.057   1.082   7.537  0.0790 -0.4739 -0.3211
   48CHL1  H23A 3538   5.143   1.152   7.537  0.2378 -0.6696 -0.1883
   48CHL1  H23B 3539   4.964   1.143   7.532  0.2031 -0.3834 -1.7340
   48CHL1   C24 3540   5.047   1.011   7.675  0.0839 -0.2464  0.4388
   48CHL1  H24A 3541   4.954   0.950   7.666 -0.7244  1.2189 -2.2921
   48CHL1  H24B 3542   5.143   0.956   7.685  1.2300  1.6480  0.3547
   48CHL1   C25 3543   5.040   1.106   7.796  0.0390 -0.4053 -0.2203
   48CHL1   H25 3544   5.136   1.161   7.799  1.1313 -2.2309 -0.7350
   48CHL1   C26 3545   4.922   1.209   7.779 -0.4711  0.3724 -0.1706
   48CHL1  H26A 3546   4.955   1.292   7.713 -3.7176  1.1764 -0.9456
   48CHL1  H26B 3547   4.834   1.156   7.737  1.0977 -1.2232 -1.6174
   48CHL1  H26C 3548   4.897   1.253   7.878  0.1422  1.6156 -0.5515
   48CHL1   C27 3549   5.016   1.033   7.930 -0.0186  0.0762  0.5739
   48CHL1  H27A 3550   5.011   1.106   8.014  0.0529  1.3027 -0.4403
   48CHL1  H27B 3551   4.917   0.983   7.933  0.4493 -0.8044  1.9071
   48CHL1  H27C 3552   5.097   0.960   7.947  1.6661  2.0879  1.6602
   49CHL1    C3 3553   4.032   1.662   6.604 -0.1064  0.2525 -0.5631
   49CHL1    H3 3554   4.134   1.704   6.617  0.1976 -0.8345  0.7765
   49CHL1    O3 3555   4.004   1.639   6.468 -0.4214 -0.5275  0.0887
   49CHL1   H3' 3556   4.008   1.724   6.423 -0.1747 -1.3411 -1.4992
   49CHL1    C4 3557   4.039   1.526   6.670  0.0253 -0.3864 -0.0838
   49CHL1   H4A 3558   3.946   1.473   6.638 -1.2097  0.9317  1.1734
   49CHL1   H4B 3559   4.127   1.473   6.628  1.1080  0.2402  1.2992
   49CHL1    C5 3560   4.041   1.523   6.821  0.1775 -0.3153 -0.0910
   49CHL1    C6 3561   4.128   1.450   6.886 -0.4887 -0.3721  0.1578
   49CHL1    H6 3562   4.215   1.404   6.835  1.2979  0.2060  2.4874
   49CHL1    C7 3563   4.119   1.432   7.033  0.8424 -0.2503  0.0294
   49CHL1   H7A 3564   4.124   1.322   7.050 -0.2973 -0.3815 -0.4282
   49CHL1   H7B 3565   4.204   1.483   7.083 -0.8712  0.4902  2.3417
   49CHL1    C8 3566   3.989   1.493   7.097  0.0034 -0.1145 -0.2292
   49CHL1    H8 3567   3.905   1.424   7.075 -2.7712  2.2720  2.1097
   49CHL1   C14 3568   3.999   1.503   7.248 -0.1737  0.2401  0.3928
   49CHL1   H14 3569   4.072   1.584   7.271 -1.5652  1.7824 -0.4317
   49CHL1   C15 3570   4.039   1.382   7.332 -0.1595 -1.0775 -0.3990
   49CHL1  H15A 3571   3.990   1.282   7.320 -0.6305 -0.9873  0.6497
   49CHL1  H15B 3572   4.150   1.377   7.335 -0.0660  0.4522 -0.7827
   49CHL1   C16 3573   3.988   1.419   7.473  0.3932  0.2767  0.2016
   49CHL1  H16A 3574   3.925   1.335   7.510 -2.6430  2.0450 -0.6004
   49CHL1  H16B 3575   4.073   1.425   7.544  0.6116 -0.9761  0.0545
   49CHL1   C17 3576   3.910   1.548   7.467  0.0889 -0.3471  0.1129
   49CHL1   H17 3577   3.984   1.630   7.480  1.5554 -1.5023 -0.6256
   49CHL1   C13 3578   3.870   1.546   7.319  0.0912  0.2816  0.6827
   49CHL1   C18 3579   3.756   1.447   7.276 -0.1605  0.2409  0.1448
   49CHL1  H18A 3580   3.722   1.451   7.171  0.1935 -3.0697 -0.1904
   49CHL1  H18B 3581   3.786   1.344   7.304  1.3633  0.3618 -0.9711
   49CHL1  H18C 3582   3.670   1.483   7.336 -0.6721  0.6421 -0.8105
   49CHL1   C12 3583   3.829   1.688   7.270 -0.1631 -0.1581 -0.1432
   49CHL1  H12A 3584   3.734   1.734   7.305 -0.2225  1.9082 -2.7411
   49CHL1  H12B 3585   3.908   1.759   7.303 -2.0338  1.3423  1.3196
   49CHL1   C11 3586   3.837   1.701   7.116  0.5346  0.3583  0.0706
   49CHL1  H11A 3587   3.742   1.647   7.093  0.7222 -0.8505  1.9281
   49CHL1  H11B 3588   3.837   1.809   7.091  2.1144  0.4813  0.4702
   49CHL1    C9 3589   3.956   1.628   7.037  0.2320 -0.7443  0.4438
   49CHL1    H9 3590   4.054   1.680   7.046  1.6210 -3.5140  3.3362
   49CHL1   C10 3591   3.933   1.610   6.886 -0.4699  0.1354  0.4123
   49CHL1   C19 3592   3.795   1.534   6.862 -0.2451  0.2833 -0.2460
   49CHL1  H19A 3593   3.767   1.526   6.755 -2.0637  2.1201  0.0230
   49CHL1  H19B 3594   3.795   1.432   6.906  1.0701  0.0513 -0.7483
   49CHL1  H19C 3595   3.705   1.586   6.901 -0.8227 -0.7514 -0.1614
   49CHL1    C1 3596   3.920   1.754   6.812 -0.3521  0.6197 -0.0634
   49CHL1   H1A 3597   3.837   1.815   6.853  0.5938  1.9158  0.0028
   49CHL1   H1B 3598   4.012   1.809   6.843  0.6919 -0.1574 -1.6301
   49CHL1    C2 3599   3.923   1.755   6.659  0.6863 -0.2251  0.0136
   49CHL1   H2A 3600   3.943   1.859   6.624  0.9014 -0.3906 -0.3597
   49CHL1   H2B 3601   3.827   1.718   6.620 -0.2004  2.4350 -0.5614
   49CHL1   C20 3602   3.810   1.569   7.582 -0.5340 -0.1163  0.0569
   49CHL1   H20 3603   3.715   1.524   7.546 -0.1364 -1.2208  0.3552
   49CHL1   C21 3604   3.781   1.726   7.599 -0.1161  0.0047 -0.0556
   49CHL1  H21A 3605   3.767   1.785   7.506 -2.4057 -1.4608 -0.7127
   49CHL1  H21B 3606   3.860   1.774   7.660 -1.1666  0.6163  0.8712
   49CHL1  H21C 3607   3.687   1.735   7.658 -0.2999 -0.6677 -0.2363
   49CHL1   C22 3608   3.849   1.507   7.717 -0.4272 -0.5277 -0.4388
   49CHL1  H22A 3609   3.869   1.398   7.710 -1.0864 -0.6689 -0.1462
   49CHL1  H22B 3610   3.936   1.562   7.761 -1.3348 -0.6697  1.6781
   49CHL1   C23 3611   3.740   1.513   7.824  0.3001 -0.7706 -1.2324
   49CHL1  H23A 3612   3.748   1.616   7.864 -0.2861 -0.8131 -1.0014
   49CHL1  H23B 3613   3.639   1.511   7.777  0.1542 -2.0122 -0.9046
   49CHL1   C24 3614   3.744   1.417   7.944 -0.2770  0.1169 -0.2087
   49CHL1  H24A 3615   3.721   1.312   7.916 -1.6952 -0.2243  1.9611
   49CHL1  H24B 3616   3.844   1.421   7.992 -1.3380 -0.3471  2.1578
   49CHL1   C25 3617   3.636   1.443   8.052 -0.2470 -0.1287  0.5366
   49CHL1   H25 3618   3.537   1.465   8.007  0.2945 -0.3257 -0.7779
   49CHL1   C26 3619   3.621   1.322   8.143 -0.2934  0.6487 -0.5846
   49CHL1  H26A 3620   3.550   1.336   8.227 -2.7769 -1.0984 -2.2688
   49CHL1  H26B 3621   3.558   1.244   8.094 -2.9415  2.2118  0.1414
   49CHL1  H26C 3622   3.720   1.283   8.177 -0.5241  0.4871 -0.0874
   49CHL1   C27 3623   3.674   1.559   8.129 -0.6935 -0.1238 -0.6158
   49CHL1  H27A 3624   3.613   1.564   8.222 -0.7779  0.1301 -0.6854
   49CHL1  H27B 3625   3.783   1.554   8.152 -0.7375 -1.8086 -0.6324
   49CHL1  H27C 3626   3.673   1.652   8.068  0.4279 -0.3097 -0.9403
   50CHL1    C3 3627   3.482   3.536   6.771 -0.4473  0.5381 -0.5180
   50CHL1    H3 3628   3.458   3.642   6.752 -1.8805  0.6246  1.4330
   50CHL1    O3 3629   3.479   3.452   6.654 -0.1389  0.1475 -0.1424
   50CHL1   H3' 3630   3.567   3.442   6.618 -0.0881  0.2189 -0.0378
   50CHL1    C4 3631   3.620   3.536   6.840 -0.3101  0.4942  0.1949
   50CHL1   H4A 3632   3.635   3.427   6.854 -2.3056 -0.0517 -1.4323
   50CHL1   H4B 3633   3.697   3.582   6.775  1.2915 -1.4404  0.6216
   50CHL1    C5 3634   3.610   3.597   6.977 -0.3730 -0.3822  0.2126
   50CHL1    C6 3635   3.696   3.700   7.005 -0.8672 -0.1778  0.7706
   50CHL1    H6 3636   3.777   3.725   6.935 -0.2442 -2.8859  0.4040
   50CHL1    C7 3637   3.708   3.761   7.142  0.0612  0.2744  0.2075
   50CHL1   H7A 3638   3.814   3.744   7.174 -0.6418 -3.1160  1.1253
   50CHL1   H7B 3639   3.687   3.870   7.136 -2.6434 -0.2362 -0.6384
   50CHL1    C8 3640   3.622   3.697   7.251 -0.6043  0.1487 -0.0885
   50CHL1    H8 3641   3.668   3.603   7.290  0.3272  0.9844  0.8999
   50CHL1   C14 3642   3.607   3.791   7.366 -0.7860 -0.9851 -0.1811
   50CHL1   H14 3643   3.552   3.877   7.321  1.9166  1.0451  0.1282
   50CHL1   C15 3644   3.735   3.853   7.430  0.1269 -0.6027  0.4917
   50CHL1  H15A 3645   3.801   3.770   7.462 -0.7904 -0.3545  3.2310
   50CHL1  H15B 3646   3.782   3.917   7.352 -0.4108 -2.3644 -1.3581
   50CHL1   C16 3647   3.677   3.910   7.561  0.0269  0.0756 -0.1267
   50CHL1  H16A 3648   3.747   3.881   7.643  1.1693  1.1262 -0.6910
   50CHL1  H16B 3649   3.682   4.021   7.554 -0.6449  0.1421  0.3778
   50CHL1   C17 3650   3.532   3.856   7.570  0.0823  0.2663 -0.9144
   50CHL1   H17 3651   3.478   3.935   7.514  1.5662  0.6997 -1.7766
   50CHL1   C13 3652   3.525   3.740   7.475  0.2027  0.4891 -0.1572
   50CHL1   C18 3653   3.591   3.617   7.537  0.0007 -0.0320 -0.0828
   50CHL1  H18A 3654   3.520   3.579   7.613  2.6752 -2.2140  1.4945
   50CHL1  H18B 3655   3.604   3.529   7.470 -0.5987 -0.7267  0.7046
   50CHL1  H18C 3656   3.683   3.634   7.596 -0.7007 -1.7584  1.6039
   50CHL1   C12 3657   3.381   3.703   7.422 -0.4052  0.6643 -0.4223
   50CHL1  H12A 3658   3.310   3.664   7.498 -1.6109  0.1042 -1.7687
   50CHL1  H12B 3659   3.341   3.793   7.371 -0.0495 -0.1472 -2.2221
   50CHL1   C11 3660   3.393   3.595   7.305  0.3452  0.0924 -0.0521
   50CHL1  H11A 3661   3.431   3.505   7.358  1.9391  0.3426 -0.7180
   50CHL1  H11B 3662   3.292   3.579   7.262  0.3884 -2.1272  0.5761
   50CHL1    C9 3663   3.485   3.654   7.195 -0.1611  0.5312 -0.3620
   50CHL1    H9 3664   3.437   3.747   7.159  0.7631 -0.1231 -3.6598
   50CHL1   C10 3665   3.497   3.559   7.073  0.0732  0.7896 -0.2067
   50CHL1   C19 3666   3.540   3.419   7.121 -0.2815 -0.2397 -0.1174
   50CHL1  H19A 3667   3.471   3.362   7.187  0.1032  0.5293  0.9667
   50CHL1  H19B 3668   3.558   3.350   7.036 -0.1114  0.5113 -0.7036
   50CHL1  H19C 3669   3.640   3.436   7.167  0.6734  0.1902 -2.2151
   50CHL1    C1 3670   3.362   3.556   7.001 -0.1106 -0.2229  0.1633
   50CHL1   H1A 3671   3.284   3.511   7.065  0.7006 -0.3513  1.0980
   50CHL1   H1B 3672   3.342   3.663   6.981 -1.7719 -0.2421  1.5538
   50CHL1    C2 3673   3.364   3.486   6.870  0.0734  0.6049  0.5585
   50CHL1   H2A 3674   3.267   3.502   6.819 -0.3798  0.0563  1.2328
   50CHL1   H2B 3675   3.368   3.377   6.889 -1.6637 -0.6114 -4.5545
   50CHL1   C20 3676   3.463   3.837   7.705  0.4633  0.0589  0.0913
   50CHL1   H20 3677   3.410   3.739   7.696 -0.5387  0.3849  2.0195
   50CHL1   C21 3678   3.366   3.952   7.727 -0.0958 -0.0303  0.0628
   50CHL1  H21A 3679   3.414   4.051   7.741 -0.4569  0.8487 -3.7259
   50CHL1  H21B 3680   3.306   3.946   7.820  0.0016  0.9897  0.2081
   50CHL1  H21C 3681   3.298   3.962   7.639  0.2351  1.8310 -0.0319
   50CHL1   C22 3682   3.561   3.813   7.824 -0.1447  0.1645 -0.3937
   50CHL1  H22A 3683   3.624   3.727   7.794  0.5765  0.6235 -0.2158
   50CHL1  H22B 3684   3.632   3.898   7.832 -0.2031  0.3607 -1.7145
   50CHL1   C23 3685   3.480   3.785   7.951  0.3294  0.6808  0.6601
   50CHL1  H23A 3686   3.463   3.881   8.004  2.8399  0.4368  2.0609
   50CHL1  H23B 3687   3.380   3.742   7.927  0.6953  0.3557 -0.3422
   50CHL1   C24 3688   3.535   3.690   8.055 -0.2605 -0.3352 -0.2066
   50CHL1  H24A 3689   3.540   3.586   8.016 -1.8690 -2.0081  3.5438
   50CHL1  H24B 3690   3.634   3.729   8.086 -0.9935  1.5533 -0.1091
   50CHL1   C25 3691   3.464   3.679   8.195 -0.1097  0.4173 -0.3728
   50CHL1   H25 3692   3.364   3.640   8.167 -0.3231  0.6527  0.0582
   50CHL1   C26 3693   3.519   3.562   8.287 -0.8351  1.0873  0.7425
   50CHL1  H26A 3694   3.546   3.471   8.229 -3.1194  0.8044  0.0029
   50CHL1  H26B 3695   3.598   3.580   8.363 -0.9717 -1.3921  1.5673
   50CHL1  H26C 3696   3.436   3.520   8.347 -0.9183  1.4478  0.8826
   50CHL1   C27 3697   3.450   3.810   8.271 -0.0015 -0.3578 -0.1628
   50CHL1  H27A 3698   3.536   3.808   8.341  0.3416 -2.0064 -0.5799
   50CHL1  H27B 3699   3.460   3.899   8.206 -2.2909 -1.0439 -1.5564
   50CHL1  H27C 3700   3.348   3.817   8.316 -0.9924 -2.3159 -1.9254
   51CHL1    C3 3701   3.010   3.306   6.904 -0.2187 -0.5011  0.7463
   51CHL1    H3 3702   3.049   3.410   6.897  0.8721 -0.9845 -1.3988
   51CHL1    O3 3703   3.041   3.250   6.776 -0.2517  0.1760 -0.2524
   51CHL1   H3' 3704   3.008   3.161   6.792  0.7709 -0.1104  0.3477
   51CHL1    C4 3705   3.068   3.221   7.023  0.5605 -0.9777  0.1076
   51CHL1   H4A 3706   3.015   3.124   7.014 -2.8090  0.5025  2.1488
   51CHL1   H4B 3707   3.175   3.192   7.011  0.8145  0.2117 -0.7334
   51CHL1    C5 3708   3.044   3.285   7.157 -0.1871 -0.0896  0.5991
   51CHL1    C6 3709   3.144   3.308   7.246  0.0581 -0.0647  0.0510
   51CHL1    H6 3710   3.250   3.280   7.239  0.0047 -0.2408 -0.0581
   51CHL1    C7 3711   3.109   3.364   7.385 -0.3174 -0.5151 -0.5813
   51CHL1   H7A 3712   3.140   3.283   7.455 -0.7729 -1.9307 -1.9684
   51CHL1   H7B 3713   3.159   3.461   7.403 -1.7576  0.1501 -0.0741
   51CHL1    C8 3714   2.962   3.379   7.418  0.0390 -0.4038 -0.6501
   51CHL1    H8 3715   2.921   3.279   7.447  0.0462 -0.2469 -0.0732
   51CHL1   C14 3716   2.937   3.471   7.538 -0.2193  0.2984  1.2826
   51CHL1   H14 3717   2.971   3.575   7.517  1.2039  0.0720  2.3488
   51CHL1   C15 3718   3.013   3.435   7.666  0.0454 -0.0946  0.3385
   51CHL1  H15A 3719   3.015   3.325   7.677 -3.5658 -0.5272 -1.7607
   51CHL1  H15B 3720   3.118   3.471   7.662 -0.7061  2.6972  2.6775
   51CHL1   C16 3721   2.930   3.507   7.782  0.1078  0.2683  0.1568
   51CHL1  H16A 3722   2.910   3.432   7.862  1.1837  1.2721  1.4194
   51CHL1  H16B 3723   2.994   3.588   7.821 -0.3542 -0.0854  1.7533
   51CHL1   C17 3724   2.802   3.563   7.705 -0.2510 -0.4540  0.1472
   51CHL1   H17 3725   2.829   3.666   7.671 -0.9772 -0.4644 -0.4946
   51CHL1   C13 3726   2.791   3.489   7.572  0.1902  0.5318 -0.6846
   51CHL1   C18 3727   2.716   3.358   7.608 -0.4548  0.2312  0.3657
   51CHL1  H18A 3728   2.696   3.303   7.514 -2.3058  0.7517  0.4252
   51CHL1  H18B 3729   2.780   3.300   7.679  0.1087 -0.8408 -0.9690
   51CHL1  H18C 3730   2.622   3.378   7.662 -0.7480  0.6697 -0.2946
   51CHL1   C12 3731   2.726   3.564   7.457  0.2188 -0.5416  0.1064
   51CHL1  H12A 3732   2.617   3.585   7.470  0.4924  2.5803 -1.6362
   51CHL1  H12B 3733   2.763   3.666   7.436 -3.2801  0.8365 -0.1007
   51CHL1   C11 3734   2.746   3.490   7.319 -0.4530 -1.0659 -0.3693
   51CHL1  H11A 3735   2.674   3.406   7.330 -0.7188 -0.8668 -0.5745
   51CHL1  H11B 3736   2.712   3.545   7.229 -1.2862 -1.5044 -0.3341
   51CHL1    C9 3737   2.886   3.433   7.297 -0.2239 -0.3296  0.4568
   51CHL1    H9 3738   2.950   3.518   7.264 -1.7864 -0.1922 -2.4962
   51CHL1   C10 3739   2.890   3.332   7.176  0.1615 -0.2798  0.1597
   51CHL1   C19 3740   2.820   3.199   7.211  0.2655  0.4827 -0.4836
   51CHL1  H19A 3741   2.812   3.127   7.127 -0.1001  0.7476 -0.6725
   51CHL1  H19B 3742   2.880   3.156   7.294 -0.0779  0.1045 -0.4277
   51CHL1  H19C 3743   2.721   3.224   7.254 -0.1852 -3.6450  1.3495
   51CHL1    C1 3744   2.816   3.392   7.061 -0.3525  0.3599  0.1317
   51CHL1   H1A 3745   2.706   3.379   7.069 -0.2368 -1.1109 -0.2983
   51CHL1   H1B 3746   2.840   3.500   7.051 -1.7748  0.5924 -1.1032
   51CHL1    C2 3747   2.857   3.321   6.922  0.6704  0.7412  0.3402
   51CHL1   H2A 3748   2.806   3.374   6.839  0.2869 -0.7505 -0.4234
   51CHL1   H2B 3749   2.814   3.218   6.923 -2.5495  1.8503 -2.9233
   51CHL1   C20 3750   2.691   3.592   7.802  0.2423  0.2875 -0.6375
   51CHL1   H20 3751   2.661   3.496   7.849  0.1968 -0.0094 -1.2567
   51CHL1   C21 3752   2.569   3.659   7.733  0.0037  0.0139 -0.4499
   51CHL1  H21A 3753   2.608   3.741   7.670  2.1347 -0.9385 -0.4628
   51CHL1  H21B 3754   2.495   3.697   7.806 -0.1314 -0.3584 -0.3892
   51CHL1  H21C 3755   2.520   3.584   7.666  2.2710 -1.2446 -0.8162
   51CHL1   C22 3756   2.732   3.687   7.924 -0.1863  0.1054  0.1425
   51CHL1  H22A 3757   2.827   3.659   7.975  1.2254  2.3873 -1.1022
   51CHL1  H22B 3758   2.751   3.789   7.886  1.2932  0.0780  0.7496
   51CHL1   C23 3759   2.640   3.708   8.048 -0.8951  0.1999  0.4389
   51CHL1  H23A 3760   2.539   3.740   8.014 -0.5783 -1.5274 -2.4528
   51CHL1  H23B 3761   2.616   3.610   8.096 -0.8831  0.4643  0.9910
   51CHL1   C24 3762   2.699   3.810   8.137 -0.0120  0.8270 -0.9556
   51CHL1  H24A 3763   2.803   3.786   8.167 -0.9744 -0.0250  2.2192
   51CHL1  H24B 3764   2.709   3.910   8.092  0.6549  0.8449 -0.7826
   51CHL1   C25 3765   2.621   3.833   8.267  0.0532 -0.2182 -0.4401
   51CHL1   H25 3766   2.514   3.812   8.247  0.0954 -0.9463  0.0276
   51CHL1   C26 3767   2.668   3.744   8.380 -0.0484 -0.0842  0.8618
   51CHL1  H26A 3768   2.772   3.753   8.418  0.8368  1.1414 -1.6598
   51CHL1  H26B 3769   2.611   3.761   8.474 -0.1284  1.6763  0.5147
   51CHL1  H26C 3770   2.640   3.639   8.355 -0.6000  0.5488 -1.3854
   51CHL1   C27 3771   2.635   3.978   8.314  0.6561  0.2064  0.2208
   51CHL1  H27A 3772   2.741   4.011   8.323  0.2222  1.9141 -0.5381
   51CHL1  H27B 3773   2.589   4.039   8.233 -1.3460  0.2978  1.3849
   51CHL1  H27C 3774   2.586   3.994   8.412  1.5250  1.1709  0.5175
   52CHL1    C3 3775   5.385   2.774   6.900 -0.0986 -0.3323 -0.0217
   52CHL1    H3 3776   5.280   2.753   6.927  0.4417 -0.0159  2.5474
   52CHL1    O3 3777   5.398   2.761   6.760  0.5841  0.6542  0.4185
   52CHL1   H3' 3778   5.328   2.821   6.733 -0.3615 -0.3495  0.5732
   52CHL1    C4 3779   5.396   2.924   6.937 -0.1248 -1.4922 -0.2838
   52CHL1   H4A 3780   5.493   2.962   6.898 -1.5630  2.8830 -0.0970
   52CHL1   H4B 3781   5.320   2.983   6.881  3.2955  1.7376 -1.9157
   52CHL1    C5 3782   5.405   2.946   7.087  0.3012  0.4510 -0.5902
   52CHL1    C6 3783   5.331   3.039   7.150 -0.2284  0.4710  0.5370
   52CHL1    H6 3784   5.267   3.107   7.093  0.9870  0.3447 -1.0505
   52CHL1    C7 3785   5.320   3.075   7.291  0.4467  0.3752 -0.1397
   52CHL1   H7A 3786   5.333   3.184   7.311  1.9138  0.3787 -0.8908
   52CHL1   H7B 3787   5.225   3.041   7.336  1.1030  0.5748  1.4671
   52CHL1    C8 3788   5.436   3.003   7.367 -0.3634  0.0201 -0.1174
   52CHL1    H8 3789   5.533   3.055   7.354 -0.6482  0.5822 -0.0695
   52CHL1   C14 3790   5.409   3.007   7.514  0.0553  0.9289 -0.7181
   52CHL1   H14 3791   5.314   2.954   7.533  0.5036  0.2039 -0.4476
   52CHL1   C15 3792   5.393   3.139   7.583 -0.6847  0.2015  0.0885
   52CHL1  H15A 3793   5.466   3.214   7.546  1.0514 -0.9822  0.9793
   52CHL1  H15B 3794   5.291   3.168   7.550 -0.8751 -1.1927 -0.6370
   52CHL1   C16 3795   5.405   3.113   7.730  1.1042 -0.5149  0.7877
   52CHL1  H16A 3796   5.480   3.188   7.762 -0.9385  1.5445  1.0043
   52CHL1  H16B 3797   5.308   3.122   7.783 -0.7945  2.2431 -2.7240
   52CHL1   C17 3798   5.450   2.969   7.746  0.2548  0.1484  0.5326
   52CHL1   H17 3799   5.359   2.905   7.740  1.8736 -2.1905 -4.3497
   52CHL1   C13 3800   5.504   2.938   7.610  0.0323  0.6995  0.4731
   52CHL1   C18 3801   5.639   3.000   7.590  0.4142  0.0950 -0.1311
   52CHL1  H18A 3802   5.698   2.960   7.675  0.1879 -1.7115 -0.7995
   52CHL1  H18B 3803   5.674   2.964   7.491 -1.1938 -1.2463 -0.2556
   52CHL1  H18C 3804   5.641   3.111   7.593  0.7706  0.0704  1.8618
   52CHL1   C12 3805   5.501   2.790   7.560  1.0743  1.0301 -0.2870
   52CHL1  H12A 3806   5.561   2.735   7.635  0.4986  1.2954  0.3762
   52CHL1  H12B 3807   5.399   2.751   7.580  1.1238 -0.4340 -2.5371
   52CHL1   C11 3808   5.534   2.767   7.416  0.2773 -0.0118  0.0452
   52CHL1  H11A 3809   5.643   2.780   7.407  0.3894 -0.5561  0.5157
   52CHL1  H11B 3810   5.521   2.658   7.394  0.2568  0.1339 -0.6883
   52CHL1    C9 3811   5.460   2.857   7.320  0.9167  0.6663 -0.2933
   52CHL1    H9 3812   5.352   2.831   7.320  0.6135  1.8584 -1.4121
   52CHL1   C10 3813   5.490   2.839   7.165  0.2247 -0.4347 -0.3021
   52CHL1   C19 3814   5.646   2.871   7.135 -0.2999 -0.3140  0.9610
   52CHL1  H19A 3815   5.654   2.856   7.025 -0.0901 -0.1852  0.9587
   52CHL1  H19B 3816   5.678   2.971   7.171  0.1719 -0.0821 -0.0535
   52CHL1  H19C 3817   5.709   2.796   7.187 -0.1015 -0.0235  1.1425
   52CHL1    C1 3818   5.460   2.693   7.123 -0.4347 -0.7435 -0.0298
   52CHL1   H1A 3819   5.537   2.636   7.178  1.7824  0.2807 -1.8631
   52CHL1   H1B 3820   5.362   2.654   7.158 -0.4555  0.1539  0.9483
   52CHL1    C2 3821   5.475   2.670   6.972  0.3278 -0.0545 -1.0097
   52CHL1   H2A 3822   5.450   2.562   6.962 -0.2879 -0.3573  2.4878
   52CHL1   H2B 3823   5.582   2.687   6.946  0.9298 -1.5849  0.2811
   52CHL1   C20 3824   5.530   2.940   7.868  0.5140 -0.6630 -0.1440
   52CHL1   H20 3825   5.607   3.018   7.883  0.8971 -0.9377 -0.6278
   52CHL1   C21 3826   5.605   2.801   7.878 -0.3148 -0.4720 -0.5059
   52CHL1  H21A 3827   5.640   2.772   7.979 -2.5110 -3.6005 -0.4752
   52CHL1  H21B 3828   5.694   2.800   7.812 -1.0025  1.8207 -1.5802
   52CHL1  H21C 3829   5.535   2.717   7.857 -2.2925  0.4313  1.9587
   52CHL1   C22 3830   5.446   2.960   7.993 -0.3972 -0.6082 -0.4922
   52CHL1  H22A 3831   5.513   2.939   8.079 -0.2998 -4.0235 -1.2823
   52CHL1  H22B 3832   5.411   3.065   8.009  0.3760 -0.1807 -1.4926
   52CHL1   C23 3833   5.325   2.867   8.020 -0.5458 -0.1676 -0.1997
   52CHL1  H23A 3834   5.264   2.873   7.928  0.3230 -0.7238 -0.8308
   52CHL1  H23B 3835   5.369   2.765   8.029  0.3486  0.3939  3.1104
   52CHL1   C24 3836   5.256   2.899   8.148  0.3304  0.1580 -1.1904
   52CHL1  H24A 3837   5.328   2.908   8.232  0.6096  0.9596 -1.5146
   52CHL1  H24B 3838   5.206   2.997   8.133 -0.6680 -0.0284  0.6117
   52CHL1   C25 3839   5.132   2.809   8.185  0.2670 -0.3158  0.3813
   52CHL1   H25 3840   5.080   2.764   8.098  0.9327 -0.0942 -0.1429
   52CHL1   C26 3841   5.176   2.702   8.279 -0.4335 -0.1145  0.0827
   52CHL1  H26A 3842   5.107   2.615   8.280 -0.6230 -0.1470  4.1177
   52CHL1  H26B 3843   5.279   2.665   8.258 -1.1491 -1.0538 -1.9499
   52CHL1  H26C 3844   5.166   2.737   8.384  0.8169  0.8270 -0.0906
   52CHL1   C27 3845   5.028   2.890   8.264 -0.4467 -0.8671  0.4100
   52CHL1  H27A 3846   4.994   2.977   8.204 -0.9768 -1.3828 -0.0520
   52CHL1  H27B 3847   4.938   2.828   8.283 -0.5142 -1.0523 -0.4979
   52CHL1  H27C 3848   5.057   2.921   8.367 -0.3570 -0.6581  0.3225
   53CHL1    C3 3849   3.548   6.454   7.031 -0.2457 -0.1616  0.2257
   53CHL1    H3 3850   3.437   6.464   7.028 -0.2686  2.3653  3.4497
   53CHL1    O3 3851   3.601   6.509   6.912  0.3086 -0.0880  0.0264
   53CHL1   H3' 3852   3.693   6.525   6.931  0.3527 -1.0922  0.7120
   53CHL1    C4 3853   3.595   6.525   7.156  0.5176  0.1761 -0.4391
   53CHL1   H4A 3854   3.706   6.528   7.154  0.5854  0.6593  1.6939
   53CHL1   H4B 3855   3.571   6.633   7.152  1.1352  0.2927 -1.2455
   53CHL1    C5 3856   3.568   6.467   7.294 -0.2553 -0.1731  0.1510
   53CHL1    C6 3857   3.509   6.536   7.393 -0.0799 -0.4100  0.1495
   53CHL1    H6 3858   3.487   6.641   7.370 -0.5223 -0.5777 -0.2072
   53CHL1    C7 3859   3.490   6.475   7.527  0.2176 -0.6623 -0.0981
   53CHL1   H7A 3860   3.511   6.551   7.605  1.2153  1.0934 -1.9932
   53CHL1   H7B 3861   3.382   6.452   7.537 -0.5063  1.1164 -2.7393
   53CHL1    C8 3862   3.568   6.343   7.552 -0.0594 -0.5212  0.3021
   53CHL1    H8 3863   3.674   6.367   7.574  0.3497  1.0710 -2.8227
   53CHL1   C14 3864   3.508   6.268   7.672 -0.2555 -0.1227  0.0394
   53CHL1   H14 3865   3.401   6.249   7.647  0.0581 -0.3452 -1.1647
   53CHL1   C15 3866   3.519   6.337   7.816  0.0113 -0.3665  0.0117
   53CHL1  H15A 3867   3.624   6.365   7.840 -0.7179  0.3576  2.7238
   53CHL1  H15B 3868   3.457   6.427   7.837 -1.7493 -1.5514  0.1063
   53CHL1   C16 3869   3.468   6.229   7.916 -0.5548 -0.0655  1.3085
   53CHL1  H16A 3870   3.532   6.237   8.007  0.8167 -0.5851  0.4193
   53CHL1  H16B 3871   3.359   6.250   7.914 -0.6302  0.1922 -3.6046
   53CHL1   C17 3872   3.501   6.094   7.844  0.6666 -0.2051  0.2709
   53CHL1   H17 3873   3.402   6.052   7.814  1.1611 -1.3865  0.2488
   53CHL1   C13 3874   3.574   6.130   7.705  0.6965 -0.5864  0.0344
   53CHL1   C18 3875   3.726   6.143   7.736 -0.5558 -0.0486 -0.2867
   53CHL1  H18A 3876   3.767   6.211   7.815  3.0655 -1.4670 -0.7399
   53CHL1  H18B 3877   3.770   6.043   7.753 -0.7362 -0.4266 -1.9117
   53CHL1  H18C 3878   3.770   6.190   7.645  2.4587 -0.5207  0.8265
   53CHL1   C12 3879   3.546   6.044   7.580 -0.1210 -0.4948 -0.3208
   53CHL1  H12A 3880   3.580   5.941   7.604 -2.7203 -1.4855 -0.6142
   53CHL1  H12B 3881   3.437   6.031   7.565 -0.4381  1.4209 -0.0463
   53CHL1   C11 3882   3.604   6.106   7.448  0.8267 -0.1288 -0.0911
   53CHL1  H11A 3883   3.714   6.095   7.448  0.9951  1.1660  1.4704
   53CHL1  H11B 3884   3.555   6.056   7.361  0.8931 -0.3444 -0.0031
   53CHL1    C9 3885   3.563   6.256   7.428 -0.5445 -0.1752  0.6377
   53CHL1    H9 3886   3.454   6.261   7.409 -0.3325 -0.5101 -0.7931
   53CHL1   C10 3887   3.620   6.316   7.302  0.4158 -0.0688  0.3974
   53CHL1   C19 3888   3.770   6.319   7.314  0.2868 -0.2075 -0.3150
   53CHL1  H19A 3889   3.823   6.380   7.238  0.7445  0.3765  0.4518
   53CHL1  H19B 3890   3.797   6.375   7.406 -0.8776  0.5116 -0.3979
   53CHL1  H19C 3891   3.807   6.214   7.304  0.5916 -0.1365  0.0111
   53CHL1    C1 3892   3.560   6.246   7.176  0.5725  0.7221 -0.3257
   53CHL1   H1A 3893   3.581   6.138   7.165 -3.0800  0.0279 -1.8552
   53CHL1   H1B 3894   3.450   6.241   7.188  0.6095  0.4238 -0.1149
   53CHL1    C2 3895   3.583   6.308   7.042  0.1540 -0.5953 -0.2741
   53CHL1   H2A 3896   3.521   6.256   6.966 -2.0771 -0.2398  1.1898
   53CHL1   H2B 3897   3.691   6.295   7.023  0.0443 -2.7933  0.3508
   53CHL1   C20 3898   3.561   5.983   7.932  0.5561 -0.6642  0.1372
   53CHL1   H20 3899   3.660   6.023   7.962 -0.9319  2.1293  1.7516
   53CHL1   C21 3900   3.572   5.849   7.857 -0.0158  0.5377 -0.7122
   53CHL1  H21A 3901   3.637   5.852   7.767  0.8597 -0.1092 -0.1198
   53CHL1  H21B 3902   3.468   5.816   7.835  0.1134 -1.1612  0.9333
   53CHL1  H21C 3903   3.611   5.773   7.928  2.5251  1.3851 -1.1017
   53CHL1   C22 3904   3.480   5.961   8.060  0.3373 -0.7813 -1.0182
   53CHL1  H22A 3905   3.457   6.059   8.107 -0.9118 -1.1205 -0.8765
   53CHL1  H22B 3906   3.386   5.907   8.034 -2.5692  0.7301  4.7181
   53CHL1   C23 3907   3.553   5.870   8.165 -0.2222 -0.0493  0.3055
   53CHL1  H23A 3908   3.544   5.771   8.115  0.8474  0.0400 -0.1015
   53CHL1  H23B 3909   3.659   5.896   8.186 -0.8638  1.4368  1.9681
   53CHL1   C24 3910   3.490   5.870   8.304 -0.1242  0.8149 -0.4502
   53CHL1  H24A 3911   3.496   5.971   8.351 -1.2539  1.5320 -1.7703
   53CHL1  H24B 3912   3.382   5.851   8.289 -0.4400 -0.3410  2.5867
   53CHL1   C25 3913   3.551   5.773   8.408  0.4670  0.2553  1.0723
   53CHL1   H25 3914   3.657   5.795   8.432  0.7185 -0.0021  0.2607
   53CHL1   C26 3915   3.471   5.787   8.537 -0.7960 -0.2696  0.6439
   53CHL1  H26A 3916   3.467   5.892   8.572  0.7902  1.1900 -3.0303
   53CHL1  H26B 3917   3.363   5.766   8.525 -0.6426 -0.3834 -0.6791
   53CHL1  H26C 3918   3.527   5.735   8.618  2.2449  1.5444 -0.1161
   53CHL1   C27 3919   3.549   5.630   8.359  0.2981 -0.3033 -0.7986
   53CHL1  H27A 3920   3.443   5.599   8.343  0.6900 -1.1291 -1.8722
   53CHL1  H27B 3921   3.613   5.619   8.269  1.9896  1.3173  0.1397
   53CHL1  H27C 3922   3.589   5.563   8.437 -1.9894 -0.3212  0.4426
   54CHL1    C3 3923   3.293   1.497   6.991 -0.4248 -0.1244  0.1686
   54CHL1    H3 3924   3.342   1.402   7.024  0.7163 -0.1855 -1.5681
   54CHL1    O3 3925   3.280   1.484   6.852  0.4716  0.2166  0.8916
   54CHL1   H3' 3926   3.223   1.556   6.826  2.1506  1.8488  1.4479
   54CHL1    C4 3927   3.154   1.520   7.056 -0.2885  0.2782 -0.2366
   54CHL1   H4A 3928   3.108   1.610   7.011  1.3359  0.7398 -1.0516
   54CHL1   H4B 3929   3.081   1.442   7.025 -1.1987  1.5324 -1.3787
   54CHL1    C5 3930   3.166   1.527   7.212 -0.0400 -0.9426 -0.3857
   54CHL1    C6 3931   3.092   1.454   7.293  0.3115 -0.1725  0.4104
   54CHL1    H6 3932   3.012   1.396   7.245  0.2354  0.4432 -0.2320
   54CHL1    C7 3933   3.099   1.467   7.438 -0.5944 -0.6731  0.0754
   54CHL1   H7A 3934   2.996   1.471   7.478 -0.3389  2.5511  0.6470
   54CHL1   H7B 3935   3.156   1.384   7.486  0.2411 -0.8095 -1.1127
   54CHL1    C8 3936   3.155   1.603   7.480 -0.1759 -0.1395 -0.5773
   54CHL1    H8 3937   3.087   1.686   7.453 -0.0751 -0.3791 -1.6313
   54CHL1   C14 3938   3.174   1.596   7.629  0.2883  0.6800  0.3817
   54CHL1   H14 3939   3.239   1.508   7.651 -0.0553  0.6150  1.1775
   54CHL1   C15 3940   3.062   1.558   7.724  0.9330 -0.3355 -0.2814
   54CHL1  H15A 3941   2.966   1.604   7.694  0.9467  0.0618  0.2772
   54CHL1  H15B 3942   3.045   1.448   7.729  0.1613 -0.2558 -0.9857
   54CHL1   C16 3943   3.106   1.613   7.859  0.2046  0.2025 -0.7075
   54CHL1  H16A 3944   3.032   1.679   7.909  2.1117  0.4343  2.0146
   54CHL1  H16B 3945   3.109   1.528   7.931  1.5675  0.0485 -0.9123
   54CHL1   C17 3946   3.245   1.673   7.837 -0.1436 -0.0576  0.0575
   54CHL1   H17 3947   3.308   1.583   7.852 -0.9209 -0.9492 -1.6664
   54CHL1   C13 3948   3.247   1.714   7.695 -0.0592  0.3644  0.7535
   54CHL1   C18 3949   3.170   1.848   7.677  0.3629  0.1301 -0.2409
   54CHL1  H18A 3950   3.180   1.887   7.574  1.5102  0.5992  0.0290
   54CHL1  H18B 3951   3.063   1.852   7.708  0.7682 -0.2132  1.3087
   54CHL1  H18C 3952   3.225   1.927   7.733  1.5693 -0.0376 -1.1680
   54CHL1   C12 3953   3.384   1.722   7.630 -0.6267  0.2986 -0.5813
   54CHL1  H12A 3954   3.452   1.800   7.669 -0.6742  0.2881 -0.4796
   54CHL1  H12B 3955   3.442   1.630   7.652 -1.3616 -0.1730 -0.5818
   54CHL1   C11 3956   3.375   1.733   7.474  0.5761 -0.1718  0.3626
   54CHL1  H11A 3957   3.353   1.839   7.450  1.4535 -0.1806 -0.5304
   54CHL1  H11B 3958   3.480   1.715   7.442 -0.3157 -0.8225 -2.4755
   54CHL1    C9 3959   3.293   1.619   7.411 -0.0207 -0.3111 -0.2322
   54CHL1    H9 3960   3.357   1.530   7.431  0.8008  0.6676  1.7390
   54CHL1   C10 3961   3.276   1.633   7.256 -0.0611  0.0937 -0.2946
   54CHL1   C19 3962   3.223   1.769   7.226  0.4941  0.5121  0.6040
   54CHL1  H19A 3963   3.206   1.798   7.120  0.0985 -1.4844  0.0806
   54CHL1  H19B 3964   3.128   1.796   7.278 -1.0960 -1.0077 -1.3238
   54CHL1  H19C 3965   3.296   1.843   7.267  1.4453  0.8187 -1.5114
   54CHL1    C1 3966   3.410   1.621   7.175 -0.4299  0.2512  0.6477
   54CHL1   H1A 3967   3.480   1.707   7.189  1.0116 -0.0293 -3.4032
   54CHL1   H1B 3968   3.464   1.532   7.215 -1.9149 -0.6773  0.6440
   54CHL1    C2 3969   3.393   1.604   7.021  0.1460  0.1674  0.3095
   54CHL1   H2A 3970   3.498   1.581   6.994 -0.0619 -0.6469  0.1850
   54CHL1   H2B 3971   3.364   1.708   6.993 -0.1882 -0.1108 -0.3942
   54CHL1   C20 3972   3.284   1.772   7.952  0.3383  0.2290 -0.4761
   54CHL1   H20 3973   3.232   1.869   7.936  2.8978  1.7971 -0.0196
   54CHL1   C21 3974   3.438   1.800   7.960 -0.0814  0.3603 -0.7701
   54CHL1  H21A 3975   3.458   1.882   8.031 -0.6628 -0.0500 -0.1221
   54CHL1  H21B 3976   3.467   1.837   7.859 -1.2038  2.2096 -0.4433
   54CHL1  H21C 3977   3.488   1.706   7.994 -0.2315  0.7258  0.4995
   54CHL1   C22 3978   3.244   1.721   8.091 -0.1552 -0.1292  0.0363
   54CHL1  H22A 3979   3.140   1.682   8.089  0.3033 -1.4095 -2.3396
   54CHL1  H22B 3980   3.303   1.630   8.114 -0.7193 -0.2369  1.1484
   54CHL1   C23 3981   3.260   1.828   8.196 -0.4570  0.0637 -0.1394
   54CHL1  H23A 3982   3.369   1.837   8.213 -0.3814  1.6647 -1.2767
   54CHL1  H23B 3983   3.220   1.925   8.160 -0.1608  0.0840 -0.4181
   54CHL1   C24 3984   3.199   1.799   8.336  0.1369 -0.0282  0.0441
   54CHL1  H24A 3985   3.090   1.798   8.318 -0.1286 -1.4574  1.4756
   54CHL1  H24B 3986   3.222   1.697   8.375 -1.1685 -0.3148  0.1275
   54CHL1   C25 3987   3.227   1.889   8.460  0.0573  0.0163  0.4622
   54CHL1   H25 3988   3.166   1.980   8.446 -0.0746 -0.1496 -0.0743
   54CHL1   C26 3989   3.165   1.821   8.582 -0.0535  0.1588  0.0874
   54CHL1  H26A 3990   3.223   1.728   8.599  0.3252  0.3910  0.0877
   54CHL1  H26B 3991   3.184   1.878   8.675  1.9160  1.0253 -0.7832
   54CHL1  H26C 3992   3.056   1.807   8.564  0.2753 -0.5457 -1.6266
   54CHL1   C27 3993   3.378   1.920   8.468 -0.0939  0.4801  0.9669
   54CHL1  H27A 3994   3.401   1.967   8.369  0.0762 -2.0851 -0.2910
   54CHL1  H27B 3995   3.397   1.992   8.551  1.5597  2.6387 -1.1161
   54CHL1  H27C 3996   3.438   1.826   8.467 -0.9827 -0.1017 -0.5297
   55CHL1    C3 3997   1.949   3.515   6.863 -1.4481  0.3665  0.7598
   55CHL1    H3 3998   1.894   3.418   6.861  1.3986 -1.3286 -0.3307
   55CHL1    O3 3999   2.012   3.530   6.736  0.2862 -0.1729 -0.0541
   55CHL1   H3' 4000   1.980   3.614   6.703 -1.1297 -0.7732 -0.3238
   55CHL1    C4 4001   1.864   3.637   6.897  0.1798 -0.4710 -0.4046
   55CHL1   H4A 4002   1.931   3.726   6.892 -0.4910  0.0229 -4.4529
   55CHL1   H4B 4003   1.790   3.650   6.815 -0.3908 -1.2209 -0.0226
   55CHL1    C5 4004   1.801   3.613   7.031 -0.0538 -0.0434  0.0589
   55CHL1    C6 4005   1.664   3.619   7.034  0.1266 -0.1404  0.5249
   55CHL1    H6 4006   1.605   3.637   6.942  0.3436 -0.8534  0.2433
   55CHL1    C7 4007   1.577   3.610   7.160  0.0755  0.2210 -0.5000
   55CHL1   H7A 4008   1.488   3.676   7.156 -0.9933 -1.2056 -0.8284
   55CHL1   H7B 4009   1.539   3.506   7.159  2.9334 -0.9182  0.0409
   55CHL1    C8 4010   1.668   3.612   7.284  0.0496 -0.1085  0.2849
   55CHL1    H8 4011   1.689   3.720   7.294 -0.5531  0.2192 -1.5488
   55CHL1   C14 4012   1.595   3.568   7.409 -0.1990  0.0306 -0.0879
   55CHL1   H14 4013   1.570   3.463   7.381  0.5978 -0.2419  0.1869
   55CHL1   C15 4014   1.456   3.633   7.444  0.3045  0.1160  0.0932
   55CHL1  H15A 4015   1.475   3.742   7.447 -0.4839  0.2744 -0.3561
   55CHL1  H15B 4016   1.364   3.601   7.390  0.7128  0.3070 -0.7282
   55CHL1   C16 4017   1.430   3.602   7.588  0.4147  0.1037  0.4159
   55CHL1  H16A 4018   1.419   3.700   7.639  2.0801 -0.5125  2.0880
   55CHL1  H16B 4019   1.342   3.534   7.601 -0.0261  0.7789  1.1096
   55CHL1   C17 4020   1.555   3.527   7.638 -0.0322 -0.1597  0.0144
   55CHL1   H17 4021   1.539   3.419   7.621 -1.8646  0.0627  0.1726
   55CHL1   C13 4022   1.665   3.567   7.541 -0.3673  0.6636 -0.0273
   55CHL1   C18 4023   1.707   3.714   7.573  0.1754 -0.5360 -0.4003
   55CHL1  H18A 4024   1.774   3.730   7.660 -1.2891  0.2797  0.6240
   55CHL1  H18B 4025   1.763   3.765   7.492  0.7009  1.4002  1.1157
   55CHL1  H18C 4026   1.619   3.781   7.578 -0.2749 -0.8427 -2.8480
   55CHL1   C12 4027   1.787   3.476   7.531 -0.3652 -0.2707 -0.1316
   55CHL1  H12A 4028   1.855   3.460   7.617  1.4076  2.0947 -0.9805
   55CHL1  H12B 4029   1.748   3.376   7.503  2.8443 -2.0522  1.2534
   55CHL1   C11 4030   1.878   3.529   7.414 -0.5781  0.0713 -0.6634
   55CHL1  H11A 4031   1.925   3.628   7.434 -2.5434  1.3994 -2.1784
   55CHL1  H11B 4032   1.957   3.452   7.407  0.1886  0.7142  0.5737
   55CHL1    C9 4033   1.802   3.537   7.274  0.4995  0.3330 -0.3389
   55CHL1    H9 4034   1.773   3.435   7.243 -0.3669  1.2657 -2.8394
   55CHL1   C10 4035   1.888   3.582   7.153  0.7017 -0.3467 -0.0845
   55CHL1   C19 4036   1.956   3.721   7.179  0.8222 -0.1675 -0.0145
   55CHL1  H19A 4037   2.023   3.760   7.099  0.4868  2.6748  0.9603
   55CHL1  H19B 4038   1.879   3.797   7.203  1.6887  0.4829  0.7690
   55CHL1  H19C 4039   2.025   3.712   7.265  2.4191 -2.2371 -1.4070
   55CHL1    C1 4040   1.988   3.479   7.110  0.3958 -0.8021 -0.7095
   55CHL1   H1A 4041   2.053   3.461   7.199 -1.2878  0.7253  0.9184
   55CHL1   H1B 4042   1.923   3.390   7.093 -0.8079 -0.1556  0.3504
   55CHL1    C2 4043   2.058   3.497   6.979 -0.2987 -0.4876  0.0504
   55CHL1   H2A 4044   2.133   3.419   6.956 -0.7012 -0.9997  0.4419
   55CHL1   H2B 4045   2.108   3.596   6.986 -1.0210 -0.0903 -0.3087
   55CHL1   C20 4046   1.580   3.540   7.792  0.3994  0.7137 -0.7974
   55CHL1   H20 4047   1.604   3.646   7.817  2.4809  0.2541 -0.6674
   55CHL1   C21 4048   1.703   3.466   7.853 -0.6125 -0.3831  0.1117
   55CHL1  H21A 4049   1.804   3.507   7.835 -1.1257  0.2251 -1.6177
   55CHL1  H21B 4050   1.696   3.361   7.818 -1.8565  0.2552 -1.7256
   55CHL1  H21C 4051   1.688   3.475   7.962 -0.9382  2.0390 -0.0699
   55CHL1   C22 4052   1.453   3.517   7.880 -0.3612 -0.2512 -0.1769
   55CHL1  H22A 4053   1.465   3.597   7.956  0.2828 -0.0249 -0.5144
   55CHL1  H22B 4054   1.364   3.538   7.817 -1.1049  0.0031  0.9190
   55CHL1   C23 4055   1.440   3.377   7.941 -0.4047  0.1162 -0.4194
   55CHL1  H23A 4056   1.457   3.297   7.866 -0.6551 -0.9574  0.6394
   55CHL1  H23B 4057   1.519   3.365   8.018 -0.9361 -0.1340  0.1001
   55CHL1   C24 4058   1.305   3.359   8.016 -0.1616 -0.1651  0.9815
   55CHL1  H24A 4059   1.286   3.463   8.052 -2.0996  1.1332 -3.2233
   55CHL1  H24B 4060   1.225   3.343   7.941  0.0675 -1.5322  1.0013
   55CHL1   C25 4061   1.307   3.264   8.132  0.2747 -0.4586 -0.1709
   55CHL1   H25 4062   1.204   3.260   8.175  0.4621 -0.3077  0.2922
   55CHL1   C26 4063   1.326   3.120   8.080  0.4071 -0.0380 -0.3737
   55CHL1  H26A 4064   1.298   3.051   8.162 -0.8749 -0.6368 -1.2889
   55CHL1  H26B 4065   1.256   3.096   7.998  0.1813  0.0004 -0.1941
   55CHL1  H26C 4066   1.430   3.101   8.045 -0.2755  0.1345 -2.6367
   55CHL1   C27 4067   1.406   3.297   8.246  0.4425 -0.3481  0.0480
   55CHL1  H27A 4068   1.510   3.296   8.207  0.7225  2.6438  0.4855
   55CHL1  H27B 4069   1.388   3.399   8.285  0.8457  0.9056 -2.7655
   55CHL1  H27C 4070   1.387   3.231   8.333 -2.4175 -0.5742 -0.6417
   56CHL1    C3 4071   1.447   6.503   7.069  0.0939 -0.4282 -0.4072
   56CHL1    H3 4072   1.382   6.437   7.129  0.5971  0.0629  0.7189
   56CHL1    O3 4073   1.375   6.531   6.952  0.1061 -0.0584 -0.0199
   56CHL1   H3' 4074   1.414   6.608   6.909 -0.9612 -0.1065 -1.1575
   56CHL1    C4 4075   1.482   6.629   7.150 -0.4930  0.7859 -0.5763
   56CHL1   H4A 4076   1.539   6.693   7.078  1.0314  1.1874  0.9367
   56CHL1   H4B 4077   1.399   6.693   7.187  0.6423  2.4123 -0.6976
   56CHL1    C5 4078   1.573   6.585   7.264 -0.1253 -0.2356 -0.1222
   56CHL1    C6 4079   1.543   6.622   7.390  0.1891  0.6272  0.5536
   56CHL1    H6 4080   1.448   6.675   7.404 -1.0249 -1.2407 -0.2733
   56CHL1    C7 4081   1.634   6.603   7.510  0.2636  0.3167 -0.1396
   56CHL1   H7A 4082   1.649   6.693   7.574  3.1818 -0.4365  0.3782
   56CHL1   H7B 4083   1.597   6.518   7.571  0.0230  1.9929  2.1996
   56CHL1    C8 4084   1.780   6.554   7.478  0.2121  0.1251  0.2915
   56CHL1    H8 4085   1.834   6.647   7.450  0.3188  0.6694  2.1857
   56CHL1   C14 4086   1.838   6.472   7.588 -0.1874  0.2039  0.2864
   56CHL1   H14 4087   1.784   6.375   7.589 -1.2515  0.7127 -1.7354
   56CHL1   C15 4088   1.829   6.524   7.728 -0.2987 -1.0266 -0.6933
   56CHL1  H15A 4089   1.845   6.633   7.721 -0.9324 -0.9843 -1.7641
   56CHL1  H15B 4090   1.731   6.499   7.774  0.2241 -0.1758  0.9815
   56CHL1   C16 4091   1.943   6.453   7.802 -0.2460  0.3086 -0.0398
   56CHL1  H16A 4092   2.019   6.522   7.844 -0.6934  0.4234  0.5939
   56CHL1  H16B 4093   1.899   6.405   7.892  0.8135  1.1514  0.9553
   56CHL1   C17 4094   2.010   6.355   7.702  0.1766  0.8809 -0.3503
   56CHL1   H17 4095   1.941   6.269   7.691  1.8363 -0.5450  0.1060
   56CHL1   C13 4096   1.988   6.433   7.569  0.5659  0.4827 -0.0423
   56CHL1   C18 4097   2.076   6.559   7.560 -0.2001  0.2654  0.0790
   56CHL1  H18A 4098   2.078   6.599   7.456 -0.9700 -1.9426 -0.8466
   56CHL1  H18B 4099   2.047   6.640   7.630  1.2095 -0.2695  1.3230
   56CHL1  H18C 4100   2.181   6.544   7.591  0.0903 -0.0600 -1.0135
   56CHL1   C12 4101   1.994   6.347   7.441 -0.5550  0.2036 -0.5953
   56CHL1  H12A 4102   2.099   6.332   7.410 -0.3852 -1.6779  0.7345
   56CHL1  H12B 4103   1.946   6.248   7.457  1.4011 -0.4045  2.3079
   56CHL1   C11 4104   1.925   6.411   7.322  0.1251  0.3374  0.5914
   56CHL1  H11A 4105   1.991   6.496   7.294 -0.4156  1.4230  2.4676
   56CHL1  H11B 4106   1.922   6.325   7.251  0.5599 -0.6251  1.7055
   56CHL1    C9 4107   1.781   6.465   7.356 -0.5797  0.3507 -0.3945
   56CHL1    H9 4108   1.724   6.378   7.396  1.1763 -0.2061  1.0556
   56CHL1   C10 4109   1.700   6.518   7.229 -0.0158  0.2592 -0.0810
   56CHL1   C19 4110   1.788   6.615   7.143  0.2470 -0.7634  0.1947
   56CHL1  H19A 4111   1.746   6.650   7.046  0.3044 -2.2085 -0.3709
   56CHL1  H19B 4112   1.807   6.696   7.217 -3.3215 -1.9800  2.7100
   56CHL1  H19C 4113   1.882   6.561   7.117  1.2170  1.7358 -1.9159
   56CHL1    C1 4114   1.665   6.402   7.142 -0.4665 -0.1303 -0.0292
   56CHL1   H1A 4115   1.753   6.351   7.096 -1.4780 -2.5266  0.5023
   56CHL1   H1B 4116   1.616   6.320   7.199 -0.5887 -1.3713 -1.8201
   56CHL1    C2 4117   1.571   6.428   7.024 -0.6835 -0.1131 -0.0391
   56CHL1   H2A 4118   1.551   6.330   6.977  2.3609 -1.0629  0.4007
   56CHL1   H2B 4119   1.631   6.494   6.957  0.2598  1.0905  1.8724
   56CHL1   C20 4120   2.148   6.295   7.738  0.3272  0.3170 -0.0832
   56CHL1   H20 4121   2.227   6.369   7.713  0.0488  0.8634  0.5983
   56CHL1   C21 4122   2.163   6.168   7.652  0.0985  0.9807 -0.0375
   56CHL1  H21A 4123   2.198   6.193   7.550 -1.4823 -1.4918 -1.2812
   56CHL1  H21B 4124   2.062   6.124   7.635  1.6015 -1.9133 -2.2520
   56CHL1  H21C 4125   2.228   6.097   7.706 -1.8049 -0.0625  0.9982
   56CHL1   C22 4126   2.173   6.261   7.890  0.2921  0.0995 -0.5891
   56CHL1  H22A 4127   2.278   6.240   7.918 -0.6934 -1.3772  2.3935
   56CHL1  H22B 4128   2.151   6.354   7.947 -2.5521  0.6440 -2.3393
   56CHL1   C23 4129   2.087   6.147   7.946  0.7059 -0.7517 -0.4634
   56CHL1  H23A 4130   1.992   6.153   7.889 -0.0913  2.4852  0.9670
   56CHL1  H23B 4131   2.139   6.050   7.931  2.5163  0.2465 -0.9451
   56CHL1   C24 4132   2.065   6.170   8.101  0.3702 -0.3797  0.1720
   56CHL1  H24A 4133   2.165   6.152   8.145 -0.3865  0.4733  2.3579
   56CHL1  H24B 4134   2.027   6.270   8.127  0.6010 -0.8676  2.5880
   56CHL1   C25 4135   1.966   6.073   8.172  0.0519  0.5750 -0.4170
   56CHL1   H25 4136   2.007   5.974   8.142  1.2337  1.0648 -0.4888
   56CHL1   C26 4137   1.964   6.084   8.319 -0.5363 -0.0646 -0.1357
   56CHL1  H26A 4138   2.069   6.077   8.353 -0.6393  1.4958  0.5645
   56CHL1  H26B 4139   1.914   5.996   8.367 -0.4434 -0.1459 -0.1884
   56CHL1  H26C 4140   1.910   6.173   8.357 -0.2279  1.0459 -2.1958
   56CHL1   C27 4141   1.826   6.088   8.112  0.8279 -0.3767  0.1328
   56CHL1  H27A 4142   1.823   6.055   8.006 -0.2415  1.0424 -0.3164
   56CHL1  H27B 4143   1.753   6.026   8.167 -1.1279  2.2965  0.7561
   56CHL1  H27C 4144   1.801   6.196   8.116 -2.1416 -0.9994  0.7896
   57SAPC     N 4145   1.054   3.776  11.022  0.2849  0.2811 -0.9339
   57SAPC   C12 4146   0.946   3.735  10.912 -0.0308  0.1448 -0.3870
   57SAPC  H12A 4147   0.902   3.643  10.945  2.3210 -0.8799  0.0844
   57SAPC  H12B 4148   0.970   3.713  10.809 -4.8036  1.5203 -2.0922
   57SAPC   C13 4149   1.146   3.657  11.046 -0.4943  0.7725  0.1732
   57SAPC  H13A 4150   1.095   3.573  11.093 -1.3133  1.1196 -0.0738
   57SAPC  H13B 4151   1.186   3.612  10.957 -2.2392  0.3847 -0.4679
   57SAPC  H13C 4152   1.232   3.677  11.107 -0.3573 -0.1730  0.3053
   57SAPC   C14 4153   1.118   3.899  10.979 -0.1240 -0.0028 -0.3127
   57SAPC  H14A 4154   1.040   3.973  10.979 -0.3247  0.3673  6.5206
   57SAPC  H14B 4155   1.188   3.919  11.059  0.8372 -1.8471 -0.6269
   57SAPC  H14C 4156   1.176   3.886  10.889 -0.3789  1.7500 -0.7591
   57SAPC   C15 4157   0.993   3.797  11.160 -0.2997  0.7144 -0.1696
   57SAPC  H15A 4158   0.917   3.875  11.163 -3.0539 -1.8196  0.7030
   57SAPC  H15B 4159   0.933   3.711  11.184 -1.3060 -0.0230 -4.5248
   57SAPC  H15C 4160   1.064   3.812  11.240 -1.6675 -0.3051  1.3089
   57SAPC   C11 4161   0.839   3.845  10.902  0.3703  0.2721  0.2771
   57SAPC  H11A 4162   0.816   3.884  11.003 -3.0468  1.2093 -0.7568
   57SAPC  H11B 4163   0.746   3.803  10.859  0.3133  0.1485  0.5131
   57SAPC     P 4164   0.852   3.957  10.654 -0.4628  0.1375 -0.1729
   57SAPC   O13 4165   0.708   3.969  10.641 -0.3737  0.1860 -0.2307
   57SAPC   O14 4166   0.928   4.064  10.588  0.5148  0.6778  0.3375
   57SAPC   O12 4167   0.890   3.954  10.811  0.0534 -0.5334 -0.2130
   57SAPC   O11 4168   0.893   3.808  10.605  0.4437 -0.0309  0.4816
   57SAPC    C1 4169   0.997   3.803  10.503 -0.3522 -0.3916 -0.2438
   57SAPC    HA 4170   1.082   3.870  10.529  0.1537 -1.7097  1.7417
   57SAPC    HB 4171   1.036   3.699  10.511 -0.9708 -0.6036  0.0173
   57SAPC    C2 4172   0.957   3.845  10.355 -0.9088  0.5437  0.0312
   57SAPC    HS 4173   0.947   3.956  10.363  0.4891  0.9174 -2.3138
   57SAPC   O21 4174   0.838   3.786  10.323  0.2997 -0.5478  0.9215
   57SAPC   C21 4175   0.742   3.872  10.266  0.1290 -0.0139  0.1423
   57SAPC   O22 4176   0.756   3.992  10.267  0.2697  0.4708  0.7004
   57SAPC   C22 4177   0.655   3.790  10.174 -0.4931 -0.5379  0.3831
   57SAPC   H2R 4178   0.604   3.714  10.237  1.3215 -1.3679  0.9245
   57SAPC   H2S 4179   0.575   3.862  10.146 -0.2115 -0.1252  0.6250
   57SAPC    C3 4180   1.065   3.807  10.250  0.6458  0.1575 -0.0283
   57SAPC    HX 4181   1.072   3.696  10.238  0.5504  0.1477  0.0015
   57SAPC    HY 4182   1.157   3.838  10.303  0.8545 -0.4758 -0.0076
   57SAPC   O31 4183   1.036   3.864  10.119 -0.3794 -0.2716 -0.5125
   57SAPC   C31 4184   1.077   3.990  10.105 -0.7676  0.0080  0.0262
   57SAPC   O32 4185   1.166   4.047  10.171  0.2943 -0.1936  0.2362
   57SAPC   C32 4186   0.998   4.054   9.993  0.0574  0.1151  0.0217
   57SAPC   H2X 4187   1.011   4.164   9.989  1.3555 -0.0526 -1.8996
   57SAPC   H2Y 4188   0.889   4.039  10.008 -0.1958  1.6845 -0.0686
   57SAPC   C23 4189   0.740   3.740  10.057 -0.3155 -0.2650 -0.2388
   57SAPC   H3R 4190   0.803   3.655  10.090 -0.8706 -0.3178  0.7275
   57SAPC   H3S 4191   0.796   3.819  10.002  0.3413  0.2656  1.1665
   57SAPC   C24 4192   0.648   3.688   9.941 -0.6920 -0.4594  0.0944
   57SAPC   H4R 4193   0.594   3.777   9.902  1.0521  0.7092  0.2493
   57SAPC   H4S 4194   0.582   3.608   9.981 -0.4185 -1.1109 -0.7165
   57SAPC   C25 4195   0.725   3.624   9.829 -0.1625  0.3203 -0.2927
   57SAPC   H5R 4196   0.775   3.527   9.846  0.5891  0.9002  0.8759
   57SAPC   C26 4197   0.727   3.667   9.695  0.6428  0.2448  0.5805
   57SAPC   H6R 4198   0.793   3.616   9.623  1.3883  0.4355  1.1102
   57SAPC   C27 4199   0.660   3.789   9.642  0.2810 -0.7770  0.3375
   57SAPC   H7R 4200   0.698   3.797   9.538 -0.6990  1.9575  0.0906
   57SAPC   H7S 4201   0.707   3.877   9.692 -1.1320  0.1419  0.1192
   57SAPC   C28 4202   0.510   3.789   9.638 -0.6649  0.2496  0.3258
   57SAPC   H8R 4203   0.458   3.704   9.684  0.3607  0.2283  1.5373
   57SAPC   C29 4204   0.432   3.874   9.570 -0.3007 -0.6943  0.1929
   57SAPC   H9R 4205   0.323   3.856   9.568 -0.1864 -1.3737 -2.6070
   57SAPC  C210 4206   0.472   3.998   9.491 -0.0732 -0.5905  0.0516
   57SAPC  H10R 4207   0.573   4.029   9.527 -0.0472 -0.5129 -0.0897
   57SAPC  H10S 4208   0.413   4.090   9.508 -0.0341 -0.8307  1.6649
   57SAPC  C211 4209   0.494   3.975   9.340 -0.4512  0.5141 -0.3187
   57SAPC  H11R 4210   0.553   3.882   9.327  0.0751  0.6344  1.0324
   57SAPC  C212 4211   0.458   4.032   9.228  0.5827  0.0075 -0.3740
   57SAPC  H12R 4212   0.502   3.987   9.137 -1.2064 -1.5120 -0.5529
   57SAPC  C213 4213   0.374   4.156   9.230 -0.5728 -0.4589 -0.1081
   57SAPC  H13R 4214   0.289   4.136   9.298  0.7706 -1.7212  1.2589
   57SAPC  H13S 4215   0.327   4.174   9.130 -1.7859  2.2272  0.8522
   57SAPC  C214 4216   0.441   4.289   9.267 -0.0751  0.1913 -0.2088
   57SAPC  H14R 4217   0.545   4.277   9.300 -0.2454 -0.0077  0.2816
   57SAPC  C215 4218   0.387   4.409   9.247 -0.4746 -0.5101 -0.4760
   57SAPC  H15R 4219   0.449   4.492   9.285  0.3251 -2.1893  2.1891
   57SAPC  C216 4220   0.252   4.440   9.184 -0.2672  0.0679 -0.3418
   57SAPC  H16R 4221   0.246   4.389   9.085 -0.4414 -0.5664 -0.0103
   57SAPC  H16S 4222   0.259   4.547   9.155 -1.5349  0.5217  0.9116
   57SAPC  C217 4223   0.139   4.405   9.284  0.2497  0.0382  0.7321
   57SAPC  H17R 4224   0.141   4.473   9.372 -0.0340  1.8327 -0.5963
   57SAPC  H17S 4225   0.153   4.297   9.309  2.8339  0.2009  0.2585
   57SAPC  C218 4226  -0.005   4.410   9.223 -0.6126 -0.2787  0.1600
   57SAPC  H18R 4227  -0.021   4.497   9.157 -1.4248  1.1190  2.0842
   57SAPC  H18S 4228  -0.067   4.422   9.315 -0.1288 -1.0362  0.5980
   57SAPC  C219 4229  -0.055   4.275   9.152  0.2223 -1.0576  0.2165
   57SAPC  H19R 4230  -0.037   4.191   9.223 -1.4096 -0.2674  1.6404
   57SAPC  H19S 4231  -0.012   4.252   9.052 -0.6106  0.5541 -0.5476
   57SAPC  C220 4232  -0.203   4.279   9.130 -0.1317 -0.3322 -0.2484
   57SAPC  H20R 4233  -0.234   4.359   9.060  1.7060 -0.5245 -1.3188
   57SAPC  H20S 4234  -0.246   4.296   9.231  1.8516 -2.4861  1.0538
   57SAPC  H20T 4235  -0.244   4.182   9.097  1.1218 -0.9238 -0.1254
   57SAPC   C33 4236   1.036   4.000   9.853  0.1922  0.3686 -0.4120
   57SAPC   H3X 4237   1.002   3.896   9.831  0.5241  0.1618  0.0402
   57SAPC   H3Y 4238   1.146   4.001   9.837  0.1741 -0.6549 -0.6616
   57SAPC   C34 4239   0.974   4.075   9.736  0.1227  0.8958  0.5705
   57SAPC   H4X 4240   1.014   4.178   9.724  0.4956  0.7714  0.7271
   57SAPC   H4Y 4241   0.864   4.064   9.737  0.2264 -1.6614 -1.7457
   57SAPC   C35 4242   1.009   3.996   9.606  0.0351  1.0293  0.5935
   57SAPC   H5X 4243   0.980   3.888   9.613  3.3935 -0.2593 -2.2864
   57SAPC   H5Y 4244   1.119   3.993   9.595 -0.0174 -1.3732  0.0432
   57SAPC   C36 4245   0.937   4.057   9.488  0.5729  0.1777  0.0082
   57SAPC   H6X 4246   0.959   4.166   9.483 -0.6916  0.4724  0.5175
   57SAPC   H6Y 4247   0.828   4.044   9.507  0.2462 -1.0735 -2.3435
   57SAPC   C37 4248   0.976   3.991   9.362  0.3239  0.6512  0.0026
   57SAPC   H7X 4249   0.955   3.882   9.358  0.0069  0.7352 -0.8034
   57SAPC   H7Y 4250   1.086   3.996   9.349  0.3547 -1.2103 -0.8193
   57SAPC   C38 4251   0.910   4.050   9.246 -0.6571 -0.1805 -0.2817
   57SAPC   H8X 4252   0.937   4.158   9.242 -4.1944  0.8392  0.2301
   57SAPC   H8Y 4253   0.801   4.044   9.265 -0.7591  0.9379 -0.4647
   57SAPC   C39 4254   0.946   3.970   9.116 -0.3503 -0.0635  0.0063
   57SAPC   H9X 4255   0.909   3.866   9.131 -1.4822  0.2808 -0.3507
   57SAPC   H9Y 4256   1.057   3.961   9.124 -0.1098  2.5667  0.5572
   57SAPC  C310 4257   0.875   4.040   8.996  0.2940 -0.4318  0.0969
   57SAPC  H10X 4258   0.942   4.109   8.942 -2.1948  2.6039  0.5714
   57SAPC  H10Y 4259   0.799   4.114   9.030 -0.7452 -1.2069 -0.4495
   57SAPC  C311 4260   0.813   3.939   8.899  0.1442 -0.0858 -0.1624
   57SAPC  H11X 4261   0.726   3.894   8.951  0.9384  0.1818  1.4859
   57SAPC  H11Y 4262   0.887   3.857   8.888  0.2290  0.1123 -1.0781
   57SAPC  C312 4263   0.764   3.993   8.769 -0.0327 -0.0548 -0.3683
   57SAPC  H12X 4264   0.710   3.912   8.716 -0.5187 -0.2196  0.3766
   57SAPC  H12Y 4265   0.852   4.020   8.706 -0.9323 -0.6411 -1.9144
   57SAPC  C313 4266   0.694   4.130   8.772  0.0471  0.7287 -0.1066
   57SAPC  H13X 4267   0.699   4.176   8.671 -3.5390 -0.8591 -1.1875
   57SAPC  H13Y 4268   0.756   4.198   8.834  0.9177  0.8199 -1.0556
   57SAPC  C314 4269   0.542   4.115   8.802  0.2282  1.3155 -0.2611
   57SAPC  H14X 4270   0.524   4.094   8.910 -3.3455  2.1091 -0.5701
   57SAPC  H14Y 4271   0.483   4.033   8.755 -0.9064  0.4284  2.5054
   57SAPC  C315 4272   0.469   4.252   8.781 -0.1655  0.5061 -0.3329
   57SAPC  H15X 4273   0.483   4.277   8.673 -0.5470 -0.1718 -0.5466
   57SAPC  H15Y 4274   0.526   4.324   8.843  0.9806 -0.4810 -0.2137
   57SAPC  C316 4275   0.315   4.247   8.814 -0.2200 -0.2479 -0.6948
   57SAPC  H16X 4276   0.305   4.212   8.919  0.0813  0.1583 -0.5265
   57SAPC  H16Y 4277   0.263   4.171   8.753 -1.9712 -1.3816  2.0139
   57SAPC  C317 4278   0.243   4.383   8.814 -0.0773 -0.2549  0.2559
   57SAPC  H17X 4279   0.281   4.446   8.897 -2.0724  1.4557 -0.0247
   57SAPC  H17Y 4280   0.136   4.365   8.836 -0.0060 -0.0253  0.8110
   57SAPC  C318 4281   0.251   4.464   8.683  0.3324 -0.6898 -0.5446
   57SAPC  H18X 4282   0.351   4.500   8.653  0.2677  0.5920  0.7048
   57SAPC  H18Y 4283   0.194   4.558   8.692  1.5664 -0.0404  0.7545
   57SAPC  H18Z 4284   0.214   4.400   8.600 -0.8490  1.5625 -1.8520
   58SAPC     N 4285   4.548   2.128  10.768  0.4202  0.2285 -0.0231
   58SAPC   C12 4286   4.658   2.034  10.807 -0.1243 -0.4387 -0.1904
   58SAPC  H12A 4287   4.621   1.950  10.865  0.9870  0.1048  1.3786
   58SAPC  H12B 4288   4.715   2.084  10.884 -2.3522  1.2047  0.5134
   58SAPC   C13 4289   4.597   2.225  10.664  0.1905 -0.1151 -0.0209
   58SAPC  H13A 4290   4.632   2.177  10.574  2.6375  0.4330  0.5617
   58SAPC  H13B 4291   4.518   2.295  10.641  0.9298  1.0609  0.9624
   58SAPC  H13C 4292   4.673   2.285  10.710  0.7452  0.3503 -1.4797
   58SAPC   C14 4293   4.432   2.054  10.710  0.7688  0.1789 -0.4372
   58SAPC  H14A 4294   4.345   2.116  10.697  0.4672 -0.2371 -0.4194
   58SAPC  H14B 4295   4.456   2.007  10.616  0.4335  0.8260 -0.8483
   58SAPC  H14C 4296   4.392   1.971  10.767  0.0209 -0.6715 -2.1502
   58SAPC   C15 4297   4.508   2.205  10.886 -0.1620 -0.1360  0.0572
   58SAPC  H15A 4298   4.597   2.256  10.921 -0.0552 -0.3598  0.1123
   58SAPC  H15B 4299   4.435   2.282  10.867  0.1443  0.4008  0.9828
   58SAPC  H15C 4300   4.471   2.153  10.973 -1.1269  2.9048  1.6152
   58SAPC   C11 4301   4.764   1.975  10.703  0.2615  0.3837  0.3000
   58SAPC  H11A 4302   4.836   1.910  10.757 -0.6452  1.0338  2.3944
   58SAPC  H11B 4303   4.826   2.062  10.671  1.5871 -0.9220 -0.7854
   58SAPC     P 4304   4.656   1.772  10.598  0.1932 -0.3258  0.1292
   58SAPC   O13 4305   4.697   1.716  10.725 -0.5189 -0.1068 -0.5645
   58SAPC   O14 4306   4.513   1.760  10.557  0.3770  0.4473 -0.5771
   58SAPC   O12 4307   4.697   1.923  10.589  0.6362  0.4549  0.0280
   58SAPC   O11 4308   4.740   1.706  10.488  0.2348 -0.2262 -0.1136
   58SAPC    C1 4309   4.813   1.786  10.395  0.0739 -0.1162  0.2910
   58SAPC    HA 4310   4.852   1.883  10.434  1.3405 -0.8924  1.0138
   58SAPC    HB 4311   4.905   1.728  10.372 -0.0248 -0.1142 -0.1040
   58SAPC    C2 4312   4.744   1.804  10.258  0.6921  0.3349  0.9087
   58SAPC    HS 4313   4.795   1.877  10.191 -0.1120  0.0387 -0.0668
   58SAPC   O21 4314   4.613   1.859  10.275  0.2533  0.3917  0.1819
   58SAPC   C21 4315   4.605   1.988  10.318 -0.6158 -0.0710  0.3337
   58SAPC   O22 4316   4.697   2.069  10.312 -0.1352  0.7041 -0.0750
   58SAPC   C22 4317   4.463   2.022  10.354  0.1708 -0.3525  0.0668
   58SAPC   H2R 4318   4.426   1.950  10.430 -2.1545 -0.6188 -1.2143
   58SAPC   H2S 4319   4.451   2.123  10.399 -1.1828 -0.0018 -0.9829
   58SAPC    C3 4320   4.734   1.665  10.189  0.2041  0.5593  0.5051
   58SAPC    HX 4321   4.689   1.597  10.265  1.3213 -0.1522  0.5613
   58SAPC    HY 4322   4.835   1.620  10.178  0.0623  0.2567  0.4538
   58SAPC   O31 4323   4.675   1.671  10.052 -0.3210 -0.1919 -0.8526
   58SAPC   C31 4324   4.547   1.629  10.043  0.4348 -0.2171 -0.0107
   58SAPC   O32 4325   4.478   1.596  10.133 -0.1738  0.0470  0.3270
   58SAPC   C32 4326   4.499   1.644   9.902 -0.7198 -0.6346 -0.0429
   58SAPC   H2X 4327   4.415   1.715   9.886  0.3208 -0.0346 -3.4138
   58SAPC   H2Y 4328   4.472   1.539   9.875  1.1673 -1.5378  1.3701
   58SAPC   C23 4329   4.369   2.014  10.228 -0.5677 -0.0532 -0.3245
   58SAPC   H3R 4330   4.270   2.036  10.272  0.0077  0.6409  0.6864
   58SAPC   H3S 4331   4.374   1.914  10.180 -2.7939 -0.7708  0.8149
   58SAPC   C24 4332   4.390   2.112  10.118 -0.1912  0.5474  0.4477
   58SAPC   H4R 4333   4.499   2.106  10.100 -0.2170  1.7665 -0.2097
   58SAPC   H4S 4334   4.369   2.213  10.159 -1.1130  0.8665 -0.7451
   58SAPC   C25 4335   4.315   2.062   9.998 -0.1446 -0.5887  0.5160
   58SAPC   H5R 4336   4.211   2.037  10.025 -0.6281 -0.9810 -1.5632
   58SAPC   C26 4337   4.359   2.048   9.866 -0.1909 -0.4576  0.0425
   58SAPC   H6R 4338   4.277   2.036   9.793 -1.7402  0.2749  1.5925
   58SAPC   C27 4339   4.494   2.077   9.811 -0.4134  0.9899 -0.4040
   58SAPC   H7R 4340   4.501   2.028   9.712  0.0633  1.6038 -0.6846
   58SAPC   H7S 4341   4.562   2.020   9.878  1.7307  0.1103 -3.1259
   58SAPC   C28 4342   4.532   2.223   9.805  0.6332  0.4314  0.7286
   58SAPC   H8R 4343   4.517   2.284   9.895  1.1372 -0.8205  1.7001
   58SAPC   C29 4344   4.582   2.280   9.695  0.0623  0.2492 -0.0283
   58SAPC   H9R 4345   4.586   2.390   9.692 -0.5219  0.2537 -0.9997
   58SAPC  C210 4346   4.605   2.215   9.554  0.1645 -0.9384 -0.0383
   58SAPC  H10R 4347   4.633   2.109   9.571 -1.4818 -1.1362  1.8763
   58SAPC  H10S 4348   4.688   2.270   9.504  0.8310  0.5121  2.4826
   58SAPC  C211 4349   4.481   2.224   9.467  0.2269  0.5427 -0.2517
   58SAPC  H11R 4350   4.385   2.242   9.518 -0.3347  1.5865 -1.5967
   58SAPC  C212 4351   4.481   2.220   9.333 -0.5702  0.0253 -0.1825
   58SAPC  H12R 4352   4.379   2.241   9.296 -1.3266 -1.2097  1.0909
   58SAPC  C213 4353   4.592   2.206   9.226  0.3335  0.4692  0.6436
   58SAPC  H13R 4354   4.586   2.116   9.162  2.2086 -0.3901  1.5973
   58SAPC  H13S 4355   4.676   2.181   9.295 -0.3758 -1.3342  0.9006
   58SAPC  C214 4356   4.627   2.328   9.150 -0.6018  0.0426 -0.8991
   58SAPC  H14R 4357   4.685   2.402   9.206  1.4705 -0.4336 -2.2998
   58SAPC  C215 4358   4.590   2.351   9.031 -0.0718 -0.9734  0.7918
   58SAPC  H15R 4359   4.635   2.440   8.985 -2.3865 -0.0330  0.2218
   58SAPC  C216 4360   4.500   2.268   8.935  0.2825 -0.4301 -0.4522
   58SAPC  H16R 4361   4.396   2.305   8.920  0.7258  0.2858 -1.9159
   58SAPC  H16S 4362   4.492   2.160   8.959  0.6323 -0.7446 -1.6887
   58SAPC  C217 4363   4.563   2.267   8.796 -0.1347  0.2492  0.6540
   58SAPC  H17R 4364   4.660   2.214   8.802 -0.7785 -1.0795 -0.1757
   58SAPC  H17S 4365   4.577   2.365   8.745  1.2216 -0.8359 -1.1827
   58SAPC  C218 4366   4.475   2.195   8.695  0.4018  0.4376  0.3763
   58SAPC  H18R 4367   4.386   2.258   8.672 -0.4916 -0.6774  0.7033
   58SAPC  H18S 4368   4.450   2.089   8.716 -1.9140  0.7113 -0.7481
   58SAPC  C219 4369   4.552   2.193   8.558 -0.3536 -0.1374  0.0939
   58SAPC  H19R 4370   4.608   2.287   8.540 -0.1113  0.2329  2.4452
   58SAPC  H19S 4371   4.476   2.186   8.478 -0.9125  1.1975  0.4764
   58SAPC  C220 4372   4.647   2.080   8.546 -0.3262  0.2079  0.2707
   58SAPC  H20R 4373   4.569   2.001   8.546 -0.5260  0.4030  0.4272
   58SAPC  H20S 4374   4.713   2.068   8.635  0.9209  0.4439 -0.6005
   58SAPC  H20T 4375   4.693   2.079   8.445 -0.3642 -1.4165  0.2343
   58SAPC   C33 4376   4.597   1.705   9.792 -0.2805 -0.1097 -1.4066
   58SAPC   H3X 4377   4.678   1.632   9.777  0.9762  0.8146  0.4789
   58SAPC   H3Y 4378   4.639   1.806   9.815  2.5960 -1.4220 -0.4528
   58SAPC   C34 4379   4.535   1.711   9.658 -0.2309  0.5024  0.0659
   58SAPC   H4X 4380   4.439   1.768   9.654 -0.7582 -0.1083  2.3764
   58SAPC   H4Y 4381   4.505   1.612   9.620  0.7338  0.6812 -1.2370
   58SAPC   C35 4382   4.638   1.765   9.556  0.3800 -0.2948 -0.8116
   58SAPC   H5X 4383   4.732   1.708   9.568  0.0194 -0.6155  0.6265
   58SAPC   H5Y 4384   4.666   1.867   9.589 -0.2260 -0.3341 -0.1350
   58SAPC   C36 4385   4.587   1.759   9.412 -0.4439 -0.2514  0.2874
   58SAPC   H6X 4386   4.497   1.824   9.407 -0.1828  0.1247  0.4384
   58SAPC   H6Y 4387   4.543   1.660   9.388 -1.5459  0.3339 -0.1892
   58SAPC   C37 4388   4.683   1.810   9.314 -0.3162  0.4221  0.2322
   58SAPC   H7X 4389   4.787   1.771   9.322  0.2936  1.4486 -2.0577
   58SAPC   H7Y 4390   4.708   1.918   9.321 -3.4174  1.2811 -0.6423
   58SAPC   C38 4391   4.630   1.793   9.170  0.6073 -0.3665  0.0111
   58SAPC   H8X 4392   4.526   1.830   9.172  0.0450 -1.8988  1.0272
   58SAPC   H8Y 4393   4.628   1.683   9.152  0.3008 -1.0224  3.2861
   58SAPC   C39 4394   4.727   1.851   9.065  0.6076  0.2009  0.4387
   58SAPC   H9X 4395   4.825   1.807   9.092 -0.0430  0.0365  2.7675
   58SAPC   H9Y 4396   4.735   1.960   9.080  0.0163  0.0257  2.3495
   58SAPC  C310 4397   4.680   1.804   8.921 -0.3655  0.4025 -0.7023
   58SAPC  H10X 4398   4.588   1.860   8.894 -0.4844  0.6959  0.3093
   58SAPC  H10Y 4399   4.649   1.697   8.927  0.4825  0.1882 -0.0137
   58SAPC  C311 4400   4.786   1.830   8.819  0.0359 -0.1918  0.8143
   58SAPC  H11X 4401   4.886   1.805   8.862  0.5367  1.1582  0.4931
   58SAPC  H11Y 4402   4.798   1.940   8.818  1.1526 -0.2969  0.8881
   58SAPC  C312 4403   4.768   1.777   8.675 -0.4804 -0.6464 -0.4861
   58SAPC  H12X 4404   4.681   1.823   8.624 -1.3538 -1.4389  0.2561
   58SAPC  H12Y 4405   4.736   1.671   8.682 -1.0722 -0.5946 -2.0249
   58SAPC  C313 4406   4.893   1.782   8.595  0.1559  0.5924  0.5497
   58SAPC  H13X 4407   4.971   1.710   8.627  0.5229  1.7481  2.3846
   58SAPC  H13Y 4408   4.941   1.882   8.604 -0.0132  0.9940 -2.1760
   58SAPC  C314 4409   4.864   1.772   8.446  0.2447 -0.4268 -0.5003
   58SAPC  H14X 4410   4.962   1.788   8.398 -0.0346 -1.3116 -1.4005
   58SAPC  H14Y 4411   4.792   1.850   8.413  0.6223 -0.0172 -0.3611
   58SAPC  C315 4412   4.815   1.634   8.403 -1.0938  0.1886  0.1739
   58SAPC  H15X 4413   4.720   1.605   8.453  0.3787 -1.2260  2.3673
   58SAPC  H15Y 4414   4.899   1.567   8.433  0.4387  0.8577 -2.3229
   58SAPC  C316 4415   4.810   1.619   8.253  0.1913  0.5776 -0.0891
   58SAPC  H16X 4416   4.913   1.613   8.212 -0.1110  0.2036 -0.7939
   58SAPC  H16Y 4417   4.769   1.713   8.209  0.1287  0.4980 -0.1981
   58SAPC  C317 4418   4.726   1.503   8.208 -0.2081  0.1440 -0.5337
   58SAPC  H17X 4419   4.631   1.504   8.265 -0.6310 -3.6248 -0.9455
   58SAPC  H17Y 4420   4.783   1.413   8.240  1.4742  0.8998 -1.2642
   58SAPC  C318 4421   4.711   1.486   8.058 -0.3099  0.1065  0.3511
   58SAPC  H18X 4422   4.650   1.402   8.019 -0.9383  1.1952 -1.1363
   58SAPC  H18Y 4423   4.812   1.468   8.015 -0.2048  1.2380  0.0724
   58SAPC  H18Z 4424   4.668   1.579   8.015 -0.6775 -0.7852 -1.2711
   59SAPC     N 4425   4.519   2.843  11.237 -0.3378  0.4233 -0.2679
   59SAPC   C12 4426   4.574   2.853  11.093  0.3198  0.0794  1.1107
   59SAPC  H12A 4427   4.503   2.907  11.032 -2.0904 -0.8068  2.9864
   59SAPC  H12B 4428   4.580   2.750  11.062 -1.1564  0.6114 -1.2474
   59SAPC   C13 4429   4.615   2.786  11.339 -0.1452  0.8846  0.6011
   59SAPC  H13A 4430   4.677   2.709  11.296 -0.4240  1.0276 -0.0699
   59SAPC  H13B 4431   4.673   2.866  11.381 -2.0318  1.4396  2.2877
   59SAPC  H13C 4432   4.556   2.746  11.420  0.7766 -3.3178 -0.5240
   59SAPC   C14 4433   4.472   2.966  11.293  0.3226 -0.4526  0.0528
   59SAPC  H14A 4434   4.553   3.035  11.312 -0.6012  0.2248  1.8548
   59SAPC  H14B 4435   4.382   3.012  11.254  1.6222  3.7527  1.4374
   59SAPC  H14C 4436   4.446   2.948  11.397 -0.1984  1.4026  0.2850
   59SAPC   C15 4437   4.394   2.765  11.219  0.6366 -0.2657  0.7086
   59SAPC  H15A 4438   4.332   2.759  11.308 -0.6609 -2.2453 -0.2731
   59SAPC  H15B 4439   4.336   2.813  11.142  1.7659  0.9727  0.5927
   59SAPC  H15C 4440   4.418   2.663  11.195  0.2020 -0.3641  0.6803
   59SAPC   C11 4441   4.708   2.918  11.069 -0.3211  0.1382 -0.3176
   59SAPC  H11A 4442   4.723   3.021  11.107  1.3253  0.0815 -0.7365
   59SAPC  H11B 4443   4.728   2.921  10.960  0.6793 -0.2451 -0.1562
   59SAPC     P 4444   4.851   2.702  11.062  0.0842 -0.1766 -0.0272
   59SAPC   O13 4445   4.951   2.637  11.145  0.5654  0.2585  0.5093
   59SAPC   O14 4446   4.723   2.634  11.052  0.3324  0.1308 -0.2835
   59SAPC   O12 4447   4.816   2.840  11.128  0.5086 -0.5481 -0.6048
   59SAPC   O11 4448   4.907   2.738  10.925 -0.8852  0.5989  0.0133
   59SAPC    C1 4449   5.025   2.823  10.915  0.5243 -0.1564 -0.0291
   59SAPC    HA 4450   4.994   2.923  10.950  3.1103  1.1464 -1.2327
   59SAPC    HB 4451   5.098   2.786  10.990 -0.1318 -2.1914 -0.3144
   59SAPC    C2 4452   5.093   2.834  10.774 -0.3073  0.6558 -0.1560
   59SAPC    HS 4453   5.020   2.858  10.695 -2.6455 -1.2672  1.2945
   59SAPC   O21 4454   5.155   2.706  10.757 -0.3547  0.3331  0.0816
   59SAPC   C21 4455   5.182   2.686  10.634  0.3246 -0.0551 -0.4873
   59SAPC   O22 4456   5.133   2.743  10.536  0.8639  0.4785 -0.1300
   59SAPC   C22 4457   5.275   2.562  10.630  1.0366  0.4079 -0.3018
   59SAPC   H2R 4458   5.372   2.591  10.676  1.5402  2.8608 -2.6888
   59SAPC   H2S 4459   5.230   2.481  10.693  0.0944  1.1102 -0.0509
   59SAPC    C3 4460   5.207   2.943  10.778 -0.1211 -0.0012  0.8163
   59SAPC    HX 4461   5.281   2.902  10.850  0.5467  0.9578  0.7023
   59SAPC    HY 4462   5.167   3.040  10.813 -0.6339  0.0530  0.1126
   59SAPC   O31 4463   5.274   2.969  10.653 -0.3882  0.6295  0.1861
   59SAPC   C31 4464   5.204   3.050  10.575  0.1672 -0.3462  0.0117
   59SAPC   O32 4465   5.090   3.088  10.602 -0.9169 -0.0223 -0.2029
   59SAPC   C32 4466   5.284   3.088  10.452  0.0536  0.6219 -0.7700
   59SAPC   H2X 4467   5.368   3.016  10.443 -0.4434 -0.2788  1.3050
   59SAPC   H2Y 4468   5.326   3.187  10.481  0.4311  0.2483 -0.0155
   59SAPC   C23 4469   5.294   2.510  10.480 -0.2077  0.8338  0.2076
   59SAPC   H3R 4470   5.211   2.549  10.417 -0.9505 -1.5140 -0.3673
   59SAPC   H3S 4471   5.271   2.402  10.491 -0.3705  0.5997 -2.0219
   59SAPC   C24 4472   5.430   2.540  10.421 -0.7761 -0.5940  0.1390
   59SAPC   H4R 4473   5.437   2.499  10.318 -0.5491 -0.2254  0.0055
   59SAPC   H4S 4474   5.509   2.496  10.485 -1.9650 -0.9187  1.4306
   59SAPC   C25 4475   5.458   2.690  10.408  0.1184  1.0038  0.1269
   59SAPC   H5R 4476   5.430   2.744  10.499 -2.0093 -0.9193  0.7021
   59SAPC   C26 4477   5.496   2.752  10.299  0.9943  0.0949 -0.2844
   59SAPC   H6R 4478   5.494   2.862  10.308  2.7851  0.0586  1.2185
   59SAPC   C27 4479   5.531   2.701  10.169  0.4054 -0.0726 -0.6163
   59SAPC   H7R 4480   5.604   2.621  10.196 -0.4171 -0.6767 -0.1385
   59SAPC   H7S 4481   5.582   2.781  10.111  2.1205  0.9848  2.1572
   59SAPC   C28 4482   5.422   2.637  10.093 -0.0240 -0.0108  0.8986
   59SAPC   H8R 4483   5.338   2.606  10.157  0.5442 -1.0910  1.1384
   59SAPC   C29 4484   5.413   2.616   9.955  0.7349 -0.4480 -0.6391
   59SAPC   H9R 4485   5.318   2.576   9.917  0.3381 -0.1921  0.0643
   59SAPC  C210 4486   5.512   2.656   9.850  0.4420  0.7770 -0.1589
   59SAPC  H10R 4487   5.526   2.567   9.784  0.4738 -0.7210  1.7641
   59SAPC  H10S 4488   5.611   2.674   9.898  0.1903 -0.7963  1.0039
   59SAPC  C211 4489   5.471   2.781   9.779  0.1661 -0.8639 -0.5370
   59SAPC  H11R 4490   5.434   2.870   9.832 -1.3340 -0.0908 -2.7251
   59SAPC  C212 4491   5.482   2.797   9.645 -0.5533  0.0193 -0.1365
   59SAPC  H12R 4492   5.430   2.887   9.610 -2.3162 -0.3697  1.3153
   59SAPC  C213 4493   5.539   2.705   9.537  0.6367  0.2713  0.9054
   59SAPC  H13R 4494   5.469   2.716   9.451  1.5538  2.0188  0.3470
   59SAPC  H13S 4495   5.536   2.596   9.559 -0.8875  0.0273 -0.3099
   59SAPC  C214 4496   5.673   2.743   9.487 -0.1133 -0.7262 -0.3950
   59SAPC  H14R 4497   5.742   2.727   9.570 -1.0472  0.7018  0.7146
   59SAPC  C215 4498   5.705   2.801   9.365  0.8298 -0.2790  0.3228
   59SAPC  H15R 4499   5.812   2.822   9.350  0.9795 -2.1579 -1.7940
   59SAPC  C216 4500   5.607   2.829   9.252  0.0723  0.2132  0.1991
   59SAPC  H16R 4501   5.643   2.920   9.200 -2.6033  0.9144 -0.6056
   59SAPC  H16S 4502   5.503   2.844   9.289  1.1285  3.3236  2.3061
   59SAPC  C217 4503   5.620   2.713   9.146 -0.5988  0.1439 -0.1117
   59SAPC  H17R 4504   5.606   2.615   9.196 -3.3482  1.4171  1.8752
   59SAPC  H17S 4505   5.723   2.713   9.105  0.5890 -0.8985  2.6484
   59SAPC  C218 4506   5.530   2.724   9.020  0.6916  0.1834  0.1096
   59SAPC  H18R 4507   5.560   2.817   8.967 -1.3187  0.0392 -1.3872
   59SAPC  H18S 4508   5.422   2.732   9.046  0.3301 -1.8728 -0.5646
   59SAPC  C219 4509   5.548   2.609   8.922  0.3009 -0.2477 -0.2801
   59SAPC  H19R 4510   5.648   2.567   8.944  1.5494  2.1715 -0.9440
   59SAPC  H19S 4511   5.543   2.657   8.821  0.7801 -0.5369 -0.4412
   59SAPC  C220 4512   5.453   2.494   8.945  0.7806  0.1227  0.2068
   59SAPC  H20R 4513   5.483   2.433   9.033 -0.2100  1.1807  1.3238
   59SAPC  H20S 4514   5.456   2.426   8.858  0.0384  1.1994 -0.6982
   59SAPC  H20T 4515   5.348   2.532   8.950  0.9805  0.6023  0.9705
   59SAPC   C33 4516   5.198   3.099  10.326 -0.4903 -0.0287 -0.0692
   59SAPC   H3X 4517   5.266   3.164  10.267 -0.2669  0.7032  0.9700
   59SAPC   H3Y 4518   5.105   3.158  10.326  0.7187  1.9628  0.7905
   59SAPC   C34 4519   5.164   2.961  10.266 -0.5802 -0.1440 -0.1670
   59SAPC   H4X 4520   5.098   2.907  10.337 -2.1261 -1.0371 -2.1797
   59SAPC   H4Y 4521   5.255   2.898  10.251 -0.4912 -0.1045  0.2143
   59SAPC   C35 4522   5.103   2.964  10.121 -0.2565 -0.7439  0.0377
   59SAPC   H5X 4523   5.008   3.023  10.119 -0.2914 -0.8102 -0.3945
   59SAPC   H5Y 4524   5.080   2.859  10.092 -0.6401 -0.6326 -0.0691
   59SAPC   C36 4525   5.196   3.022  10.024 -0.4156 -0.1629 -0.0823
   59SAPC   H6X 4526   5.299   2.982  10.030 -0.1957  0.2334 -1.0798
   59SAPC   H6Y 4527   5.198   3.133  10.029  1.5310 -0.0991 -1.1942
   59SAPC   C37 4528   5.135   2.987   9.885  0.0720 -0.4790  0.4391
   59SAPC   H7X 4529   5.025   3.007   9.884  0.2226  0.4855 -0.9969
   59SAPC   H7Y 4530   5.149   2.883   9.850 -0.8351 -0.2023 -0.8367
   59SAPC   C38 4531   5.195   3.096   9.778  0.7684  0.1459 -0.4500
   59SAPC   H8X 4532   5.304   3.079   9.789  0.7311  0.1067 -0.1558
   59SAPC   H8Y 4533   5.162   3.187   9.832 -4.0643 -2.4786  1.7414
   59SAPC   C39 4534   5.134   3.077   9.639  0.2897  0.7344 -0.4188
   59SAPC   H9X 4535   5.031   3.119   9.631  0.8926  1.8927 -3.3781
   59SAPC   H9Y 4536   5.127   2.969   9.616  2.3358  0.5814 -0.4539
   59SAPC  C310 4537   5.224   3.140   9.526 -0.9827  0.8524  0.3074
   59SAPC  H10X 4538   5.325   3.094   9.520 -0.8610  1.2823 -1.6003
   59SAPC  H10Y 4539   5.241   3.247   9.550 -1.1722  1.2467 -1.2296
   59SAPC  C311 4540   5.155   3.132   9.390  0.2650  0.1425  0.2240
   59SAPC  H11X 4541   5.049   3.162   9.403 -0.3257 -1.4989 -0.6234
   59SAPC  H11Y 4542   5.150   3.028   9.352  0.4862  0.2051  0.0223
   59SAPC  C312 4543   5.218   3.233   9.292  0.1241 -0.0323  0.2585
   59SAPC  H12X 4544   5.324   3.208   9.268  0.1716  0.6407 -0.2686
   59SAPC  H12Y 4545   5.223   3.329   9.347 -1.0224 -0.3005  0.8476
   59SAPC  C313 4546   5.149   3.245   9.148  0.2455 -0.0473 -0.5496
   59SAPC  H13X 4547   5.038   3.246   9.154  0.2671  0.1037 -0.0890
   59SAPC  H13Y 4548   5.166   3.159   9.080 -0.7097  0.4478 -1.4459
   59SAPC  C314 4549   5.203   3.373   9.085 -0.4665  0.0991 -0.1964
   59SAPC  H14X 4550   5.312   3.368   9.066 -0.2248  3.0534  0.0184
   59SAPC  H14Y 4551   5.194   3.459   9.154  1.7084  0.0239  0.2241
   59SAPC  C315 4552   5.123   3.403   8.956 -0.6884 -0.7851  0.6060
   59SAPC  H15X 4553   5.175   3.476   8.889 -1.1756 -0.5984  0.4242
   59SAPC  H15Y 4554   5.025   3.440   8.990 -0.0920  0.2237  1.2822
   59SAPC  C316 4555   5.110   3.276   8.861  0.0200 -0.2321  0.5389
   59SAPC  H16X 4556   5.031   3.210   8.903 -1.0423  1.8888  2.1237
   59SAPC  H16Y 4557   5.210   3.229   8.863  0.0397 -0.2069  0.1870
   59SAPC  C317 4558   5.088   3.323   8.720  0.6597  0.8560  0.2203
   59SAPC  H17X 4559   5.180   3.366   8.675 -0.2005  1.7584 -0.7177
   59SAPC  H17Y 4560   5.006   3.397   8.709 -1.5641 -1.3850  0.8549
   59SAPC  C318 4561   5.053   3.202   8.624 -0.0944 -0.1780 -0.5522
   59SAPC  H18X 4562   4.966   3.150   8.670 -1.0592  2.6738  1.1259
   59SAPC  H18Y 4563   5.143   3.136   8.627  0.8711  0.9317  5.1261
   59SAPC  H18Z 4564   5.030   3.242   8.523  0.3748  2.0887  0.1981
   60SAPC     N 4565   6.741   1.079  10.801  0.1068 -0.5602 -0.1413
   60SAPC   C12 4566   6.802   1.212  10.852 -0.8337  0.5957 -0.5014
   60SAPC  H12A 4567   6.874   1.183  10.928 -0.1265  0.0808 -1.3543
   60SAPC  H12B 4568   6.725   1.266  10.905  0.6069  0.3034  2.0929
   60SAPC   C13 4569   6.638   1.104  10.702  0.2926 -0.7160 -0.3971
   60SAPC  H13A 4570   6.671   1.186  10.640  0.7194  0.3352  1.1415
   60SAPC  H13B 4571   6.616   1.013  10.649  0.2025  0.0270 -1.6752
   60SAPC  H13C 4572   6.544   1.136  10.746 -0.1768 -0.5969 -1.4609
   60SAPC   C14 4573   6.843   0.995  10.724 -0.0081 -0.6790 -0.6413
   60SAPC  H14A 4574   6.791   0.912  10.679 -0.3702 -0.6368 -0.3059
   60SAPC  H14B 4575   6.888   1.055  10.646 -2.2011 -0.1302 -1.5525
   60SAPC  H14C 4576   6.923   0.964  10.790  1.7044  2.6692 -0.9288
   60SAPC   C15 4577   6.674   1.007  10.904  0.0061 -0.0879  0.5381
   60SAPC  H15A 4578   6.615   1.069  10.969 -0.4806 -0.3671  0.3710
   60SAPC  H15B 4579   6.607   0.930  10.867  1.8840 -1.1245 -0.9056
   60SAPC  H15C 4580   6.745   0.959  10.970 -0.4379  0.7408  1.6459
   60SAPC   C11 4581   6.861   1.320  10.758  0.2257 -0.6890  0.2694
   60SAPC  H11A 4582   6.886   1.408  10.820  0.6071 -0.8680  0.3726
   60SAPC  H11B 4583   6.777   1.339  10.688 -0.4200 -3.5198  0.1528
   60SAPC     P 4584   7.116   1.259  10.725 -0.0989 -0.3283 -0.2594
   60SAPC   O13 4585   7.121   1.244  10.869 -0.0037  0.2626 -0.3842
   60SAPC   O14 4586   7.179   1.152  10.647 -0.2000 -0.3383  0.0754
   60SAPC   O12 4587   6.964   1.269  10.680  0.0638 -0.2834  0.2080
   60SAPC   O11 4588   7.188   1.403  10.680  0.0222  0.0758 -0.2149
   60SAPC    C1 4589   7.116   1.514  10.628  0.1261 -0.4495  0.6342
   60SAPC    HA 4590   7.014   1.505  10.672 -0.4729 -1.2228 -0.8506
   60SAPC    HB 4591   7.158   1.615  10.645  0.7527 -0.4071 -0.9991
   60SAPC    C2 4592   7.101   1.494  10.475  0.1874 -0.4118  0.5950
   60SAPC    HS 4593   7.052   1.396  10.458 -3.1574  0.8337  2.1289
   60SAPC   O21 4594   7.231   1.492  10.417 -0.5994 -0.1774  0.6355
   60SAPC   C21 4595   7.264   1.400  10.325  0.6155  0.1558 -0.4459
   60SAPC   O22 4596   7.180   1.323  10.280 -0.4432  0.1534  0.4797
   60SAPC   C22 4597   7.406   1.411  10.283  0.7126 -0.1599 -0.0284
   60SAPC   H2R 4598   7.419   1.444  10.178  3.6950 -0.3978  0.1723
   60SAPC   H2S 4599   7.449   1.488  10.351 -0.7644  0.3594  0.3419
   60SAPC    C3 4600   7.018   1.607  10.406 -0.5779 -0.3556 -0.0567
   60SAPC    HX 4601   7.057   1.707  10.433 -2.7349  0.6463 -0.4232
   60SAPC    HY 4602   6.915   1.609  10.449  0.5850  0.6151  2.9744
   60SAPC   O31 4603   7.011   1.604  10.259 -0.3253 -0.1205  0.1163
   60SAPC   C31 4604   6.939   1.505  10.203  1.4345 -0.0263  0.5954
   60SAPC   O32 4605   6.887   1.421  10.270  0.7368  0.1130 -0.0130
   60SAPC   C32 4606   6.948   1.503  10.052 -0.1130 -0.3211  0.0583
   60SAPC   H2X 4607   7.056   1.499  10.026 -0.3497  1.2085 -1.3396
   60SAPC   H2Y 4608   6.912   1.606  10.030 -1.3481 -0.4851  1.1796
   60SAPC   C23 4609   7.492   1.275  10.303  0.1880 -0.6525 -0.5931
   60SAPC   H3R 4610   7.461   1.236  10.402  1.8259  0.5490  0.4289
   60SAPC   H3S 4611   7.595   1.314  10.313 -0.5670  1.0491  1.1728
   60SAPC   C24 4612   7.473   1.170  10.193 -0.4836  0.3806 -0.0578
   60SAPC   H4R 4613   7.368   1.139  10.176 -0.4934 -0.7200  1.7359
   60SAPC   H4S 4614   7.516   1.070  10.215  2.3798  1.1147 -1.7970
   60SAPC   C25 4615   7.540   1.211  10.069  0.4375  0.2007  0.4298
   60SAPC   H5R 4616   7.477   1.272  10.003  1.5065 -0.9344 -1.7512
   60SAPC   C26 4617   7.661   1.171  10.029 -0.5456 -0.6394 -0.5355
   60SAPC   H6R 4618   7.709   1.216   9.940  0.8008  0.7710  0.8357
   60SAPC   C27 4619   7.757   1.088  10.103  0.2876  0.8318 -0.1442
   60SAPC   H7R 4620   7.708   1.055  10.197 -1.4082 -0.9341 -1.5692
   60SAPC   H7S 4621   7.836   1.160  10.134 -1.0779  1.5860  1.7385
   60SAPC   C28 4622   7.813   0.974  10.026 -0.2873  0.7245 -0.0474
   60SAPC   H8R 4623   7.775   0.878  10.064 -2.4535  1.7771  0.6000
   60SAPC   C29 4624   7.898   0.968   9.926 -0.3203  0.4550 -0.0757
   60SAPC   H9R 4625   7.934   0.868   9.897  2.4176  0.6749  2.0140
   60SAPC  C210 4626   7.979   1.085   9.870  0.7533 -0.3173 -0.2934
   60SAPC  H10R 4627   7.986   1.166   9.946  0.9162 -1.5664  1.0560
   60SAPC  H10S 4628   7.919   1.132   9.789  3.0708  1.1710 -1.2737
   60SAPC  C211 4629   8.115   1.063   9.803  0.8636 -0.5035  0.1949
   60SAPC  H11R 4630   8.193   1.074   9.880 -0.0295  0.8307  0.9507
   60SAPC  C212 4631   8.147   1.015   9.679  0.2672 -0.6726  0.3102
   60SAPC  H12R 4632   8.251   1.027   9.646 -0.6414  0.1643 -2.5934
   60SAPC  C213 4633   8.046   0.970   9.575  0.3081 -0.1075  0.4858
   60SAPC  H13R 4634   7.940   0.957   9.607  0.3505  0.5309  0.9249
   60SAPC  H13S 4635   8.076   0.868   9.545 -2.4286 -0.3226 -1.9548
   60SAPC  C214 4636   8.037   1.053   9.447  0.9350 -0.3406  0.0916
   60SAPC  H14R 4637   7.976   1.144   9.458 -0.3605 -0.8335 -2.4106
   60SAPC  C215 4638   8.086   1.033   9.322  0.1593 -0.2170 -0.2082
   60SAPC  H15R 4639   8.078   1.114   9.248 -3.2720  0.6347  0.8893
   60SAPC  C216 4640   8.160   0.913   9.272 -0.4308 -0.0406 -0.2809
   60SAPC  H16R 4641   8.161   0.828   9.344  2.4377  0.2969  0.2040
   60SAPC  H16S 4642   8.268   0.940   9.263 -0.4270  0.2953  0.6263
   60SAPC  C217 4643   8.125   0.868   9.134 -0.3253  0.2100 -0.1825
   60SAPC  H17R 4644   8.020   0.888   9.105 -0.6091  0.3618  0.8863
   60SAPC  H17S 4645   8.126   0.757   9.138  1.1706  0.0819 -2.3285
   60SAPC  C218 4646   8.213   0.930   9.020 -0.1337 -0.0493  0.0171
   60SAPC  H18R 4647   8.273   0.845   8.982 -1.4381 -1.4669  1.0258
   60SAPC  H18S 4648   8.282   1.009   9.059 -1.3969  0.2450  1.8104
   60SAPC  C219 4649   8.139   0.980   8.894  0.9018 -0.0597 -0.5068
   60SAPC  H19R 4650   8.053   1.043   8.924 -0.1319 -1.1169 -1.1848
   60SAPC  H19S 4651   8.094   0.892   8.844  0.0331  0.4155 -0.5839
   60SAPC  C220 4652   8.238   1.046   8.800  0.1736  0.2025 -0.1451
   60SAPC  H20R 4653   8.343   1.011   8.814 -0.2461 -0.6827  0.9144
   60SAPC  H20S 4654   8.252   1.153   8.823 -0.6942  0.7169 -1.8284
   60SAPC  H20T 4655   8.211   1.044   8.692  1.3227 -0.2748 -0.4419
   60SAPC   C33 4656   6.869   1.398   9.989  0.4835 -0.2553  0.5729
   60SAPC   H3X 4657   6.760   1.401  10.012  0.5556  1.7442  0.8242
   60SAPC   H3Y 4658   6.894   1.297  10.028  0.2299 -0.2078  0.8647
   60SAPC   C34 4659   6.896   1.393   9.838  0.1774 -0.7564  0.4422
   60SAPC   H4X 4660   7.005   1.379   9.819  0.1994 -0.2516  0.1953
   60SAPC   H4Y 4661   6.866   1.489   9.791  2.7651 -0.7309 -1.3912
   60SAPC   C35 4662   6.814   1.288   9.759 -0.1065  0.1424 -0.5086
   60SAPC   H5X 4663   6.706   1.296   9.787  0.1329 -2.2348  1.4430
   60SAPC   H5Y 4664   6.848   1.187   9.790  0.5219  1.0175  1.8992
   60SAPC   C36 4665   6.837   1.299   9.608  0.2182  0.1515  0.2699
   60SAPC   H6X 4666   6.813   1.402   9.574 -1.0443  0.4741  2.0336
   60SAPC   H6Y 4667   6.775   1.218   9.565 -0.0565  0.3961  0.2068
   60SAPC   C37 4668   6.977   1.262   9.564 -0.0610  0.3088  0.4513
   60SAPC   H7X 4669   7.003   1.166   9.614 -0.8622  0.8657  1.9999
   60SAPC   H7Y 4670   7.044   1.342   9.600 -1.4267  0.7421  2.1871
   60SAPC   C38 4671   6.994   1.243   9.410  0.0806 -0.3828  0.2787
   60SAPC   H8X 4672   6.975   1.338   9.356  0.6227 -0.6608 -0.4145
   60SAPC   H8Y 4673   6.918   1.166   9.383 -2.1484  1.2545  1.6094
   60SAPC   C39 4674   7.126   1.178   9.371  0.1535  0.6125  0.3700
   60SAPC   H9X 4675   7.155   1.085   9.424  1.5861  0.5024 -0.5532
   60SAPC   H9Y 4676   7.205   1.250   9.402 -0.2155  0.4697  1.7360
   60SAPC  C310 4677   7.148   1.148   9.225  0.6382 -0.8898 -0.1860
   60SAPC  H10X 4678   7.119   1.236   9.164  0.8450  0.4198  1.5251
   60SAPC  H10Y 4679   7.072   1.072   9.196 -0.3632  0.3949 -1.0893
   60SAPC  C311 4680   7.286   1.093   9.193  0.7717 -0.2523  0.9495
   60SAPC  H11X 4681   7.308   0.997   9.244  2.6304 -0.0540  0.5956
   60SAPC  H11Y 4682   7.368   1.158   9.228  0.1828  0.5973  0.7890
   60SAPC  C312 4683   7.300   1.074   9.041 -0.7739 -0.2862  0.0572
   60SAPC  H12X 4684   7.209   1.028   8.998  0.3753 -1.5219 -1.1540
   60SAPC  H12Y 4685   7.373   0.992   9.025 -1.9593 -1.4315  0.3418
   60SAPC  C313 4686   7.347   1.189   8.950 -0.0401  0.3339  1.0442
   60SAPC  H13X 4687   7.445   1.230   8.982  0.9016 -0.1326 -1.0580
   60SAPC  H13Y 4688   7.269   1.268   8.958 -1.5687 -1.1699  1.8192
   60SAPC  C314 4689   7.363   1.126   8.801 -0.7668 -0.4591 -0.3450
   60SAPC  H14X 4690   7.299   1.035   8.798  1.5361 -2.2973  1.8242
   60SAPC  H14Y 4691   7.467   1.089   8.809 -0.1367  1.4588  0.7171
   60SAPC  C315 4692   7.333   1.225   8.696  1.2110 -0.1606  0.3955
   60SAPC  H15X 4693   7.403   1.191   8.617  1.1983  0.6483  0.0183
   60SAPC  H15Y 4694   7.363   1.325   8.735 -0.6576  0.2828  0.8116
   60SAPC  C316 4695   7.184   1.218   8.641 -0.9035 -0.5854 -0.5371
   60SAPC  H16X 4696   7.117   1.276   8.708  0.8933  1.7514 -0.6259
   60SAPC  H16Y 4697   7.144   1.115   8.652 -2.3358 -0.0769 -0.6963
   60SAPC  C317 4698   7.175   1.284   8.501  0.1334  0.4646 -0.0910
   60SAPC  H17X 4699   7.218   1.224   8.419  0.1482 -0.6694  0.7243
   60SAPC  H17Y 4700   7.221   1.385   8.498 -0.3569  0.7053  0.3137
   60SAPC  C318 4701   7.029   1.301   8.461  1.1270 -0.2045  0.6162
   60SAPC  H18X 4702   6.979   1.206   8.431  0.4536  0.0500  0.9209
   60SAPC  H18Y 4703   7.019   1.362   8.369 -4.0361 -0.9743  0.3631
   60SAPC  H18Z 4704   6.980   1.361   8.541  0.1521  0.1943 -0.2492
   61SAPC     N 4705   2.402   6.615  11.288  0.3452  0.7459  0.2816
   61SAPC   C12 4706   2.319   6.667  11.169  0.5803  0.0837  0.3786
   61SAPC  H12A 4707   2.257   6.752  11.193  1.4118  1.2942 -1.5071
   61SAPC  H12B 4708   2.243   6.596  11.140 -0.8476  1.3590  0.8601
   61SAPC   C13 4709   2.503   6.717  11.332 -0.4554 -0.4098  0.8415
   61SAPC  H13A 4710   2.561   6.744  11.245 -2.7932  0.2438 -0.6367
   61SAPC  H13B 4711   2.462   6.809  11.372  1.1935  1.3185 -1.1820
   61SAPC  H13C 4712   2.569   6.670  11.403  0.9142 -0.4159 -0.3858
   61SAPC   C14 4713   2.316   6.591  11.407 -0.4695 -0.2638  0.0338
   61SAPC  H14A 4714   2.267   6.677  11.450 -0.2404  0.0306 -0.2817
   61SAPC  H14B 4715   2.234   6.529  11.376 -0.9590  0.8598 -1.0111
   61SAPC  H14C 4716   2.374   6.538  11.481 -0.4008  1.1295  1.0152
   61SAPC   C15 4717   2.465   6.480  11.261 -0.1422  0.1693  1.0773
   61SAPC  H15A 4718   2.523   6.442  11.343  0.8697  2.7358  1.6487
   61SAPC  H15B 4719   2.395   6.410  11.217  0.8612  0.2840 -0.7986
   61SAPC  H15C 4720   2.534   6.509  11.183  1.5107 -0.2040  2.3333
   61SAPC   C11 4721   2.400   6.706  11.035  0.2717 -0.0541 -0.4936
   61SAPC  H11A 4722   2.327   6.741  10.958 -0.8844 -1.0276  0.1283
   61SAPC  H11B 4723   2.434   6.607  10.999 -1.0407 -1.1082  1.0438
   61SAPC     P 4724   2.524   6.931  10.981  0.1451  0.3154 -0.0720
   61SAPC   O13 4725   2.441   7.031  11.052  0.3568 -0.9269  0.6826
   61SAPC   O14 4726   2.658   6.975  10.950 -0.2462  0.7022  0.2656
   61SAPC   O12 4727   2.517   6.783  11.054  0.0362 -0.0053  0.0743
   61SAPC   O11 4728   2.462   6.893  10.842 -0.3140 -0.0771  0.0485
   61SAPC    C1 4729   2.453   6.989  10.736 -0.4614 -0.8814  0.6620
   61SAPC    HA 4730   2.472   7.094  10.767  2.4657 -0.3777 -2.2175
   61SAPC    HB 4731   2.532   6.960  10.662 -0.7673 -0.3442  0.1216
   61SAPC    C2 4732   2.318   6.975  10.657  0.0395  0.2254  0.0776
   61SAPC    HS 4733   2.229   6.964  10.724 -0.3118 -1.3224 -0.6052
   61SAPC   O21 4734   2.324   6.863  10.563  0.1482  0.0613 -0.5443
   61SAPC   C21 4735   2.207   6.800  10.533  0.6134  0.8108 -0.0172
   61SAPC   O22 4736   2.096   6.831  10.573 -0.4447 -0.1565  0.1845
   61SAPC   C22 4737   2.243   6.689  10.425  0.1145  0.3585 -1.0408
   61SAPC   H2R 4738   2.259   6.586  10.465  1.0686  0.1843 -1.8212
   61SAPC   H2S 4739   2.151   6.670  10.366 -0.9645  0.8656  0.4103
   61SAPC    C3 4740   2.276   7.101  10.577 -0.0652  0.2032 -0.0834
   61SAPC    HX 4741   2.265   7.177  10.658  0.0248  0.3605 -0.2191
   61SAPC    HY 4742   2.174   7.080  10.538  1.2693 -2.0658 -2.6843
   61SAPC   O31 4743   2.377   7.130  10.475  0.0241 -0.3653 -0.0464
   61SAPC   C31 4744   2.331   7.103  10.348  0.1160 -0.6635 -0.0053
   61SAPC   O32 4745   2.228   7.041  10.326 -0.1196 -0.7130  0.4006
   61SAPC   C32 4746   2.435   7.151  10.244 -0.0001 -0.4917 -0.0687
   61SAPC   H2X 4747   2.532   7.102  10.264  3.6487  4.9432 -2.0201
   61SAPC   H2Y 4748   2.455   7.260  10.249 -0.2260 -0.3370 -1.8205
   61SAPC   C23 4749   2.361   6.736  10.333 -0.3093  0.4169 -0.0553
   61SAPC   H3R 4750   2.455   6.754  10.390  0.1803 -1.7637 -0.0644
   61SAPC   H3S 4751   2.321   6.823  10.278  0.1868  0.0294 -1.0675
   61SAPC   C24 4752   2.398   6.637  10.217 -0.2726 -0.7317 -0.3364
   61SAPC   H4R 4753   2.458   6.699  10.147  0.3091 -0.7918  0.1034
   61SAPC   H4S 4754   2.304   6.609  10.166 -0.0678  0.5382 -1.4678
   61SAPC   C25 4755   2.492   6.527  10.273  0.5653 -0.1957 -1.1880
   61SAPC   H5R 4756   2.578   6.563  10.331 -0.4326  1.3879 -0.6230
   61SAPC   C26 4757   2.485   6.391  10.265  0.6046 -0.0816 -0.4148
   61SAPC   H6R 4758   2.570   6.336  10.306  0.9062  1.5616  1.3022
   61SAPC   C27 4759   2.383   6.321  10.178  0.5121  0.2889 -0.1951
   61SAPC   H7R 4760   2.431   6.269  10.092 -3.0253  2.1536 -3.6239
   61SAPC   H7S 4761   2.310   6.385  10.123  1.8449  0.8286 -1.3855
   61SAPC   C28 4762   2.297   6.221  10.251 -0.0307 -0.2227 -0.5742
   61SAPC   H8R 4763   2.284   6.261  10.352  5.2862 -1.4935  0.9886
   61SAPC   C29 4764   2.239   6.106  10.207  0.2566 -0.4444 -0.5151
   61SAPC   H9R 4765   2.193   6.055  10.293 -0.3918 -0.0101 -0.5933
   61SAPC  C210 4766   2.231   6.034  10.075 -0.0417  0.1862  0.2110
   61SAPC  H10R 4767   2.163   6.101  10.018  1.8736  3.4186  1.4174
   61SAPC  H10S 4768   2.170   5.942  10.084 -1.0321  0.8247  0.1261
   61SAPC  C211 4769   2.369   6.013  10.006  0.3197 -0.5568  0.2533
   61SAPC  H11R 4770   2.451   6.071  10.052 -0.5818  1.7829 -0.9045
   61SAPC  C212 4771   2.384   5.939   9.897 -0.1324 -0.2014 -0.1603
   61SAPC  H12R 4772   2.484   5.945   9.850  0.7647  0.8632  1.7451
   61SAPC  C213 4773   2.286   5.868   9.811  0.0523 -0.0032 -0.0248
   61SAPC  H13R 4774   2.213   5.812   9.873 -0.2481  1.9853  1.5366
   61SAPC  H13S 4775   2.347   5.786   9.769  2.2479  0.2735  2.3389
   61SAPC  C214 4776   2.202   5.941   9.712 -0.7986 -0.3565  0.1663
   61SAPC  H14R 4777   2.128   6.011   9.754 -0.7499  0.9057 -1.7162
   61SAPC  C215 4778   2.206   5.938   9.573  0.3910 -0.2270 -0.1052
   61SAPC  H15R 4779   2.137   6.011   9.529  1.3983 -0.2907 -1.8871
   61SAPC  C216 4780   2.299   5.866   9.483  0.4465 -0.6065  0.6784
   61SAPC  H16R 4781   2.259   5.771   9.443 -1.1867  0.3515 -0.0893
   61SAPC  H16S 4782   2.396   5.842   9.533  1.1307  1.0088  0.2069
   61SAPC  C217 4783   2.331   5.955   9.356 -0.7077  0.2076  0.0926
   61SAPC  H17R 4784   2.384   6.049   9.381  1.5272 -0.1792 -2.6872
   61SAPC  H17S 4785   2.236   5.962   9.299 -0.6017 -0.4602 -0.1812
   61SAPC  C218 4786   2.426   5.880   9.259  0.6812 -0.7529  0.2068
   61SAPC  H18R 4787   2.376   5.786   9.228  1.0390 -1.3314  1.3385
   61SAPC  H18S 4788   2.521   5.851   9.309  1.0773 -0.8023 -0.5582
   61SAPC  C219 4789   2.454   5.973   9.142 -0.1173  0.4364 -0.2424
   61SAPC  H19R 4790   2.520   5.907   9.081 -1.1801  0.3245 -1.3091
   61SAPC  H19S 4791   2.520   6.055   9.179  2.0986 -1.4240  0.1978
   61SAPC  C220 4792   2.342   6.038   9.065  0.8458 -0.0318 -0.3553
   61SAPC  H20R 4793   2.267   6.093   9.124  0.4490 -0.7527 -0.1834
   61SAPC  H20S 4794   2.281   5.961   9.014 -0.0674  0.7815 -0.5185
   61SAPC  H20T 4795   2.393   6.107   8.994  3.7302 -0.8482  0.7830
   61SAPC   C33 4796   2.386   7.121  10.096 -0.0971  0.2536  0.1205
   61SAPC   H3X 4797   2.292   7.177  10.078 -0.0248  0.1492 -0.6114
   61SAPC   H3Y 4798   2.366   7.014  10.074  1.9203  0.5243 -4.0496
   61SAPC   C34 4799   2.510   7.169  10.004 -0.0451 -0.1067 -0.3179
   61SAPC   H4X 4800   2.603   7.110  10.021  0.6285  0.7370 -0.9137
   61SAPC   H4Y 4801   2.525   7.277  10.027 -2.3995  0.4487 -1.1291
   61SAPC   C35 4802   2.491   7.151   9.855  0.6384 -0.2276 -0.1833
   61SAPC   H5X 4803   2.571   7.194   9.791  0.3084  1.4599  0.5118
   61SAPC   H5Y 4804   2.397   7.203   9.830  0.4617 -0.1930  0.5274
   61SAPC   C36 4805   2.487   7.004   9.807  0.0270  0.1012  0.3772
   61SAPC   H6X 4806   2.390   6.980   9.856  0.1266 -0.2567  0.4015
   61SAPC   H6Y 4807   2.561   6.933   9.851 -0.9921 -0.5177  1.1264
   61SAPC   C37 4808   2.472   6.981   9.656  0.2219  0.5819  0.5077
   61SAPC   H7X 4809   2.571   7.005   9.614  0.3123  1.7255  1.3194
   61SAPC   H7Y 4810   2.387   7.041   9.615 -1.1018 -1.2459  0.4449
   61SAPC   C38 4811   2.444   6.835   9.613 -0.7502 -0.3033 -0.1553
   61SAPC   H8X 4812   2.342   6.811   9.649 -0.8989 -0.3493 -0.5901
   61SAPC   H8Y 4813   2.518   6.769   9.663 -0.6479 -0.0633  0.0083
   61SAPC   C39 4814   2.450   6.818   9.458 -0.1425  0.9006 -0.5759
   61SAPC   H9X 4815   2.555   6.824   9.421 -1.2312  4.3593 -3.7194
   61SAPC   H9Y 4816   2.387   6.901   9.420  0.1472  0.4282 -2.1966
   61SAPC  C310 4817   2.386   6.691   9.396 -0.5983 -0.1363  0.1974
   61SAPC  H10X 4818   2.277   6.706   9.411 -0.3368  0.1014  2.2319
   61SAPC  H10Y 4819   2.430   6.601   9.444  0.5357  0.2085 -0.1645
   61SAPC  C311 4820   2.418   6.685   9.248  0.3227  0.2643  0.1413
   61SAPC  H11X 4821   2.526   6.672   9.224  0.3300  1.4796 -0.5629
   61SAPC  H11Y 4822   2.384   6.781   9.203 -3.0815 -0.5444  0.7257
   61SAPC  C312 4823   2.344   6.564   9.188 -0.0705 -0.1696 -0.9102
   61SAPC  H12X 4824   2.238   6.571   9.219  0.5038  1.7968  0.8285
   61SAPC  H12Y 4825   2.381   6.471   9.235 -1.6320 -0.1213  0.4917
   61SAPC  C313 4826   2.350   6.550   9.036 -0.2956  0.8610  0.6539
   61SAPC  H13X 4827   2.452   6.521   9.003 -1.0462 -0.4461 -0.6060
   61SAPC  H13Y 4828   2.321   6.647   8.988 -0.3445 -0.1161 -1.4235
   61SAPC  C314 4829   2.245   6.439   8.998 -0.1894  0.0538 -0.3820
   61SAPC  H14X 4830   2.147   6.470   9.039 -1.0874 -1.6320 -1.1688
   61SAPC  H14Y 4831   2.277   6.343   9.043 -0.7039  0.2330  0.3807
   61SAPC  C315 4832   2.236   6.403   8.851  0.5094 -0.3787  0.3252
   61SAPC  H15X 4833   2.339   6.371   8.825  0.3044 -0.5225 -0.3388
   61SAPC  H15Y 4834   2.206   6.488   8.786  2.9815 -0.2853 -0.7947
   61SAPC  C316 4835   2.146   6.283   8.829  0.0074 -0.4184 -0.3166
   61SAPC  H16X 4836   2.038   6.308   8.832  0.1207  0.1098 -0.4882
   61SAPC  H16Y 4837   2.165   6.208   8.909  2.8812  0.8294  0.3037
   61SAPC  C317 4838   2.181   6.205   8.699 -0.6739 -0.3465  0.4891
   61SAPC  H17X 4839   2.120   6.114   8.683 -1.8985  0.7055 -1.1188
   61SAPC  H17Y 4840   2.285   6.167   8.703 -0.8613 -0.8838  0.4170
   61SAPC  C318 4841   2.160   6.275   8.568  0.3503  0.0296 -0.0332
   61SAPC  H18X 4842   2.054   6.303   8.549 -0.1674 -2.2514 -0.8666
   61SAPC  H18Y 4843   2.181   6.204   8.485 -0.7452  1.3912 -1.5132
   61SAPC  H18Z 4844   2.234   6.357   8.553  1.0706 -0.7330 -0.7926
   62SAPC     N 4845   1.716   0.554  10.492 -0.6586  0.1441 -0.0080
   62SAPC   C12 4846   1.667   0.422  10.534  0.6439  0.9273  0.5465
   62SAPC  H12A 4847   1.647   0.429  10.640 -0.3815  0.6073  0.3826
   62SAPC  H12B 4848   1.749   0.352  10.545  0.2788  0.5890  1.1807
   62SAPC   C13 4849   1.619   0.669  10.525  0.0180 -0.0603 -0.3126
   62SAPC  H13A 4850   1.534   0.661  10.459  1.4531 -0.5703 -2.1821
   62SAPC  H13B 4851   1.583   0.649  10.625  2.6064 -0.7180  0.5758
   62SAPC  H13C 4852   1.669   0.764  10.517  0.6803 -0.4794 -1.2090
   62SAPC   C14 4853   1.850   0.593  10.547  0.3770 -0.8847 -0.2780
   62SAPC  H14A 4854   1.894   0.688  10.519  0.1649 -0.2382  1.4313
   62SAPC  H14B 4855   1.846   0.611  10.654  1.1095 -1.4522 -0.1511
   62SAPC  H14C 4856   1.924   0.516  10.535  1.4383  0.3508 -2.0889
   62SAPC   C15 4857   1.737   0.554  10.341  0.6225  0.0499  0.5721
   62SAPC  H15A 4858   1.758   0.653  10.302  0.9746  0.2379  1.2146
   62SAPC  H15B 4859   1.818   0.488  10.314  1.9874  0.9244  2.2528
   62SAPC  H15C 4860   1.644   0.532  10.291 -0.8070  1.1892  2.5582
   62SAPC   C11 4861   1.541   0.354  10.469 -0.1892  0.2643 -0.7216
   62SAPC  H11A 4862   1.519   0.250  10.502 -2.4674  0.8789 -0.1639
   62SAPC  H11B 4863   1.570   0.339  10.363 -0.2410  0.1283 -0.7168
   62SAPC     P 4864   1.336   0.415  10.612  0.3102 -0.7503  0.1565
   62SAPC   O13 4865   1.424   0.418  10.733  0.0711 -0.2587 -0.2749
   62SAPC   O14 4866   1.223   0.509  10.593 -0.3067 -0.1033  0.0985
   62SAPC   O12 4867   1.427   0.425  10.485 -0.1644  0.2954 -0.6787
   62SAPC   O11 4868   1.283   0.268  10.612  0.4020  0.1823 -0.5481
   62SAPC    C1 4869   1.257   0.193  10.493 -0.8286  0.0939  0.1607
   62SAPC    HA 4870   1.208   0.255  10.414  1.5489 -0.5887 -1.9834
   62SAPC    HB 4871   1.353   0.154  10.453  0.2689  1.2671  1.5462
   62SAPC    C2 4872   1.152   0.081  10.510  0.5482  0.8706  0.4177
   62SAPC    HS 4873   1.186   0.016  10.593  1.1211  0.0210 -0.4724
   62SAPC   O21 4874   1.142   0.007  10.389 -0.0474 -0.5895  0.0317
   62SAPC   C21 4875   1.121  -0.124  10.407 -0.6675  0.3905  0.2964
   62SAPC   O22 4876   1.085  -0.176  10.512  0.5016 -0.0522  0.2960
   62SAPC   C22 4877   1.140  -0.198  10.279  0.0207  0.2398 -0.0535
   62SAPC   H2R 4878   1.061  -0.158  10.212  0.4673  2.0220  0.4423
   62SAPC   H2S 4879   1.243  -0.182  10.242  0.4304 -0.9685  0.4894
   62SAPC    C3 4880   1.010   0.143  10.544 -0.1512 -0.9115 -0.3231
   62SAPC    HX 4881   1.018   0.213  10.631 -2.0615 -0.7975 -0.1961
   62SAPC    HY 4882   0.937   0.068  10.582 -2.1107  0.0132 -2.0725
   62SAPC   O31 4883   0.943   0.209  10.433 -0.4124  0.1347 -0.2559
   62SAPC   C31 4884   0.876   0.130  10.345  1.0427  0.0349  0.2104
   62SAPC   O32 4885   0.846   0.013  10.364 -0.1518 -0.0152 -0.1283
   62SAPC   C32 4886   0.832   0.216  10.228  0.1050  0.4816 -0.2615
   62SAPC   H2X 4887   0.862   0.322  10.244 -0.1868  0.7632 -1.4938
   62SAPC   H2Y 4888   0.721   0.213  10.217  0.1718  2.7768 -2.3507
   62SAPC   C23 4889   1.108  -0.353  10.306 -0.0467 -1.0014 -0.3848
   62SAPC   H3R 4890   1.008  -0.374  10.349  0.7527 -1.7892  1.1803
   62SAPC   H3S 4891   1.185  -0.391  10.377 -0.2975 -0.4912  0.1623
   62SAPC   C24 4892   1.125  -0.436  10.171  0.1011  0.4016 -0.0695
   62SAPC   H4R 4893   1.137  -0.544  10.193  1.1210  0.7244  1.0581
   62SAPC   H4S 4894   1.217  -0.395  10.123 -0.5772  1.7051 -0.3098
   62SAPC   C25 4895   1.005  -0.414  10.076 -0.2245 -0.2570  0.8140
   62SAPC   H5R 4896   0.905  -0.421  10.121 -0.7544 -1.9343 -0.5246
   62SAPC   C26 4897   1.006  -0.387   9.943 -0.4240  0.3881 -0.3272
   62SAPC   H6R 4898   0.912  -0.361   9.892  0.1121 -0.1710 -1.6487
   62SAPC   C27 4899   1.134  -0.385   9.857 -0.1953 -0.2262  0.0642
   62SAPC   H7R 4900   1.173  -0.488   9.844 -0.0020 -0.2335  0.7022
   62SAPC   H7S 4901   1.209  -0.324   9.911  1.3994 -1.7515 -0.3521
   62SAPC   C28 4902   1.109  -0.318   9.723  0.3131  0.2504 -0.3371
   62SAPC   H8R 4903   1.127  -0.210   9.707  1.3613 -0.3966 -4.8228
   62SAPC   C29 4904   1.078  -0.394   9.615  0.6782  0.0742 -0.5923
   62SAPC   H9R 4905   1.070  -0.346   9.517  0.2995 -1.7220 -1.4914
   62SAPC  C210 4906   1.071  -0.541   9.610  0.4599  0.0384  0.4937
   62SAPC  H10R 4907   0.969  -0.567   9.575  0.2066  1.3945  0.1739
   62SAPC  H10S 4908   1.082  -0.600   9.703 -2.3489 -3.9042 -1.3627
   62SAPC  C211 4909   1.182  -0.593   9.521 -0.3175  0.5919  0.0231
   62SAPC  H11R 4910   1.257  -0.633   9.592 -2.2698  1.0767  2.5238
   62SAPC  C212 4911   1.191  -0.619   9.392  0.0879  0.4619  0.2054
   62SAPC  H12R 4912   1.285  -0.653   9.348 -0.5741 -0.0191 -0.8813
   62SAPC  C213 4913   1.080  -0.586   9.297 -0.0840  0.5764  0.1565
   62SAPC  H13R 4914   1.120  -0.522   9.216  0.8507  1.8777  1.5952
   62SAPC  H13S 4915   1.003  -0.522   9.347 -1.3681 -0.8676  0.1310
   62SAPC  C214 4916   1.008  -0.702   9.234  0.2590 -0.3531  0.6196
   62SAPC  H14R 4917   0.986  -0.789   9.297 -0.6075 -1.8037 -1.5628
   62SAPC  C215 4918   0.958  -0.710   9.104  0.2385 -0.0602 -0.1134
   62SAPC  H15R 4919   0.914  -0.808   9.079 -1.5865  0.2418  1.6708
   62SAPC  C216 4920   0.962  -0.597   9.000 -0.1012 -0.1328  0.7876
   62SAPC  H16R 4921   1.038  -0.622   8.923 -0.5221  0.3326  0.2048
   62SAPC  H16S 4922   0.979  -0.500   9.052  0.6073 -0.5634  1.3662
   62SAPC  C217 4923   0.825  -0.578   8.936  0.0124 -0.0398 -0.7197
   62SAPC  H17R 4924   0.758  -0.536   9.015 -0.0237  2.0160 -1.7618
   62SAPC  H17S 4925   0.787  -0.677   8.903  1.4346 -0.8840  0.1057
   62SAPC  C218 4926   0.823  -0.490   8.814  0.2263  0.3287 -0.2924
   62SAPC  H18R 4927   0.910  -0.422   8.824  0.9436 -0.7804  1.6982
   62SAPC  H18S 4928   0.727  -0.435   8.802  0.5344  1.5248  2.0044
   62SAPC  C219 4929   0.825  -0.586   8.694 -0.1264 -0.5710  0.6648
   62SAPC  H19R 4930   0.730  -0.643   8.698 -0.3374 -0.2003  1.1084
   62SAPC  H19S 4931   0.906  -0.658   8.716  1.2338  0.2287 -1.4477
   62SAPC  C220 4932   0.842  -0.516   8.556 -0.3274  0.1282  0.2873
   62SAPC  H20R 4933   0.772  -0.433   8.533  1.5177  1.4764 -0.7358
   62SAPC  H20S 4934   0.830  -0.590   8.474 -0.9585 -0.6996  1.0912
   62SAPC  H20T 4935   0.945  -0.476   8.554 -0.8052  1.5440  1.7477
   62SAPC   C33 4936   0.893   0.155  10.093 -0.2630 -0.4195  0.0879
   62SAPC   H3X 4937   0.838   0.197  10.006  1.9012 -1.7508 -2.0488
   62SAPC   H3Y 4938   0.867   0.047  10.090 -1.3694 -0.1960 -3.3973
   62SAPC   C34 4939   1.034   0.189  10.071 -0.0951  0.0119 -0.0923
   62SAPC   H4X 4940   1.095   0.161  10.160  0.7329  2.9491  0.3841
   62SAPC   H4Y 4941   1.045   0.300  10.065  0.8908 -0.1269 -1.1971
   62SAPC   C35 4942   1.100   0.144   9.938 -0.5456  0.4461 -0.4109
   62SAPC   H5X 4943   1.089   0.033   9.937  1.6918  0.1717 -2.1979
   62SAPC   H5Y 4944   1.210   0.158   9.934 -0.6723  1.2977 -1.1760
   62SAPC   C36 4945   1.029   0.194   9.807 -0.5040 -0.5317 -0.1312
   62SAPC   H6X 4946   1.041   0.305   9.805 -0.3447 -0.5565 -0.9098
   62SAPC   H6Y 4947   0.921   0.169   9.803 -0.7117  0.3179  0.0003
   62SAPC   C37 4948   1.096   0.139   9.676  0.4436 -0.3335  0.5193
   62SAPC   H7X 4949   1.084   0.029   9.689 -0.0490 -0.1226  2.1467
   62SAPC   H7Y 4950   1.204   0.162   9.667  0.6292 -0.2892  2.4248
   62SAPC   C38 4951   1.025   0.193   9.553  0.2879  0.1136 -0.1056
   62SAPC   H8X 4952   1.003   0.301   9.560 -0.1778 -0.0225  0.6216
   62SAPC   H8Y 4953   0.930   0.138   9.533  1.7899 -2.9874  0.5751
   62SAPC   C39 4954   1.118   0.180   9.426 -0.0998 -0.4674 -0.1913
   62SAPC   H9X 4955   1.142   0.076   9.395  0.3262 -0.6895  0.8379
   62SAPC   H9Y 4956   1.210   0.235   9.455  2.0989 -2.4795 -2.8318
   62SAPC  C310 4957   1.061   0.248   9.302 -0.2183  0.4793 -0.3200
   62SAPC  H10X 4958   1.034   0.354   9.324 -0.0515  0.9510 -2.2138
   62SAPC  H10Y 4959   0.965   0.195   9.282 -0.0015  0.0353 -0.1888
   62SAPC  C311 4960   1.162   0.242   9.178  0.0763 -0.2000 -0.3869
   62SAPC  H11X 4961   1.185   0.134   9.165  2.1197  0.0422  0.7648
   62SAPC  H11Y 4962   1.259   0.286   9.208  0.1063 -1.1910  1.0673
   62SAPC  C312 4963   1.099   0.303   9.055  0.8352 -0.2763  0.1247
   62SAPC  H12X 4964   1.058   0.398   9.095 -0.8931 -0.7476 -0.4381
   62SAPC  H12Y 4965   1.008   0.249   9.021  0.6664  1.1628 -1.8259
   62SAPC  C313 4966   1.192   0.315   8.936  0.0270 -0.8479 -0.4824
   62SAPC  H13X 4967   1.220   0.210   8.912  0.3814 -0.6301 -1.0324
   62SAPC  H13Y 4968   1.285   0.369   8.963  0.6666 -1.9473 -0.4205
   62SAPC  C314 4969   1.131   0.387   8.813  0.1094  0.3725 -0.3670
   62SAPC  H14X 4970   1.127   0.494   8.844  0.3306  0.4080 -0.4641
   62SAPC  H14Y 4971   1.034   0.342   8.783 -0.0511 -0.3749  1.1476
   62SAPC  C315 4972   1.224   0.409   8.691  0.1513  0.5365 -0.3623
   62SAPC  H15X 4973   1.206   0.324   8.622 -0.3633  0.4267 -0.0958
   62SAPC  H15Y 4974   1.330   0.389   8.718 -0.5071 -0.3050  1.8429
   62SAPC  C316 4975   1.200   0.541   8.614  0.6989 -0.2043 -0.1134
   62SAPC  H16X 4976   1.216   0.635   8.672 -0.3101  0.4389 -0.8476
   62SAPC  H16Y 4977   1.096   0.547   8.576  0.4313 -0.0105  0.6323
   62SAPC  C317 4978   1.290   0.560   8.493  0.3516  0.2693  0.8633
   62SAPC  H17X 4979   1.273   0.484   8.414  2.6690  2.2280 -1.7046
   62SAPC  H17Y 4980   1.399   0.555   8.515  0.6940  0.5180 -0.6911
   62SAPC  C318 4981   1.259   0.692   8.414  0.1391  1.0350 -0.1612
   62SAPC  H18X 4982   1.155   0.683   8.375 -0.2558  1.9817  0.6379
   62SAPC  H18Y 4983   1.325   0.697   8.325  0.4118 -3.8838 -0.4943
   62SAPC  H18Z 4984   1.282   0.779   8.479  1.2333 -0.0320  0.9160
   63SAPC     N 4985   4.574   5.772   6.157  0.5994 -0.4845  0.6407
   63SAPC   C12 4986   4.591   5.766   6.308 -0.4175  0.7788  0.1195
   63SAPC  H12A 4987   4.508   5.826   6.344 -0.7782  0.0715  0.4937
   63SAPC  H12B 4988   4.687   5.808   6.330  1.6078 -3.6023  0.8534
   63SAPC   C13 4989   4.677   5.700   6.077  0.0316  0.0875  0.0754
   63SAPC  H13A 4990   4.641   5.697   5.975 -1.4950  1.6736  0.5184
   63SAPC  H13B 4991   4.777   5.740   6.074 -0.0470  0.2460 -0.6003
   63SAPC  H13C 4992   4.681   5.599   6.115  2.0825 -0.1594 -0.6796
   63SAPC   C14 4993   4.449   5.700   6.115 -0.0420 -0.2078 -0.0515
   63SAPC  H14A 4994   4.371   5.742   6.176  0.1489  1.4212 -0.8912
   63SAPC  H14B 4995   4.424   5.711   6.011  1.4626 -0.4840 -0.4610
   63SAPC  H14C 4996   4.451   5.593   6.130 -1.0531  0.0807  2.8140
   63SAPC   C15 4997   4.573   5.916   6.107  0.1605  0.0624  0.7044
   63SAPC  H15A 4998   4.489   5.965   6.156 -1.4453 -1.7765 -0.0517
   63SAPC  H15B 4999   4.658   5.976   6.134 -0.7184  1.0797  1.3441
   63SAPC  H15C 5000   4.574   5.912   5.999  1.2575 -1.0925  0.7386
   63SAPC   C11 5001   4.587   5.635   6.384 -0.4679  0.7012  0.0989
   63SAPC  H11A 5002   4.490   5.585   6.367  0.2407 -0.8451  0.4704
   63SAPC  H11B 5003   4.580   5.656   6.493  0.9987 -0.4663  0.4559
   63SAPC     P 5004   4.831   5.576   6.409 -0.0192 -0.0060 -0.0038
   63SAPC   O13 5005   4.939   5.499   6.333 -0.5273 -0.8078  0.5689
   63SAPC   O14 5006   4.852   5.722   6.409 -0.1215  0.2385  0.5718
   63SAPC   O12 5007   4.691   5.544   6.342  0.1185  0.7455 -0.5608
   63SAPC   O11 5008   4.819   5.519   6.557 -0.4632 -0.2187 -0.8231
   63SAPC    C1 5009   4.783   5.379   6.580  0.0740  0.0769  0.0006
   63SAPC    HA 5010   4.828   5.302   6.514 -1.4379 -0.5320 -0.3724
   63SAPC    HB 5011   4.833   5.350   6.675  2.2238  1.9184 -0.4897
   63SAPC    C2 5012   4.626   5.340   6.600 -0.0873 -0.1619 -0.1392
   63SAPC    HS 5013   4.575   5.373   6.507  1.2609 -0.6939 -1.0880
   63SAPC   O21 5014   4.583   5.411   6.714  0.0497  0.1495 -0.0862
   63SAPC   C21 5015   4.467   5.465   6.719  0.2331 -0.0505 -0.3590
   63SAPC   O22 5016   4.373   5.449   6.637  0.0287  0.5348 -0.5446
   63SAPC   C22 5017   4.456   5.536   6.859  0.4151  0.3342  0.0220
   63SAPC   H2R 5018   4.541   5.505   6.924  0.9606  0.1403 -0.7562
   63SAPC   H2S 5019   4.446   5.644   6.838  2.2796  0.6814  0.7345
   63SAPC    C3 5020   4.609   5.191   6.623  0.2174  0.7865  0.5489
   63SAPC    HX 5021   4.682   5.168   6.704  1.4282  2.5983  0.0382
   63SAPC    HY 5022   4.639   5.141   6.528  1.7963  2.2971  0.2031
   63SAPC   O31 5023   4.478   5.148   6.667 -0.2238  0.4522 -1.1417
   63SAPC   C31 5024   4.458   5.019   6.699 -0.4056 -0.7569  0.8302
   63SAPC   O32 5025   4.546   4.930   6.683  0.4826 -0.0848 -0.1277
   63SAPC   C32 5026   4.322   4.997   6.749  1.0021 -0.3495  0.6866
   63SAPC   H2X 5027   4.271   4.952   6.661  0.3478  1.4852  0.0860
   63SAPC   H2Y 5028   4.260   5.088   6.770 -2.2900 -1.9767 -1.1750
   63SAPC   C23 5029   4.320   5.504   6.919 -0.0234 -0.3638  0.1547
   63SAPC   H3R 5030   4.234   5.546   6.863 -0.3974 -1.2517  0.0429
   63SAPC   H3S 5031   4.308   5.558   7.016  0.0339  1.4230 -0.7891
   63SAPC   C24 5032   4.322   5.349   6.947  0.4474  0.8573 -0.3414
   63SAPC   H4R 5033   4.340   5.310   6.845  0.5518  1.7494 -0.6777
   63SAPC   H4S 5034   4.226   5.309   6.986  1.3668 -0.5395  0.5930
   63SAPC   C25 5035   4.430   5.305   7.038 -0.4111  0.1067 -0.2468
   63SAPC   H5R 5036   4.529   5.319   6.992  0.1173  0.8160  1.0611
   63SAPC   C26 5037   4.418   5.252   7.158  0.1601 -0.3531 -0.1294
   63SAPC   H6R 5038   4.510   5.221   7.210  0.2016  0.5520  0.3613
   63SAPC   C27 5039   4.303   5.221   7.249  0.0605  0.0491 -0.2826
   63SAPC   H7R 5040   4.314   5.130   7.312 -1.0332 -0.2293 -0.4678
   63SAPC   H7S 5041   4.213   5.194   7.188 -0.5116 -0.0973  0.6125
   63SAPC   C28 5042   4.269   5.345   7.321 -0.0604 -0.4945 -0.1365
   63SAPC   H8R 5043   4.210   5.413   7.258 -0.0034 -0.7422 -0.4651
   63SAPC   C29 5044   4.305   5.375   7.450  0.0483 -0.3211 -0.0775
   63SAPC   H9R 5045   4.283   5.476   7.488 -2.5392 -1.5935  2.1611
   63SAPC  C210 5046   4.392   5.289   7.538 -0.2374  0.3149 -0.7397
   63SAPC  H10R 5047   4.432   5.208   7.473 -0.7330 -0.7169  0.1938
   63SAPC  H10S 5048   4.330   5.240   7.616 -0.2803  3.1909  1.1691
   63SAPC  C211 5049   4.502   5.363   7.611 -0.4307  0.1416  0.0847
   63SAPC  H11R 5050   4.592   5.376   7.550 -0.3760  0.8783  0.3164
   63SAPC  C212 5051   4.501   5.391   7.743 -0.5041  0.2164 -0.9969
   63SAPC  H12R 5052   4.599   5.427   7.779  0.2387 -2.1727 -0.4167
   63SAPC  C213 5053   4.402   5.363   7.844  0.3036 -0.3221 -0.6281
   63SAPC  H13R 5054   4.387   5.255   7.868  1.1613 -0.3506 -0.2117
   63SAPC  H13S 5055   4.307   5.402   7.800  0.5232 -1.1223 -1.8968
   63SAPC  C214 5056   4.426   5.439   7.976  0.3270  0.3813  0.3496
   63SAPC  H14R 5057   4.496   5.524   7.972 -0.2107  0.8880  1.3110
   63SAPC  C215 5058   4.390   5.395   8.096 -0.0914 -0.1476  0.0413
   63SAPC  H15R 5059   4.405   5.467   8.178 -0.6939  3.1082 -2.5114
   63SAPC  C216 5060   4.306   5.276   8.130  0.3119 -0.6209  0.6054
   63SAPC  H16R 5061   4.247   5.250   8.041  0.3449  0.3962  0.2769
   63SAPC  H16S 5062   4.242   5.297   8.218  1.4801  1.2643  1.0588
   63SAPC  C217 5063   4.394   5.159   8.169  0.1873 -0.7203 -0.5909
   63SAPC  H17R 5064   4.458   5.197   8.251  0.4591  0.6962 -1.4290
   63SAPC  H17S 5065   4.470   5.127   8.094  1.6796 -0.2607  0.6749
   63SAPC  C218 5066   4.304   5.040   8.212  0.4713  0.1508  0.6301
   63SAPC  H18R 5067   4.249   5.006   8.121 -0.2307 -2.2539  1.8483
   63SAPC  H18S 5068   4.238   5.077   8.293  0.7060  0.6405  0.5968
   63SAPC  C219 5069   4.364   4.905   8.255  0.4809  0.2809 -0.6623
   63SAPC  H19R 5070   4.441   4.923   8.332 -2.4792 -0.2193  2.7273
   63SAPC  H19S 5071   4.399   4.857   8.161  1.7033  1.7386 -0.9639
   63SAPC  C220 5072   4.250   4.815   8.309 -0.4596 -0.6497 -0.6616
   63SAPC  H20R 5073   4.286   4.744   8.386 -0.2043  1.2813  1.1093
   63SAPC  H20S 5074   4.197   4.757   8.230 -0.6564 -3.0868  1.1503
   63SAPC  H20T 5075   4.177   4.880   8.363 -2.2186 -2.7626 -0.3743
   63SAPC   C33 5076   4.326   4.892   6.864  0.0538  0.2983  0.0418
   63SAPC   H3X 5077   4.377   4.800   6.827 -0.2612  0.1437 -0.0048
   63SAPC   H3Y 5078   4.219   4.863   6.864 -0.7819  2.7264 -3.1978
   63SAPC   C34 5079   4.372   4.931   7.007 -0.0395 -0.4471  0.3479
   63SAPC   H4X 5080   4.295   5.003   7.041  2.0539  1.6649  0.8813
   63SAPC   H4Y 5081   4.460   4.998   6.994  0.3162 -0.7490  1.1176
   63SAPC   C35 5082   4.404   4.813   7.099  0.2761 -0.3682 -0.0344
   63SAPC   H5X 5083   4.477   4.747   7.048  1.6347  2.2755 -1.7770
   63SAPC   H5Y 5084   4.315   4.757   7.135 -1.6352  1.6348 -1.3525
   63SAPC   C36 5085   4.474   4.856   7.226  0.2041  0.1325 -0.1162
   63SAPC   H6X 5086   4.421   4.949   7.254  1.2410  1.4978 -2.3935
   63SAPC   H6Y 5087   4.579   4.894   7.216 -0.1686  1.3972  0.4985
   63SAPC   C37 5088   4.482   4.753   7.342  0.0831 -0.7142  0.6534
   63SAPC   H7X 5089   4.549   4.668   7.317  1.3392  0.5754 -0.6514
   63SAPC   H7Y 5090   4.381   4.713   7.361 -0.2135  0.2204  1.1158
   63SAPC   C38 5091   4.520   4.842   7.467 -0.0838  0.9390  0.5416
   63SAPC   H8X 5092   4.432   4.905   7.492  0.1197  1.0197  1.0651
   63SAPC   H8Y 5093   4.603   4.912   7.445  0.0140  1.1021  1.3920
   63SAPC   C39 5094   4.548   4.758   7.592  0.2482 -0.2506 -0.4226
   63SAPC   H9X 5095   4.632   4.690   7.566  0.6539  0.3704 -0.7683
   63SAPC   H9Y 5096   4.460   4.706   7.636  0.9615 -0.4008  0.8723
   63SAPC  C310 5097   4.613   4.842   7.704  0.0678  0.2869 -0.0517
   63SAPC  H10X 5098   4.549   4.931   7.723  1.0032  0.9762 -0.0817
   63SAPC  H10Y 5099   4.702   4.877   7.647  0.4171 -0.2887  0.1426
   63SAPC  C311 5100   4.663   4.768   7.826  0.0693  0.1355  0.3662
   63SAPC  H11X 5101   4.708   4.669   7.801 -0.0013 -0.3872  2.1954
   63SAPC  H11Y 5102   4.575   4.759   7.893  0.2441  0.5979  0.6566
   63SAPC  C312 5103   4.775   4.850   7.892  0.3182  0.0433 -0.0887
   63SAPC  H12X 5104   4.740   4.955   7.905 -0.9152 -0.3336 -0.1746
   63SAPC  H12Y 5105   4.854   4.852   7.814 -0.9477 -1.4085 -1.4940
   63SAPC  C313 5106   4.826   4.784   8.016 -0.3373 -0.3618 -0.7606
   63SAPC  H13X 5107   4.846   4.676   7.994  1.1085 -0.3261  0.2084
   63SAPC  H13Y 5108   4.748   4.789   8.095  1.0795 -1.2134  0.7453
   63SAPC  C314 5109   4.942   4.859   8.081 -0.1037 -0.8623 -0.8681
   63SAPC  H14X 5110   4.906   4.963   8.099 -0.3676 -1.3521  1.8669
   63SAPC  H14Y 5111   5.029   4.867   8.013 -0.9847  3.5718 -1.7609
   63SAPC  C315 5112   4.995   4.790   8.207  0.1101 -0.2773 -0.3584
   63SAPC  H15X 5113   5.105   4.804   8.212  0.0590 -0.3573  1.7097
   63SAPC  H15Y 5114   4.964   4.684   8.198  0.4318 -0.4621  0.5972
   63SAPC  C316 5115   4.930   4.842   8.334  0.2021  0.1117  0.1506
   63SAPC  H16X 5116   4.820   4.836   8.324  0.4096 -1.7361 -1.8703
   63SAPC  H16Y 5117   4.962   4.947   8.348 -0.7324  0.3834  0.2952
   63SAPC  C317 5118   4.975   4.767   8.470 -0.2650  0.5763 -0.5506
   63SAPC  H17X 5119   4.953   4.658   8.472  1.6844  0.1104 -2.0711
   63SAPC  H17Y 5120   4.922   4.811   8.557 -1.3881 -2.4016  0.3730
   63SAPC  C318 5121   5.126   4.772   8.502  0.0511 -0.0034  0.6098
   63SAPC  H18X 5122   5.184   4.736   8.415  0.1698  2.3824 -0.3810
   63SAPC  H18Y 5123   5.156   4.736   8.603  1.0375 -1.5772 -0.2012
   63SAPC  H18Z 5124   5.145   4.881   8.495 -3.7265  0.6868 -3.5571
   64SAPC     N 5125   5.960   6.237   6.043 -0.3661 -0.1458 -0.0696
   64SAPC   C12 5126   6.015   6.334   6.145  0.5293  0.4276 -0.1031
   64SAPC  H12A 5127   5.929   6.384   6.188 -1.5701 -2.2032 -1.0035
   64SAPC  H12B 5128   6.071   6.407   6.088 -1.2288  1.8540 -0.0980
   64SAPC   C13 5129   5.849   6.150   6.093  0.1103  0.1744  0.7654
   64SAPC  H13A 5130   5.822   6.069   6.026  0.0772 -0.6441  1.7396
   64SAPC  H13B 5131   5.876   6.106   6.187 -3.4881  1.1544  2.4375
   64SAPC  H13C 5132   5.765   6.216   6.107  2.0377  2.7960  0.5825
   64SAPC   C14 5133   5.909   6.324   5.935  0.1702  0.3082  0.0953
   64SAPC  H14A 5134   5.856   6.280   5.851 -0.5855  1.0956  0.1445
   64SAPC  H14B 5135   5.834   6.387   5.980  0.9566 -0.0737  2.0094
   64SAPC  H14C 5136   5.990   6.380   5.890  0.9987 -0.2193  0.8941
   64SAPC   C15 5137   6.067   6.148   5.991  0.2524  0.3320 -0.4378
   64SAPC  H15A 5138   6.104   6.083   6.069 -1.4497 -1.8851 -1.3359
   64SAPC  H15B 5139   6.032   6.097   5.902  1.1016  2.4885 -2.0873
   64SAPC  H15C 5140   6.152   6.204   5.957  0.7774  1.4472  2.4602
   64SAPC   C11 5141   6.099   6.287   6.269 -0.0072 -0.3908 -0.7122
   64SAPC  H11A 5142   6.047   6.220   6.342  0.8836  0.1801  0.4866
   64SAPC  H11B 5143   6.120   6.373   6.336  0.4225 -1.3098  0.3786
   64SAPC     P 5144   6.346   6.322   6.187  0.1558 -0.2058 -0.0934
   64SAPC   O13 5145   6.471   6.240   6.198 -0.5304 -0.0302 -0.1516
   64SAPC   O14 5146   6.312   6.383   6.056 -0.2019 -0.0997 -0.2286
   64SAPC   O12 5147   6.220   6.233   6.231 -0.7964 -0.1123 -0.6694
   64SAPC   O11 5148   6.347   6.441   6.298 -0.2761 -0.0040 -0.1676
   64SAPC    C1 5149   6.379   6.429   6.436  0.4579 -0.4634 -0.2327
   64SAPC    HA 5150   6.316   6.502   6.491 -0.1798 -0.6459 -0.7031
   64SAPC    HB 5151   6.352   6.326   6.468 -3.5396  0.2391 -0.8342
   64SAPC    C2 5152   6.522   6.470   6.467 -0.9514 -0.4734 -0.4520
   64SAPC    HS 5153   6.582   6.417   6.390 -0.7108  1.5932 -1.7790
   64SAPC   O21 5154   6.561   6.410   6.596  0.7057  0.9017  0.9133
   64SAPC   C21 5155   6.696   6.399   6.615  0.2931 -0.1007 -0.0381
   64SAPC   O22 5156   6.775   6.438   6.529  0.2892  0.1166  0.2458
   64SAPC   C22 5157   6.730   6.336   6.746  0.0226 -0.8202 -0.5998
   64SAPC   H2R 5158   6.771   6.238   6.714 -2.6190 -2.1149 -0.2766
   64SAPC   H2S 5159   6.809   6.391   6.802  0.2006 -1.3376 -0.3305
   64SAPC    C3 5160   6.542   6.629   6.471 -0.4126 -0.3718 -0.2627
   64SAPC    HX 5161   6.511   6.654   6.367 -2.3174  0.2705  0.4073
   64SAPC    HY 5162   6.645   6.651   6.504 -0.8515 -0.7442  1.4674
   64SAPC   O31 5163   6.442   6.688   6.561  0.6550 -0.1523 -0.0327
   64SAPC   C31 5164   6.489   6.769   6.655  0.1124  0.5723 -0.6446
   64SAPC   O32 5165   6.603   6.806   6.664  0.2410  0.2058  0.3861
   64SAPC   C32 5166   6.378   6.803   6.749  0.1380 -0.2988  0.4616
   64SAPC   H2X 5167   6.282   6.769   6.705  0.3912 -0.5469  0.0892
   64SAPC   H2Y 5168   6.370   6.913   6.759 -1.8280 -0.4992  1.7364
   64SAPC   C23 5169   6.602   6.305   6.830  0.0478  0.6074  0.3922
   64SAPC   H3R 5170   6.512   6.280   6.770  0.1994  1.5181 -0.2244
   64SAPC   H3S 5171   6.592   6.391   6.900  0.5802 -0.2552  1.5644
   64SAPC   C24 5172   6.618   6.189   6.936  1.0117 -0.3738 -0.4651
   64SAPC   H4R 5173   6.623   6.092   6.883  1.3545 -0.8847  0.4756
   64SAPC   H4S 5174   6.524   6.202   6.995  1.6206 -0.2964  0.5111
   64SAPC   C25 5175   6.749   6.197   7.006 -0.5310 -0.0216  0.2667
   64SAPC   H5R 5176   6.832   6.183   6.935  0.0551 -0.8637  1.1066
   64SAPC   C26 5177   6.784   6.214   7.136  0.3952 -0.1848  0.1322
   64SAPC   H6R 5178   6.889   6.233   7.165  0.3627 -1.0009  0.8239
   64SAPC   C27 5179   6.681   6.227   7.251 -0.2312 -0.5260 -0.6958
   64SAPC   H7R 5180   6.619   6.314   7.221 -1.3127 -1.0800 -0.1308
   64SAPC   H7S 5181   6.724   6.273   7.343  0.3394 -0.7006 -0.8690
   64SAPC   C28 5182   6.594   6.109   7.285  0.0741 -0.1199 -0.5067
   64SAPC   H8R 5183   6.553   6.050   7.201 -4.2156  0.2338  1.0789
   64SAPC   C29 5184   6.555   6.082   7.414  0.6371  0.2069  0.3654
   64SAPC   H9R 5185   6.492   5.995   7.437  0.6583  0.6350  2.1974
   64SAPC  C210 5186   6.601   6.154   7.539  0.5965 -1.0952  0.1960
   64SAPC  H10R 5187   6.508   6.183   7.591  1.1224 -0.9477  1.0712
   64SAPC  H10S 5188   6.658   6.248   7.526  0.6097 -0.8690  1.6851
   64SAPC  C211 5189   6.690   6.070   7.630  0.0236 -0.1387  0.0925
   64SAPC  H11R 5190   6.759   6.002   7.578 -0.2491 -0.4223  0.1036
   64SAPC  C212 5191   6.674   6.054   7.765 -0.4891  0.3207  1.3155
   64SAPC  H12R 5192   6.749   5.993   7.817 -0.2584 -3.3388 -2.7710
   64SAPC  C213 5193   6.584   6.132   7.862 -0.8422  0.7440  0.3612
   64SAPC  H13R 5194   6.516   6.066   7.920 -0.3192  0.5571  0.7570
   64SAPC  H13S 5195   6.513   6.197   7.806 -3.8787 -0.4579  2.5266
   64SAPC  C214 5196   6.658   6.215   7.963 -0.1595 -0.0089  0.2511
   64SAPC  H14R 5197   6.696   6.312   7.929  0.4034  0.0997  1.1559
   64SAPC  C215 5198   6.691   6.179   8.088 -0.4152 -0.3930 -0.2784
   64SAPC  H15R 5199   6.750   6.251   8.146  0.2446 -0.3803 -0.9593
   64SAPC  C216 5200   6.661   6.042   8.149  0.0065  0.2035 -0.0077
   64SAPC  H16R 5201   6.761   6.019   8.192 -0.1436 -0.0814  0.1861
   64SAPC  H16S 5202   6.636   5.966   8.072  2.4836  2.2574 -3.1569
   64SAPC  C217 5203   6.555   6.048   8.269 -0.6656  0.5302 -0.1360
   64SAPC  H17R 5204   6.463   6.094   8.229 -1.1406 -0.0454  0.2848
   64SAPC  H17S 5205   6.602   6.116   8.344 -0.1781 -0.5267  0.5516
   64SAPC  C218 5206   6.529   5.905   8.331 -0.3376 -0.8194 -0.0571
   64SAPC  H18R 5207   6.479   5.849   8.250  3.1470 -1.3778 -2.0045
   64SAPC  H18S 5208   6.449   5.910   8.408 -2.0216  0.4632 -1.8076
   64SAPC  C219 5209   6.663   5.824   8.366 -0.5905 -0.0304  0.1618
   64SAPC  H19R 5210   6.726   5.883   8.436 -1.2908  0.9205  0.0118
   64SAPC  H19S 5211   6.711   5.800   8.269 -1.4187  0.1995 -0.3099
   64SAPC  C220 5212   6.625   5.703   8.443  0.1653  0.3628 -0.5746
   64SAPC  H20R 5213   6.538   5.652   8.395 -0.3310  2.5963 -2.2417
   64SAPC  H20S 5214   6.586   5.739   8.541  0.0732 -1.0799 -0.0583
   64SAPC  H20T 5215   6.702   5.624   8.459 -0.6311 -0.1931  0.6977
   64SAPC   C33 5216   6.400   6.750   6.894 -0.0391 -0.2523 -0.1855
   64SAPC   H3X 5217   6.334   6.807   6.963 -1.3557 -0.8577 -0.9077
   64SAPC   H3Y 5218   6.503   6.772   6.932 -0.8711 -0.0617  2.1457
   64SAPC   C34 5219   6.369   6.609   6.909  0.7351  0.3246  0.8693
   64SAPC   H4X 5220   6.402   6.548   6.822 -1.2168  1.2284 -0.5738
   64SAPC   H4Y 5221   6.259   6.595   6.916  0.6413  1.6636  3.1330
   64SAPC   C35 5222   6.426   6.548   7.041  0.1932 -0.7853 -0.3507
   64SAPC   H5X 5223   6.536   6.540   7.049  0.1236  0.1265  3.4824
   64SAPC   H5Y 5224   6.394   6.442   7.043  1.9740 -1.3788 -1.0713
   64SAPC   C36 5225   6.397   6.616   7.176  0.1892 -0.1767 -0.1370
   64SAPC   H6X 5226   6.287   6.635   7.171  0.4824  1.6470 -0.3642
   64SAPC   H6Y 5227   6.434   6.720   7.173  0.4690 -0.2780 -0.1958
   64SAPC   C37 5228   6.443   6.537   7.298 -0.0516 -0.4423 -0.0458
   64SAPC   H7X 5229   6.554   6.538   7.312 -0.1517  0.1681  0.7665
   64SAPC   H7Y 5230   6.414   6.432   7.279 -0.3032  0.1880 -3.9909
   64SAPC   C38 5231   6.380   6.590   7.436 -0.7078 -0.0702 -0.3981
   64SAPC   H8X 5232   6.275   6.556   7.444 -0.1895 -2.0177 -1.2185
   64SAPC   H8Y 5233   6.384   6.700   7.450  0.4231 -0.1720  0.2146
   64SAPC   C39 5234   6.462   6.521   7.549 -0.3717  0.1380 -0.0666
   64SAPC   H9X 5235   6.565   6.562   7.540 -0.4464  0.0704 -1.5637
   64SAPC   H9Y 5236   6.467   6.414   7.522 -1.2640 -0.1733  0.9561
   64SAPC  C310 5237   6.397   6.550   7.682 -0.7231 -0.1036 -0.6966
   64SAPC  H10X 5238   6.295   6.506   7.682 -0.5841 -0.4359 -0.0513
   64SAPC  H10Y 5239   6.386   6.659   7.666  1.0107  0.3374  0.7605
   64SAPC  C311 5240   6.488   6.522   7.795 -1.0930  0.3899  0.6607
   64SAPC  H11X 5241   6.587   6.569   7.775 -1.8113  1.2886 -1.0769
   64SAPC  H11Y 5242   6.509   6.413   7.792  0.4888  0.6944 -0.5574
   64SAPC  C312 5243   6.424   6.566   7.926 -0.3771 -0.1201 -0.4591
   64SAPC  H12X 5244   6.331   6.508   7.947 -0.5259 -0.2518 -1.4572
   64SAPC  H12Y 5245   6.397   6.674   7.927 -0.5597 -0.1609  0.4065
   64SAPC  C313 5246   6.521   6.558   8.051 -0.0938 -0.3157  0.0597
   64SAPC  H13X 5247   6.605   6.627   8.028  0.7800 -1.2035  0.5459
   64SAPC  H13Y 5248   6.566   6.457   8.043  0.7071 -0.0681  1.2822
   64SAPC  C314 5249   6.451   6.559   8.192 -0.4238 -0.0825  0.7994
   64SAPC  H14X 5250   6.379   6.476   8.207 -3.8042  2.7631  1.5927
   64SAPC  H14Y 5251   6.380   6.644   8.199 -1.2868 -0.2640 -3.1718
   64SAPC  C315 5252   6.553   6.547   8.306  0.7957  0.0746 -0.0928
   64SAPC  H15X 5253   6.654   6.515   8.274  2.0001  0.1380  3.2374
   64SAPC  H15Y 5254   6.515   6.458   8.360 -2.4900  1.1758 -0.3325
   64SAPC  C316 5255   6.561   6.669   8.393 -0.5706 -0.1175 -0.2559
   64SAPC  H16X 5256   6.464   6.702   8.435 -0.6687 -0.2845 -0.3477
   64SAPC  H16Y 5257   6.609   6.753   8.338  0.8875  0.6092  1.9954
   64SAPC  C317 5258   6.660   6.646   8.517  0.5914  0.3005  0.2946
   64SAPC  H17X 5259   6.639   6.542   8.549  0.3957  0.0688 -0.5744
   64SAPC  H17Y 5260   6.633   6.710   8.604  0.0542  0.3014  0.1303
   64SAPC  C318 5261   6.807   6.673   8.486 -0.0740 -0.3874 -0.0911
   64SAPC  H18X 5262   6.849   6.697   8.586 -1.3982  0.2053  0.3509
   64SAPC  H18Y 5263   6.817   6.754   8.411  0.0039  0.1524  0.4957
   64SAPC  H18Z 5264   6.865   6.586   8.450 -0.8597 -1.5900  1.4113
   65SAPC     N 5265   1.448   1.045   6.046 -0.5443 -0.6736  0.0044
   65SAPC   C12 5266   1.377   1.051   6.175 -0.1350 -0.6974 -0.3286
   65SAPC  H12A 5267   1.444   1.056   6.259  0.3214  1.2734 -0.7650
   65SAPC  H12B 5268   1.322   0.958   6.186 -1.1121 -0.3038 -1.6783
   65SAPC   C13 5269   1.528   1.176   6.016 -0.3695 -0.1473  0.4741
   65SAPC  H13A 5270   1.454   1.253   6.032 -2.1694 -2.1474  2.5693
   65SAPC  H13B 5271   1.617   1.186   6.077  0.4117 -3.3602  0.0681
   65SAPC  H13C 5272   1.566   1.180   5.915 -0.8749  1.9479  0.3137
   65SAPC   C14 5273   1.551   0.930   6.047 -0.8118 -0.0534 -0.2487
   65SAPC  H14A 5274   1.500   0.837   6.069 -1.5115  0.1245 -1.0582
   65SAPC  H14B 5275   1.604   0.930   5.953  1.0265  2.4725  0.6838
   65SAPC  H14C 5276   1.634   0.943   6.115  1.7337  0.6516 -3.2568
   65SAPC   C15 5277   1.350   1.014   5.937 -1.0501 -0.8324  0.2623
   65SAPC  H15A 5278   1.388   1.035   5.838 -2.4581 -0.7377 -0.2856
   65SAPC  H15B 5279   1.330   0.908   5.941  2.7517 -1.8140 -1.7312
   65SAPC  H15C 5280   1.263   1.075   5.957  0.9264  1.3401  3.0741
   65SAPC   C11 5281   1.262   1.157   6.200  0.1738  0.0260  0.0708
   65SAPC  H11A 5282   1.300   1.260   6.183  1.5136 -0.2082  1.4403
   65SAPC  H11B 5283   1.230   1.145   6.306  0.7879 -1.3160  0.1326
   65SAPC     P 5284   1.006   1.147   6.148  0.5691 -0.0472  0.3360
   65SAPC   O13 5285   0.961   1.273   6.087 -0.0303 -0.1084  0.1722
   65SAPC   O14 5286   0.924   1.027   6.106  0.1053 -0.1297 -0.2021
   65SAPC   O12 5287   1.155   1.128   6.119 -0.0686 -0.1993 -0.4732
   65SAPC   O11 5288   0.994   1.157   6.306  0.3991  0.1070  0.6364
   65SAPC    C1 5289   0.865   1.169   6.364 -0.3979  0.1758  0.1251
   65SAPC    HA 5290   0.806   1.249   6.313 -1.2288  1.0614  2.3258
   65SAPC    HB 5291   0.821   1.067   6.360  2.5466 -1.1638 -0.2239
   65SAPC    C2 5292   0.870   1.200   6.518 -0.0283 -0.3451  0.1578
   65SAPC    HS 5293   0.948   1.280   6.516  1.3799 -1.6222  1.1148
   65SAPC   O21 5294   0.927   1.084   6.584 -0.6709  0.1001 -0.0882
   65SAPC   C21 5295   1.034   1.113   6.660 -0.4711  0.1575 -0.3300
   65SAPC   O22 5296   1.081   1.228   6.676 -0.3592  0.3650 -0.5889
   65SAPC   C22 5297   1.079   0.979   6.721  0.1419  0.1379  0.1265
   65SAPC   H2R 5298   0.982   0.935   6.752 -0.8017  1.8802 -0.2088
   65SAPC   H2S 5299   1.120   0.922   6.635 -0.3294 -0.1259  0.0752
   65SAPC    C3 5300   0.738   1.248   6.573  0.1858 -0.7717 -0.2122
   65SAPC    HX 5301   0.672   1.160   6.557  0.6749 -1.0354 -0.8409
   65SAPC    HY 5302   0.698   1.323   6.502  0.2450  0.8931  1.4316
   65SAPC   O31 5303   0.733   1.280   6.715  0.0722 -0.0761 -0.3384
   65SAPC   C31 5304   0.778   1.404   6.748 -0.1528  0.6979 -0.2124
   65SAPC   O32 5305   0.807   1.494   6.672  0.0185 -0.3873 -0.0968
   65SAPC   C32 5306   0.760   1.420   6.898 -0.7951 -0.1833 -0.2402
   65SAPC   H2X 5307   0.706   1.330   6.932 -0.9345 -0.9627 -2.4065
   65SAPC   H2Y 5308   0.691   1.505   6.920 -0.4316  0.8833 -2.7850
   65SAPC   C23 5309   1.171   0.991   6.842  0.4678 -0.2836 -1.3546
   65SAPC   H3R 5310   1.104   1.036   6.918  1.1055  0.1579 -1.0506
   65SAPC   H3S 5311   1.258   1.059   6.831 -0.6015  1.9139  2.1505
   65SAPC   C24 5312   1.214   0.851   6.882 -0.2664  0.2558  0.4780
   65SAPC   H4R 5313   1.257   0.803   6.791  1.8475 -1.4123  2.2069
   65SAPC   H4S 5314   1.122   0.796   6.909 -0.4063  0.3967  0.2890
   65SAPC   C25 5315   1.317   0.846   6.993 -0.6470  0.0211  0.0831
   65SAPC   H5R 5316   1.409   0.894   6.955 -1.4699  0.7469 -1.0765
   65SAPC   C26 5317   1.314   0.798   7.119 -0.0446  0.0484 -0.2080
   65SAPC   H6R 5318   1.401   0.822   7.182 -1.2926 -1.6941  2.3659
   65SAPC   C27 5319   1.196   0.726   7.186  0.2139 -0.3391 -0.4362
   65SAPC   H7R 5320   1.124   0.710   7.103  0.0688  3.8023 -1.3682
   65SAPC   H7S 5321   1.148   0.792   7.261  0.7436  1.0245 -1.2356
   65SAPC   C28 5322   1.245   0.601   7.246  0.0372 -0.3411  0.4102
   65SAPC   H8R 5323   1.313   0.544   7.181  0.7397 -0.1483  0.9713
   65SAPC   C29 5324   1.227   0.560   7.369  0.0851 -0.0708  0.4785
   65SAPC   H9R 5325   1.272   0.463   7.395  1.5591  0.6839  0.8229
   65SAPC  C210 5326   1.154   0.619   7.491 -0.0326 -0.5045 -0.7287
   65SAPC  H10R 5327   1.118   0.550   7.570  1.4640  1.5864  1.9164
   65SAPC  H10S 5328   1.063   0.669   7.452 -1.2427 -1.0718  1.2306
   65SAPC  C211 5329   1.233   0.733   7.551  0.0837  0.2792 -0.9581
   65SAPC  H11R 5330   1.325   0.764   7.500  0.2939  0.1749 -0.6455
   65SAPC  C212 5331   1.224   0.781   7.675 -0.6055 -0.5841  0.5090
   65SAPC  H12R 5332   1.293   0.862   7.701 -1.6052 -0.0322  1.4929
   65SAPC  C213 5333   1.135   0.744   7.790  0.3632 -0.2674 -0.6970
   65SAPC  H13R 5334   1.074   0.662   7.747  0.5669  0.3371 -2.1838
   65SAPC  H13S 5335   1.078   0.834   7.822  0.5780 -0.7753  1.2427
   65SAPC  C214 5336   1.211   0.686   7.909 -0.0066  0.2590  0.4572
   65SAPC  H14R 5337   1.290   0.748   7.953 -0.4909  1.2644 -0.0467
   65SAPC  C215 5338   1.200   0.555   7.950  0.3448  0.0538  0.0580
   65SAPC  H15R 5339   1.265   0.525   8.034  0.7216  2.0089  0.5258
   65SAPC  C216 5340   1.107   0.446   7.890 -0.2238 -0.5940 -0.4117
   65SAPC  H16R 5341   1.155   0.378   7.817  2.5686  0.6017  0.1786
   65SAPC  H16S 5342   1.019   0.490   7.840  1.0066  1.1403 -1.1755
   65SAPC  C217 5343   1.067   0.341   7.996  0.0828 -0.2415  0.2412
   65SAPC  H17R 5344   1.154   0.322   8.063  0.2588 -0.7602 -0.1354
   65SAPC  H17S 5345   1.046   0.246   7.943  1.2200 -0.8163  0.7743
   65SAPC  C218 5346   0.954   0.381   8.098 -0.4885  0.5493  0.4709
   65SAPC  H18R 5347   0.868   0.407   8.032  1.4092 -0.3753 -2.5708
   65SAPC  H18S 5348   0.987   0.472   8.152  1.1568 -0.4488  1.2182
   65SAPC  C219 5349   0.925   0.274   8.198 -0.3152  0.3243 -0.4628
   65SAPC  H19R 5350   1.025   0.246   8.237  0.1802  1.5072 -0.8378
   65SAPC  H19S 5351   0.879   0.189   8.144 -0.8379 -0.2926  0.9028
   65SAPC  C220 5352   0.837   0.313   8.316  0.4840 -0.4633  0.5344
   65SAPC  H20R 5353   0.736   0.332   8.275  1.0602 -0.1907 -0.8071
   65SAPC  H20S 5354   0.881   0.406   8.359 -1.3072  0.4475  0.4892
   65SAPC  H20T 5355   0.843   0.226   8.385 -0.9449 -1.7004 -0.8271
   65SAPC   C33 5356   0.890   1.437   6.974  0.0942  0.2128 -0.3155
   65SAPC   H3X 5357   0.931   1.537   6.947  0.5281  0.1576  0.1401
   65SAPC   H3Y 5358   0.970   1.366   6.943  0.0651 -1.0517  2.2838
   65SAPC   C34 5359   0.876   1.421   7.122  0.0569  0.5511  0.2391
   65SAPC   H4X 5360   0.794   1.485   7.161  0.8989  0.7070  1.8451
   65SAPC   H4Y 5361   0.965   1.458   7.176 -0.8558  0.1248  2.1072
   65SAPC   C35 5362   0.838   1.276   7.170  0.3649 -0.4348  0.0681
   65SAPC   H5X 5363   0.933   1.220   7.180  0.7289 -0.4775 -2.7516
   65SAPC   H5Y 5364   0.788   1.227   7.084  0.7315  0.4806 -0.6950
   65SAPC   C36 5365   0.761   1.277   7.306  0.0257 -0.2081  0.5101
   65SAPC   H6X 5366   0.719   1.177   7.326 -2.3500  0.5878 -0.1343
   65SAPC   H6Y 5367   0.669   1.338   7.302  0.1076 -0.1517 -1.4968
   65SAPC   C37 5368   0.840   1.331   7.430  0.2239  0.7283  0.5437
   65SAPC   H7X 5369   0.878   1.435   7.418  3.1168 -0.2338  0.4862
   65SAPC   H7Y 5370   0.919   1.255   7.452  0.0649  0.3459 -0.1707
   65SAPC   C38 5371   0.750   1.335   7.555  0.1739  0.4960  1.0967
   65SAPC   H8X 5372   0.676   1.252   7.548  0.4633  0.3405 -0.8600
   65SAPC   H8Y 5373   0.694   1.431   7.548 -1.2969 -0.3208  1.0744
   65SAPC   C39 5374   0.829   1.326   7.688 -0.9791 -0.2621  0.1292
   65SAPC   H9X 5375   0.921   1.386   7.673 -0.4984 -0.6882  1.2294
   65SAPC   H9Y 5376   0.871   1.223   7.687  0.1814  0.1964 -0.1569
   65SAPC  C310 5377   0.751   1.361   7.811  0.2854 -0.0929  0.3090
   65SAPC  H10X 5378   0.665   1.292   7.823  1.1216 -1.0990  0.6062
   65SAPC  H10Y 5379   0.714   1.464   7.791  0.4441 -0.0267  0.3525
   65SAPC  C311 5380   0.832   1.365   7.932 -0.0438 -0.1397 -0.2163
   65SAPC  H11X 5381   0.918   1.434   7.915 -0.3625 -0.4546 -3.8771
   65SAPC  H11Y 5382   0.879   1.266   7.951 -1.9881 -0.5393  3.4325
   65SAPC  C312 5383   0.745   1.409   8.057 -0.7241  0.0610 -0.4657
   65SAPC  H12X 5384   0.660   1.337   8.060  1.0362 -2.1143 -0.1862
   65SAPC  H12Y 5385   0.711   1.512   8.031 -1.2369  0.2155  0.7196
   65SAPC  C313 5386   0.829   1.401   8.183  0.3510 -0.6004 -0.3700
   65SAPC  H13X 5387   0.929   1.446   8.172  0.0812  0.0006 -0.3958
   65SAPC  H13Y 5388   0.846   1.296   8.218  0.3106 -0.4277  0.1845
   65SAPC  C314 5389   0.769   1.467   8.302 -0.1818 -0.1978  0.9084
   65SAPC  H14X 5390   0.664   1.433   8.319 -0.0525 -1.1012 -0.0662
   65SAPC  H14Y 5391   0.766   1.577   8.284  1.1264 -0.5752 -2.3240
   65SAPC  C315 5392   0.857   1.456   8.427  0.4079 -0.1099 -0.9380
   65SAPC  H15X 5393   0.942   1.521   8.401  0.4598  0.0793 -0.3031
   65SAPC  H15Y 5394   0.890   1.352   8.450  1.4085  0.9241  3.0139
   65SAPC  C316 5395   0.788   1.531   8.545  0.2461 -0.2347 -0.0120
   65SAPC  H16X 5396   0.698   1.477   8.582  0.1059 -1.0538 -1.4457
   65SAPC  H16Y 5397   0.740   1.619   8.497 -1.2904 -0.4116  1.1158
   65SAPC  C317 5398   0.886   1.555   8.659  0.4460  0.5312  0.2729
   65SAPC  H17X 5399   0.976   1.607   8.621  1.2546 -1.6794 -1.0173
   65SAPC  H17Y 5400   0.918   1.456   8.699  1.4209  1.5024  1.9905
   65SAPC  C318 5401   0.812   1.625   8.775  0.3730 -0.4114 -0.0103
   65SAPC  H18X 5402   0.789   1.732   8.753 -0.0975 -0.9052 -2.1491
   65SAPC  H18Y 5403   0.866   1.630   8.872 -0.1487  0.8815  0.2277
   65SAPC  H18Z 5404   0.716   1.574   8.793 -0.6142  2.2247  3.0970
   66SAPC     N 5405   4.706   0.675   5.879 -0.4663 -0.4141  0.2043
   66SAPC   C12 5406   4.623   0.764   5.961  0.2189  0.1390  0.5728
   66SAPC  H12A 5407   4.523   0.725   5.974 -0.6833  1.1192 -2.6224
   66SAPC  H12B 5408   4.597   0.848   5.899 -1.7922 -1.0581 -0.3030
   66SAPC   C13 5409   4.772   0.569   5.946  0.1258 -0.0020  0.6317
   66SAPC  H13A 5410   4.827   0.499   5.884 -0.7469  0.0331 -0.2146
   66SAPC  H13B 5411   4.838   0.603   6.024  0.3804 -0.6072  0.6887
   66SAPC  H13C 5412   4.700   0.510   6.000 -0.1146  3.1154  4.1085
   66SAPC   C14 5413   4.631   0.610   5.760 -0.3463 -0.7872 -0.3752
   66SAPC  H14A 5414   4.558   0.535   5.786  0.4659 -0.7708  2.2200
   66SAPC  H14B 5415   4.604   0.685   5.687  0.3288  0.0195  0.1785
   66SAPC  H14C 5416   4.709   0.561   5.703  0.4908  1.8452 -1.6632
   66SAPC   C15 5417   4.811   0.766   5.811  0.1973  0.7238 -1.2280
   66SAPC  H15A 5418   4.846   0.838   5.884 -1.1104 -0.2770  0.4831
   66SAPC  H15B 5419   4.890   0.698   5.782 -1.4086 -1.2437 -1.2106
   66SAPC  H15C 5420   4.769   0.823   5.730  0.0785 -1.0717 -2.4819
   66SAPC   C11 5421   4.676   0.822   6.094 -0.1886 -0.3644  0.0601
   66SAPC  H11A 5422   4.698   0.737   6.162  0.3607  0.3517  0.7971
   66SAPC  H11B 5423   4.595   0.876   6.148 -0.2427 -2.5118  2.2928
   66SAPC     P 5424   4.799   1.047   6.067 -0.3048  0.0436 -0.4301
   66SAPC   O13 5425   4.934   1.095   6.027 -0.9480  0.6570  0.6676
   66SAPC   O14 5426   4.688   1.095   5.980  0.1809 -0.2388  0.3832
   66SAPC   O12 5427   4.803   0.887   6.075  0.1188  0.9219 -0.7368
   66SAPC   O11 5428   4.771   1.087   6.220  0.7571  0.4574  0.4015
   66SAPC    C1 5429   4.751   1.225   6.253  0.7987 -0.6040 -0.1699
   66SAPC    HA 5430   4.677   1.282   6.193 -1.2191 -0.8232  1.9678
   66SAPC    HB 5431   4.725   1.225   6.361  1.1751  2.1483 -0.0079
   66SAPC    C2 5432   4.875   1.322   6.253 -0.1169  0.2907  0.1691
   66SAPC    HS 5433   4.900   1.339   6.146  0.2628 -0.5931  0.1086
   66SAPC   O21 5434   4.984   1.244   6.315 -0.0515  0.1851  0.2687
   66SAPC   C21 5435   5.100   1.297   6.290 -0.2405  0.1162 -0.1616
   66SAPC   O22 5436   5.120   1.382   6.203  0.0655  0.6394 -0.2168
   66SAPC   C22 5437   5.212   1.228   6.367  0.0632 -0.3006 -0.2769
   66SAPC   H2R 5438   5.164   1.205   6.465 -1.5491  1.2402 -0.6571
   66SAPC   H2S 5439   5.231   1.132   6.315  2.0082  1.1683 -2.4592
   66SAPC    C3 5440   4.859   1.461   6.315 -0.0954  0.0921 -0.1920
   66SAPC    HX 5441   4.796   1.522   6.247  0.6287  1.5743  0.4193
   66SAPC    HY 5442   4.949   1.526   6.312  0.0392 -0.1338 -1.7337
   66SAPC   O31 5443   4.797   1.448   6.446  0.5724 -0.3291 -0.3238
   66SAPC   C31 5444   4.773   1.570   6.500  0.4394  0.0069 -0.0975
   66SAPC   O32 5445   4.814   1.677   6.460  0.2482 -0.1849 -0.1305
   66SAPC   C32 5446   4.686   1.569   6.627 -1.2180 -1.1114  0.4654
   66SAPC   H2X 5447   4.734   1.627   6.709 -3.6872  2.1511 -0.1928
   66SAPC   H2Y 5448   4.680   1.461   6.651 -1.0348 -1.4357 -0.8668
   66SAPC   C23 5449   5.338   1.321   6.391  0.4311  0.3732  0.1536
   66SAPC   H3R 5450   5.361   1.389   6.306  0.1679 -2.0055 -1.9655
   66SAPC   H3S 5451   5.432   1.263   6.382  0.1369 -0.0999  0.0810
   66SAPC   C24 5452   5.357   1.382   6.528  0.3741  0.3995  0.3360
   66SAPC   H4R 5453   5.462   1.418   6.535  0.5618 -0.0771  0.0442
   66SAPC   H4S 5454   5.361   1.301   6.603  0.5139 -1.8719 -1.9956
   66SAPC   C25 5455   5.267   1.497   6.562 -0.5205  0.0897  0.0261
   66SAPC   H5R 5456   5.281   1.567   6.478  0.4315 -0.5091 -0.3270
   66SAPC   C26 5457   5.177   1.510   6.653 -1.0216  0.3771 -0.2499
   66SAPC   H6R 5458   5.122   1.603   6.673 -4.9736 -1.3397 -2.1799
   66SAPC   C27 5459   5.153   1.397   6.749 -0.0580  0.4185 -0.2360
   66SAPC   H7R 5460   5.208   1.418   6.843  2.5602 -3.5284 -0.6518
   66SAPC   H7S 5461   5.200   1.304   6.710  1.9819  1.5589 -0.6730
   66SAPC   C28 5462   5.003   1.386   6.768 -0.3326 -0.2301  0.6833
   66SAPC   H8R 5463   4.954   1.324   6.692 -1.1507  0.2545  0.8043
   66SAPC   C29 5464   4.929   1.446   6.858  0.5530 -0.3304  0.0182
   66SAPC   H9R 5465   4.821   1.426   6.855 -0.0606  2.5369  0.6231
   66SAPC  C210 5466   4.975   1.539   6.962  0.7245 -0.7526 -0.2262
   66SAPC  H10R 5467   5.065   1.601   6.942  0.1549  0.4989  0.9472
   66SAPC  H10S 5468   5.002   1.474   7.047 -0.2438  1.0342  1.5295
   66SAPC  C211 5469   4.857   1.627   7.024  0.0117  0.7504 -0.3275
   66SAPC  H11R 5470   4.813   1.695   6.950 -0.7042  0.4709 -0.1662
   66SAPC  C212 5471   4.803   1.619   7.150 -0.1721  0.0665 -0.7296
   66SAPC  H12R 5472   4.721   1.686   7.179 -0.0045 -0.6353  1.5848
   66SAPC  C213 5473   4.849   1.529   7.262  0.1552  0.0418  0.2848
   66SAPC  H13R 5474   4.884   1.428   7.234  0.9529  0.1314  0.9241
   66SAPC  H13S 5475   4.755   1.512   7.320 -1.3320  1.9262 -1.4040
   66SAPC  C214 5476   4.960   1.600   7.340  1.8915  0.8509 -0.8315
   66SAPC  H14R 5477   5.060   1.573   7.304  1.8328  1.9836 -1.9142
   66SAPC  C215 5478   4.939   1.699   7.435 -0.2034 -0.7838  0.6278
   66SAPC  H15R 5479   5.025   1.732   7.496 -2.3932  3.7478  1.6159
   66SAPC  C216 5480   4.809   1.755   7.485 -0.1104 -0.5640  0.0495
   66SAPC  H16R 5481   4.729   1.678   7.482  0.2329 -1.1754  3.3374
   66SAPC  H16S 5482   4.778   1.837   7.418  3.3097  1.4682  0.7162
   66SAPC  C217 5483   4.814   1.820   7.624  0.2772  0.2517  0.6480
   66SAPC  H17R 5484   4.850   1.923   7.604  0.7774  0.0561  0.5299
   66SAPC  H17S 5485   4.885   1.761   7.686  0.3016 -0.8321 -0.3783
   66SAPC  C218 5486   4.678   1.853   7.685  1.1629  0.6067  0.2526
   66SAPC  H18R 5487   4.628   1.754   7.701 -0.4777  1.3313 -0.1678
   66SAPC  H18S 5488   4.616   1.901   7.606 -0.5220 -0.9022  0.5743
   66SAPC  C219 5489   4.671   1.936   7.814  0.4316  0.7783  0.4587
   66SAPC  H19R 5490   4.565   1.956   7.842 -1.1226 -1.5252 -3.0783
   66SAPC  H19S 5491   4.708   2.035   7.781 -2.4950  1.9502  0.3734
   66SAPC  C220 5492   4.758   1.894   7.931 -0.4399  0.2184 -0.5333
   66SAPC  H20R 5493   4.748   1.977   8.004 -1.5331 -0.5869  0.2918
   66SAPC  H20S 5494   4.862   1.888   7.893 -0.1005  0.7475  0.2865
   66SAPC  H20T 5495   4.718   1.804   7.983  1.0820 -0.2451 -0.1150
   66SAPC   C33 5496   4.554   1.631   6.600 -0.0776 -0.3500  0.4999
   66SAPC   H3X 5497   4.515   1.573   6.514  0.0159 -2.7425  1.9675
   66SAPC   H3Y 5498   4.564   1.734   6.561  2.2589 -1.1406 -1.2540
   66SAPC   C34 5499   4.462   1.623   6.720  0.1211 -0.4369 -0.4431
   66SAPC   H4X 5500   4.475   1.521   6.763 -1.9882 -0.0061  1.4062
   66SAPC   H4Y 5501   4.361   1.632   6.676 -0.4707 -1.5131  0.6271
   66SAPC   C35 5502   4.476   1.726   6.831  0.5406 -0.0575 -0.5770
   66SAPC   H5X 5503   4.440   1.826   6.797  0.1912 -0.6207 -1.9315
   66SAPC   H5Y 5504   4.580   1.744   6.867 -0.6302  2.8084  1.8573
   66SAPC   C36 5505   4.400   1.695   6.958  0.2608  0.1940 -0.1513
   66SAPC   H6X 5506   4.417   1.589   6.987  2.0557  0.5005  0.0095
   66SAPC   H6Y 5507   4.291   1.693   6.934  0.1890 -2.3122  0.1314
   66SAPC   C37 5508   4.421   1.790   7.076 -0.6430  0.7826  0.1114
   66SAPC   H7X 5509   4.368   1.888   7.073 -0.7688  0.7676  1.1944
   66SAPC   H7Y 5510   4.529   1.817   7.073 -0.7589  1.2353 -0.0759
   66SAPC   C38 5511   4.385   1.739   7.220 -0.2286  0.0227  0.6654
   66SAPC   H8X 5512   4.440   1.645   7.243  0.3531 -0.1360 -1.1487
   66SAPC   H8Y 5513   4.283   1.698   7.201 -0.5969  0.8202  0.8714
   66SAPC   C39 5514   4.377   1.838   7.333  0.0096  0.5879 -0.0653
   66SAPC   H9X 5515   4.278   1.889   7.338 -0.2955 -0.1385  2.4282
   66SAPC   H9Y 5516   4.460   1.911   7.322  0.0650  0.4022 -0.9754
   66SAPC  C310 5517   4.385   1.771   7.466 -0.3558 -0.1253  0.1691
   66SAPC  H10X 5518   4.386   1.856   7.537  2.2988 -1.6131  2.1085
   66SAPC  H10Y 5519   4.485   1.729   7.489  0.4532  0.9462 -1.2377
   66SAPC  C311 5520   4.273   1.681   7.496 -0.1008  0.3106 -0.2561
   66SAPC  H11X 5521   4.269   1.609   7.412  2.4975 -0.4701  0.2204
   66SAPC  H11Y 5522   4.177   1.738   7.502  0.8368  1.8979  0.1237
   66SAPC  C312 5523   4.296   1.615   7.635 -1.2498  0.3889  0.5246
   66SAPC  H12X 5524   4.396   1.568   7.650 -1.2255  0.2300 -0.1029
   66SAPC  H12Y 5525   4.232   1.527   7.654 -1.7692  0.7533  0.4785
   66SAPC  C313 5526   4.278   1.712   7.756 -0.6027 -0.4488  0.4326
   66SAPC  H13X 5527   4.174   1.742   7.731 -0.2240 -1.8146 -3.5954
   66SAPC  H13Y 5528   4.340   1.803   7.745  1.0205 -1.3340  1.7687
   66SAPC  C314 5529   4.280   1.653   7.898 -0.4518 -0.1434 -0.0865
   66SAPC  H14X 5530   4.382   1.610   7.910  1.1039  2.7644 -1.5059
   66SAPC  H14Y 5531   4.199   1.578   7.911 -0.9070  0.0434 -1.6528
   66SAPC  C315 5532   4.284   1.775   7.998  0.0513  0.0096 -0.7883
   66SAPC  H15X 5533   4.180   1.811   7.992  0.4066  1.2420  0.1694
   66SAPC  H15Y 5534   4.357   1.857   7.980  1.0982 -0.7591 -0.1564
   66SAPC  C316 5535   4.296   1.735   8.150 -0.3330 -0.4755  0.4557
   66SAPC  H16X 5536   4.301   1.840   8.187 -0.0399  1.5393 -4.4956
   66SAPC  H16Y 5537   4.391   1.680   8.161  0.9843  0.7026 -3.2836
   66SAPC  C317 5538   4.173   1.661   8.188  0.5251 -0.4929  0.1119
   66SAPC  H17X 5539   4.161   1.559   8.146  0.6084 -1.6490  2.7118
   66SAPC  H17Y 5540   4.082   1.712   8.151  1.0841 -0.4569 -1.3025
   66SAPC  C318 5541   4.154   1.634   8.335  0.4424  0.6038  1.3009
   66SAPC  H18X 5542   4.242   1.616   8.401  1.9780  0.4006 -0.6963
   66SAPC  H18Y 5543   4.087   1.547   8.351  2.9329 -1.5768  0.5062
   66SAPC  H18Z 5544   4.104   1.724   8.377 -1.9463  0.1389 -0.3699
   67SAPC     N 5545   6.256   3.853   6.075  0.2402 -0.4931 -0.2956
   67SAPC   C12 5546   6.196   3.930   6.185 -0.5630  0.0923  0.4684
   67SAPC  H12A 5547   6.258   4.007   6.228 -0.7812 -0.3206  1.5393
   67SAPC  H12B 5548   6.181   3.859   6.265  0.5434  0.1895  0.7836
   67SAPC   C13 5549   6.318   3.946   5.973 -0.0241 -0.1042 -0.2687
   67SAPC  H13A 5550   6.394   3.898   5.914  0.3648  1.2789 -0.9234
   67SAPC  H13B 5551   6.251   3.974   5.893  0.2148  0.0930 -0.4001
   67SAPC  H13C 5552   6.363   4.033   6.019 -1.3115  0.2576  0.3535
   67SAPC   C14 5553   6.370   3.781   6.131 -0.7617 -0.3374 -0.2216
   67SAPC  H14A 5554   6.441   3.841   6.185 -0.8425  1.6231 -2.1751
   67SAPC  H14B 5555   6.339   3.695   6.188  0.4926 -1.1944 -0.7725
   67SAPC  H14C 5556   6.433   3.732   6.058  0.4049 -0.1604  0.6365
   67SAPC   C15 5557   6.168   3.761   6.002  0.0602 -0.1760  0.1398
   67SAPC  H15A 5558   6.098   3.805   5.933 -0.9836 -2.5686 -0.4192
   67SAPC  H15B 5559   6.224   3.687   5.947 -0.5611  0.9998 -2.2102
   67SAPC  H15C 5560   6.108   3.694   6.063  0.2938 -0.9531 -0.4661
   67SAPC   C11 5561   6.065   3.999   6.149  0.1464 -0.2540  0.0666
   67SAPC  H11A 5562   6.065   4.047   6.049  0.4920  0.6199  0.4770
   67SAPC  H11B 5563   6.059   4.087   6.218  2.2041  2.5568 -3.0412
   67SAPC     P 5564   5.892   3.877   6.311 -0.0956 -0.4892  0.1163
   67SAPC   O13 5565   5.872   4.007   6.388 -0.5857 -0.3628  0.4668
   67SAPC   O14 5566   5.773   3.792   6.282  0.6508  0.0512 -0.5556
   67SAPC   O12 5567   5.944   3.921   6.169  0.0299  0.4795 -0.2441
   67SAPC   O11 5568   6.010   3.797   6.384  0.3452  0.4705  0.4997
   67SAPC    C1 5569   6.046   3.668   6.331  0.1163 -0.7733  0.3900
   67SAPC    HA 5570   6.015   3.651   6.226  2.1114 -0.4594 -0.2978
   67SAPC    HB 5571   6.157   3.661   6.327 -0.0173 -3.6880 -0.9125
   67SAPC    C2 5572   5.983   3.552   6.411  0.2158  0.3121 -1.1747
   67SAPC    HS 5573   5.876   3.534   6.386 -0.4623  1.6900  0.5064
   67SAPC   O21 5574   6.011   3.576   6.557  0.6988  0.2260 -0.3229
   67SAPC   C21 5575   5.902   3.620   6.615 -0.0127  0.3208 -0.0666
   67SAPC   O22 5576   5.801   3.660   6.558  0.3740  0.1657  0.9292
   67SAPC   C22 5577   5.938   3.641   6.764 -0.9179  0.6158 -0.1546
   67SAPC   H2R 5578   5.967   3.542   6.805 -0.2638  0.3533 -1.1898
   67SAPC   H2S 5579   6.037   3.692   6.761 -1.0361  0.8938  0.6873
   67SAPC    C3 5580   6.048   3.421   6.362 -0.0320 -0.3177  0.6934
   67SAPC    HX 5581   6.157   3.433   6.343 -0.4052 -1.1573 -2.3400
   67SAPC    HY 5582   5.989   3.403   6.270  0.5580 -0.5733  0.3657
   67SAPC   O31 5583   6.017   3.305   6.437 -0.2381  0.3038  0.3829
   67SAPC   C31 5584   6.076   3.294   6.555 -0.2262  0.7080 -0.1895
   67SAPC   O32 5585   6.165   3.364   6.596 -0.2377  0.3768  0.4415
   67SAPC   C32 5586   6.020   3.170   6.624 -0.1965  0.0875  0.8444
   67SAPC   H2X 5587   6.044   3.080   6.563  1.0861  0.5681  0.5978
   67SAPC   H2Y 5588   5.912   3.188   6.636  0.1911  2.2968  1.4778
   67SAPC   C23 5589   5.831   3.727   6.840 -0.0591 -0.1322  0.2393
   67SAPC   H3R 5590   5.729   3.684   6.832  1.0125 -2.4920 -2.1582
   67SAPC   H3S 5591   5.833   3.825   6.787 -1.4224 -0.2627 -0.0912
   67SAPC   C24 5592   5.880   3.765   6.982 -0.5148  0.5867 -0.0497
   67SAPC   H4R 5593   5.799   3.825   7.027 -0.7441  2.3090 -2.5445
   67SAPC   H4S 5594   5.971   3.828   6.973 -1.0764  1.6129  1.0907
   67SAPC   C25 5595   5.909   3.646   7.072  0.5740  0.6197  0.2682
   67SAPC   H5R 5596   5.824   3.577   7.070 -1.2380  2.7535 -0.2125
   67SAPC   C26 5597   6.023   3.632   7.153  0.0145 -0.1424 -0.1507
   67SAPC   H6R 5598   6.034   3.544   7.218 -0.6511 -0.7844 -0.8917
   67SAPC   C27 5599   6.133   3.737   7.167  0.1412 -0.9139 -0.4538
   67SAPC   H7R 5600   6.144   3.774   7.271  0.6522 -3.7118  0.5887
   67SAPC   H7S 5601   6.110   3.827   7.106 -0.0254  0.6070  1.7484
   67SAPC   C28 5602   6.263   3.685   7.115  0.4581  1.1318  0.3474
   67SAPC   H8R 5603   6.283   3.692   7.007  1.5109 -0.8147  0.3776
   67SAPC   C29 5604   6.345   3.602   7.178  0.2549  0.5416 -0.1848
   67SAPC   H9R 5605   6.444   3.583   7.133 -0.5084  1.0686 -2.1905
   67SAPC  C210 5606   6.331   3.558   7.320  0.9896 -0.3268  0.5853
   67SAPC  H10R 5607   6.382   3.460   7.335 -0.6664 -1.8053 -2.4727
   67SAPC  H10S 5608   6.226   3.535   7.346  1.6965 -1.7105  2.5398
   67SAPC  C211 5609   6.386   3.660   7.423  0.0642 -0.4343  0.1267
   67SAPC  H11R 5610   6.457   3.737   7.389  0.8170 -2.0867 -2.3449
   67SAPC  C212 5611   6.355   3.667   7.556  0.2780  0.0723  0.5546
   67SAPC  H12R 5612   6.394   3.747   7.621  1.3078  1.2066 -1.3784
   67SAPC  C213 5613   6.264   3.572   7.628  0.5963 -0.3987 -0.0396
   67SAPC  H13R 5614   6.306   3.553   7.729  0.2215  0.7222  0.3420
   67SAPC  H13S 5615   6.279   3.474   7.578  2.4640 -0.7206  1.0482
   67SAPC  C214 5616   6.124   3.622   7.630 -0.2321 -0.1432  0.7683
   67SAPC  H14R 5617   6.098   3.685   7.543  0.8874  1.1224  1.3040
   67SAPC  C215 5618   6.034   3.597   7.725  0.6676  0.5129  0.1223
   67SAPC  H15R 5619   5.929   3.629   7.718  0.4389 -0.3043 -0.3615
   67SAPC  C216 5620   6.040   3.529   7.857 -0.2194  0.9204  0.5864
   67SAPC  H16R 5621   6.091   3.432   7.837 -0.9680  0.0943  2.4640
   67SAPC  H16S 5622   5.940   3.497   7.894 -0.2463  0.2285 -0.0469
   67SAPC  C217 5623   6.094   3.610   7.976  0.2476 -0.0354  0.4569
   67SAPC  H17R 5624   6.020   3.692   7.986 -0.8673 -0.9828  0.1925
   67SAPC  H17S 5625   6.197   3.646   7.953 -0.0888 -0.3300 -1.6335
   67SAPC  C218 5626   6.101   3.524   8.103  0.5776 -0.6520  0.1792
   67SAPC  H18R 5627   6.174   3.444   8.079  0.2948 -1.1868  1.0280
   67SAPC  H18S 5628   6.001   3.476   8.114 -1.2925  3.2014  2.0724
   67SAPC  C219 5629   6.142   3.589   8.240 -0.2090 -0.0410  0.1724
   67SAPC  H19R 5630   6.100   3.691   8.247  0.6279  0.2275  1.6567
   67SAPC  H19S 5631   6.253   3.588   8.227 -0.2432 -1.3323 -0.1673
   67SAPC  C220 5632   6.090   3.521   8.366  0.4931  0.3955 -0.5474
   67SAPC  H20R 5633   6.096   3.583   8.458 -0.0468  2.1375 -1.6169
   67SAPC  H20S 5634   6.141   3.424   8.380  0.5619  0.7126  1.6425
   67SAPC  H20T 5635   5.984   3.496   8.342  0.9964 -0.0802 -2.4614
   67SAPC   C33 5636   6.067   3.161   6.771 -0.7067 -0.3049 -0.2599
   67SAPC   H3X 5637   6.044   3.256   6.825 -1.3560  0.0309 -1.0897
   67SAPC   H3Y 5638   6.176   3.145   6.769 -0.5148  0.7723 -2.4813
   67SAPC   C34 5639   5.977   3.061   6.849  0.2999 -0.5435  0.3173
   67SAPC   H4X 5640   5.959   2.969   6.789 -0.5501  0.2270 -0.6435
   67SAPC   H4Y 5641   5.879   3.110   6.868  0.3352 -0.3143 -0.0681
   67SAPC   C35 5642   6.036   3.031   6.987  0.4794 -0.1919 -0.1717
   67SAPC   H5X 5643   6.146   3.025   6.993  0.3641 -1.6570  1.2720
   67SAPC   H5Y 5644   5.981   2.936   7.008 -1.1205  0.6513 -0.3566
   67SAPC   C36 5645   6.005   3.135   7.098 -0.3835  0.0167  0.6551
   67SAPC   H6X 5646   5.912   3.189   7.071  1.2580  3.6349  1.6096
   67SAPC   H6Y 5647   6.082   3.215   7.087  0.4109 -0.7650  0.3886
   67SAPC   C37 5648   6.000   3.072   7.240  0.0678 -0.3265 -0.1562
   67SAPC   H7X 5649   6.098   3.022   7.251  1.2834  1.6637 -1.3788
   67SAPC   H7Y 5650   5.913   3.002   7.237  1.1080 -1.6798  0.3673
   67SAPC   C38 5651   5.980   3.165   7.364 -0.9853 -0.4736  0.8035
   67SAPC   H8X 5652   5.885   3.223   7.365 -0.9345 -0.3717  0.1689
   67SAPC   H8Y 5653   6.069   3.231   7.367 -1.4496  0.2728 -0.8927
   67SAPC   C39 5654   5.977   3.080   7.483 -0.0600  0.2297 -0.4414
   67SAPC   H9X 5655   6.057   3.003   7.473 -0.0945  0.4315 -2.9204
   67SAPC   H9Y 5656   5.885   3.017   7.477  0.2614 -0.1681 -1.6578
   67SAPC  C310 5657   5.978   3.155   7.616 -0.5939  0.3081  0.3378
   67SAPC  H10X 5658   5.887   3.215   7.633  0.4692  2.0918  0.0075
   67SAPC  H10Y 5659   6.068   3.220   7.612  0.5021 -1.0759  1.4663
   67SAPC  C311 5660   6.011   3.073   7.748 -0.1044 -0.2212  0.2822
   67SAPC  H11X 5661   6.111   3.028   7.737 -0.1678 -0.0985 -0.8683
   67SAPC  H11Y 5662   5.926   3.002   7.763  1.0584 -1.2333  2.6010
   67SAPC  C312 5663   6.022   3.171   7.860 -0.3304 -0.1013 -1.5328
   67SAPC  H12X 5664   5.949   3.253   7.846  0.9432  1.3846  0.0761
   67SAPC  H12Y 5665   6.120   3.223   7.860  0.6695 -1.8707 -0.7595
   67SAPC  C313 5666   6.015   3.119   8.007 -0.0979  0.4638  0.4447
   67SAPC  H13X 5667   6.003   3.205   8.076 -2.5936  0.6915 -0.1448
   67SAPC  H13Y 5668   6.105   3.057   8.026  0.2569  0.4580 -1.1223
   67SAPC  C314 5669   5.884   3.036   8.021 -0.1348 -0.3349  0.7755
   67SAPC  H14X 5670   5.911   2.943   7.967  1.4470  0.3646  0.2881
   67SAPC  H14Y 5671   5.807   3.100   7.973  1.1055 -0.1738 -1.0954
   67SAPC  C315 5672   5.842   3.011   8.169 -0.9267 -0.0111  0.4150
   67SAPC  H15X 5673   5.733   2.991   8.176 -1.1838  0.2889 -1.9468
   67SAPC  H15Y 5674   5.867   3.105   8.222  0.2948 -0.2943  0.3960
   67SAPC  C316 5675   5.922   2.899   8.231  0.2522  0.7294  0.4486
   67SAPC  H16X 5676   6.029   2.930   8.233  1.0639 -1.8264  0.6303
   67SAPC  H16Y 5677   5.915   2.806   8.170  2.7250  0.4794  0.4369
   67SAPC  C317 5678   5.869   2.873   8.377 -0.1936 -0.6434 -0.0747
   67SAPC  H17X 5679   5.852   2.966   8.435 -0.7843 -0.9592  0.2699
   67SAPC  H17Y 5680   5.955   2.836   8.438 -0.4365  0.8994  1.2782
   67SAPC  C318 5681   5.743   2.793   8.401  0.6787  0.5553  0.3197
   67SAPC  H18X 5682   5.737   2.773   8.510  1.5199  0.3692  0.3373
   67SAPC  H18Y 5683   5.745   2.704   8.334 -1.2543  0.3803  0.4207
   67SAPC  H18Z 5684   5.655   2.849   8.364 -1.4419 -2.7530 -0.1060
   68SAPC     N 5685   3.984   3.373   6.087 -0.3323 -0.0450 -0.0214
   68SAPC   C12 5686   3.933   3.326   6.226  0.0511  0.1243  0.8709
   68SAPC  H12A 5687   3.828   3.343   6.245  0.0032  1.0316 -0.1131
   68SAPC  H12B 5688   3.975   3.394   6.299 -0.0646  1.1250  0.0254
   68SAPC   C13 5689   4.133   3.395   6.102 -0.1575  0.4095  0.5052
   68SAPC  H13A 5690   4.157   3.484   6.158  0.8746  1.7772 -1.9708
   68SAPC  H13B 5691   4.181   3.308   6.145  0.9343  0.6555 -0.1872
   68SAPC  H13C 5692   4.180   3.391   6.005  0.6144 -0.8326  0.9029
   68SAPC   C14 5693   3.952   3.267   5.978  0.1705 -0.1877 -0.3873
   68SAPC  H14A 5694   3.852   3.289   5.943  0.2855 -0.3994 -0.8572
   68SAPC  H14B 5695   4.022   3.268   5.896 -0.2116 -0.0636 -0.7185
   68SAPC  H14C 5696   3.953   3.170   6.025  2.5468 -0.2541 -0.4473
   68SAPC   C15 5697   3.932   3.498   6.032  0.0640 -0.3912  0.1333
   68SAPC  H15A 5698   3.965   3.516   5.931  0.5207 -0.6670  0.2331
   68SAPC  H15B 5699   3.825   3.494   6.015 -0.4025  1.7279  2.0861
   68SAPC  H15C 5700   3.948   3.585   6.094  1.5883  0.1698 -1.0044
   68SAPC   C11 5701   3.969   3.176   6.261 -0.5578 -0.1536 -0.9669
   68SAPC  H11A 5702   3.953   3.173   6.371 -1.2844  4.0267 -0.7952
   68SAPC  H11B 5703   4.075   3.151   6.243  0.6979  0.3983  4.1700
   68SAPC     P 5704   3.742   3.044   6.243 -0.2113 -0.4592  0.2950
   68SAPC   O13 5705   3.657   3.140   6.174  0.6820 -0.2117 -0.4724
   68SAPC   O14 5706   3.715   2.900   6.223 -0.0883 -0.7568  0.4791
   68SAPC   O12 5707   3.887   3.074   6.197 -0.8639 -0.1113  0.5389
   68SAPC   O11 5708   3.741   3.080   6.398 -0.3417 -0.1470  0.4211
   68SAPC    C1 5709   3.735   2.981   6.503  0.7033 -0.0519  0.0767
   68SAPC    HA 5710   3.787   2.892   6.463 -1.3536 -2.0101  1.5278
   68SAPC    HB 5711   3.791   3.022   6.590 -3.0225  1.9761  1.7552
   68SAPC    C2 5712   3.592   2.929   6.548 -0.4891 -0.1448 -0.1285
   68SAPC    HS 5713   3.517   2.937   6.467 -0.8965 -0.5740  0.2038
   68SAPC   O21 5714   3.552   3.018   6.657 -0.2824 -0.1009  0.3733
   68SAPC   C21 5715   3.425   3.006   6.684  0.1992  0.8971 -0.1524
   68SAPC   O22 5716   3.351   2.927   6.623  0.3464  0.4666 -0.3189
   68SAPC   C22 5717   3.394   3.101   6.796  0.2785 -0.2797 -0.3126
   68SAPC   H2R 5718   3.420   3.205   6.770 -1.9034  1.0072  2.1223
   68SAPC   H2S 5719   3.284   3.091   6.811  0.5464 -2.0021  0.7964
   68SAPC    C3 5720   3.599   2.776   6.598  0.8378 -1.0702 -0.3594
   68SAPC    HX 5721   3.608   2.725   6.500  0.5092 -1.2192 -0.3159
   68SAPC    HY 5722   3.503   2.749   6.648  1.1176  2.4918  2.5264
   68SAPC   O31 5723   3.716   2.746   6.688  0.0517  0.5546  0.5010
   68SAPC   C31 5724   3.753   2.618   6.673  0.2846 -0.2163  0.5004
   68SAPC   O32 5725   3.696   2.543   6.598 -0.9490  0.6318  0.5752
   68SAPC   C32 5726   3.866   2.591   6.764 -0.4443 -0.2906 -0.5480
   68SAPC   H2X 5727   3.836   2.619   6.868 -1.1142  0.0241 -0.8164
   68SAPC   H2Y 5728   3.941   2.667   6.735 -1.5364  0.7099 -0.8515
   68SAPC   C23 5729   3.467   3.074   6.933 -0.3704  0.3676 -0.2646
   68SAPC   H3R 5730   3.442   3.154   7.006  2.9531 -0.7608  2.3831
   68SAPC   H3S 5731   3.574   3.096   6.911 -0.7024  1.5072 -0.8167
   68SAPC   C24 5732   3.444   2.940   7.011 -0.7244 -0.1527  0.1179
   68SAPC   H4R 5733   3.505   2.934   7.103 -3.4387  1.7706  2.2232
   68SAPC   H4S 5734   3.482   2.859   6.945 -0.3990  1.1080 -1.2908
   68SAPC   C25 5735   3.301   2.899   7.031 -0.1482  0.1761 -0.7193
   68SAPC   H5R 5736   3.247   2.862   6.942  0.3555 -1.5643 -0.3239
   68SAPC   C26 5737   3.239   2.909   7.151  0.4620  0.0402  1.2916
   68SAPC   H6R 5738   3.131   2.888   7.152  0.3757  0.4413  0.6882
   68SAPC   C27 5739   3.309   2.941   7.276  0.4245 -0.3385  0.1350
   68SAPC   H7R 5740   3.396   3.010   7.268  1.2002 -1.3704 -0.4280
   68SAPC   H7S 5741   3.368   2.853   7.308  1.6531  0.2278 -0.4894
   68SAPC   C28 5742   3.219   2.995   7.382 -0.0289 -0.3258  0.2393
   68SAPC   H8R 5743   3.112   3.007   7.359 -0.7624 -1.5972  2.6495
   68SAPC   C29 5744   3.253   3.029   7.509 -0.1339 -0.6419 -0.7573
   68SAPC   H9R 5745   3.166   3.055   7.571  0.4593  0.5983 -0.4120
   68SAPC  C210 5746   3.390   3.042   7.570  0.0696  0.8246  0.4363
   68SAPC  H10R 5747   3.467   2.997   7.503 -0.2640 -1.4108  1.4593
   68SAPC  H10S 5748   3.391   2.980   7.662  0.6037 -1.4791 -1.0237
   68SAPC  C211 5749   3.411   3.185   7.593 -0.6579 -0.4944 -0.4920
   68SAPC  H11R 5750   3.450   3.246   7.510 -2.6808  2.3069  0.4554
   68SAPC  C212 5751   3.363   3.259   7.696  0.0450  0.4298  0.2381
   68SAPC  H12R 5752   3.378   3.368   7.691 -0.0168  0.4420  0.3353
   68SAPC  C213 5753   3.284   3.204   7.814 -0.6591  0.3128 -0.3930
   68SAPC  H13R 5754   3.195   3.147   7.780 -1.1925 -0.4600  2.0899
   68SAPC  H13S 5755   3.262   3.278   7.893  2.2282 -0.0004  0.8398
   68SAPC  C214 5756   3.364   3.106   7.903  0.5735  0.2173 -0.1405
   68SAPC  H14R 5757   3.331   3.001   7.893  1.4574 -0.1632  0.7833
   68SAPC  C215 5758   3.451   3.136   7.998 -0.3322  0.0431  0.1894
   68SAPC  H15R 5759   3.503   3.058   8.054 -0.8876  0.9826  2.1259
   68SAPC  C216 5760   3.497   3.273   8.041  0.0516 -0.0285 -0.4964
   68SAPC  H16R 5761   3.442   3.294   8.135  1.4080  0.1871  0.2638
   68SAPC  H16S 5762   3.476   3.349   7.963  1.2212 -0.6150 -1.4096
   68SAPC  C217 5763   3.655   3.280   8.056 -0.1477  0.2990  0.9443
   68SAPC  H17R 5764   3.671   3.200   8.132 -1.1142 -0.9830 -0.1541
   68SAPC  H17S 5765   3.691   3.374   8.104 -0.9734  0.4612  1.2812
   68SAPC  C218 5766   3.733   3.250   7.928 -0.7910 -0.3377  0.0267
   68SAPC  H18R 5767   3.716   3.336   7.860 -0.4100 -0.0400  0.2995
   68SAPC  H18S 5768   3.696   3.150   7.895 -2.0723 -1.3797  4.0028
   68SAPC  C219 5769   3.888   3.247   7.953  0.9838  0.0268  0.0698
   68SAPC  H19R 5770   3.911   3.160   8.018  1.1771 -1.3448 -1.7374
   68SAPC  H19S 5771   3.924   3.338   8.006  1.7284  0.4459 -1.1165
   68SAPC  C220 5772   3.960   3.241   7.816  0.2409  0.2478  0.4310
   68SAPC  H20R 5773   3.911   3.171   7.746  0.9797  0.3416 -0.2012
   68SAPC  H20S 5774   4.067   3.214   7.833  0.4416  0.7304 -0.0241
   68SAPC  H20T 5775   3.960   3.346   7.778  1.2866 -0.0812 -0.5400
   68SAPC   C33 5776   3.921   2.445   6.763 -0.0961  0.0581  0.0801
   68SAPC   H3X 5777   4.021   2.447   6.812  1.1628  0.7401 -2.3225
   68SAPC   H3Y 5778   3.954   2.398   6.668 -0.7804  0.6998 -0.4883
   68SAPC   C34 5779   3.829   2.342   6.828  0.0176 -0.3480  1.0361
   68SAPC   H4X 5780   3.871   2.245   6.794  0.5220  0.1195  0.3035
   68SAPC   H4Y 5781   3.724   2.362   6.796 -0.5167  1.0519  3.4245
   68SAPC   C35 5782   3.835   2.326   6.982 -0.4013 -0.3882  0.3777
   68SAPC   H5X 5783   3.939   2.291   7.001 -0.4385 -0.9002 -0.3085
   68SAPC   H5Y 5784   3.761   2.256   7.026  0.3631  1.2104  4.6717
   68SAPC   C36 5785   3.821   2.457   7.068  0.3569  0.3033 -0.0370
   68SAPC   H6X 5786   3.725   2.501   7.032 -0.2932 -2.3300 -1.9037
   68SAPC   H6Y 5787   3.911   2.516   7.042  0.4691  1.1044  2.0442
   68SAPC   C37 5788   3.804   2.433   7.215 -1.0581 -0.5087 -0.2373
   68SAPC   H7X 5789   3.895   2.386   7.257  1.0549  2.0288 -1.6453
   68SAPC   H7Y 5790   3.714   2.369   7.213 -1.6167  0.2703 -1.5544
   68SAPC   C38 5791   3.782   2.562   7.294  0.4209  0.0105 -0.2552
   68SAPC   H8X 5792   3.688   2.611   7.260  0.1902 -0.0649  0.2576
   68SAPC   H8Y 5793   3.873   2.623   7.279  1.0118 -1.1468 -1.6605
   68SAPC   C39 5794   3.774   2.515   7.445 -0.0130 -0.5576 -0.2333
   68SAPC   H9X 5795   3.874   2.471   7.463 -1.2448 -3.7765 -0.6390
   68SAPC   H9Y 5796   3.697   2.438   7.465  1.0872 -1.4147  0.8108
   68SAPC  C310 5797   3.747   2.632   7.541 -0.1883 -0.5515  0.3621
   68SAPC  H10X 5798   3.654   2.690   7.522  0.0546 -0.2194  0.1743
   68SAPC  H10Y 5799   3.831   2.705   7.539  1.4604 -2.2806  2.1935
   68SAPC  C311 5800   3.735   2.587   7.694 -0.2731 -0.5001  0.2345
   68SAPC  H11X 5801   3.833   2.544   7.723  0.5360  0.4243 -1.0031
   68SAPC  H11Y 5802   3.656   2.513   7.716 -0.8532 -0.8386 -2.5572
   68SAPC  C312 5803   3.702   2.705   7.786 -0.3540 -0.8440  0.0817
   68SAPC  H12X 5804   3.605   2.748   7.752  0.3977  1.4584  0.6190
   68SAPC  H12Y 5805   3.768   2.792   7.766 -4.0547  1.7030 -2.4918
   68SAPC  C313 5806   3.697   2.674   7.936  0.2277  0.5228  0.0409
   68SAPC  H13X 5807   3.787   2.613   7.961  0.0698 -0.0241 -0.7105
   68SAPC  H13Y 5808   3.615   2.604   7.960 -0.6072  1.6385  0.5311
   68SAPC  C314 5809   3.705   2.805   8.017 -0.8322  0.5093 -1.0559
   68SAPC  H14X 5810   3.604   2.850   8.007 -1.0036  0.6162  0.7647
   68SAPC  H14Y 5811   3.776   2.867   7.958 -1.2040 -0.1316 -2.2000
   68SAPC  C315 5812   3.743   2.778   8.160  0.6790  0.0243 -0.0081
   68SAPC  H15X 5813   3.845   2.733   8.165  0.6371 -0.1097 -0.3487
   68SAPC  H15Y 5814   3.674   2.700   8.198  4.1064 -2.2536  2.1016
   68SAPC  C316 5815   3.755   2.906   8.254  0.1155  0.3471 -0.0854
   68SAPC  H16X 5816   3.811   2.992   8.213  0.3878 -0.6057 -1.8239
   68SAPC  H16Y 5817   3.820   2.879   8.340  0.6190 -0.4404 -0.7090
   68SAPC  C317 5818   3.618   2.941   8.316  0.0193  0.3510  0.9107
   68SAPC  H17X 5819   3.585   2.849   8.369  1.3479  0.2787  1.6613
   68SAPC  H17Y 5820   3.548   2.963   8.233 -1.9900 -0.3805  2.3317
   68SAPC  C318 5821   3.611   3.053   8.420  0.3522 -0.5945  0.3454
   68SAPC  H18X 5822   3.507   3.056   8.461  0.3505 -0.0094  0.3083
   68SAPC  H18Y 5823   3.635   3.149   8.370  0.2176 -2.1898 -3.0514
   68SAPC  H18Z 5824   3.687   3.027   8.496  2.6037 -0.7174 -1.8310
   69SLPC     N 5825   2.700   6.650  10.703 -0.3658 -0.2849 -0.8872
   69SLPC   C13 5826   2.627   6.599  10.826  0.5298  0.3555  0.0757
   69SLPC  H13A 5827   2.695   6.560  10.900 -2.1851 -0.7993  2.1008
   69SLPC  H13B 5828   2.565   6.678  10.865 -0.8650  0.7407 -2.6570
   69SLPC  H13C 5829   2.573   6.509  10.799  0.8765  0.1669 -0.0011
   69SLPC   C14 5830   2.781   6.763  10.739  0.1224 -0.6805  0.2564
   69SLPC  H14A 5831   2.817   6.803  10.645 -0.5326 -4.8125 -2.0239
   69SLPC  H14B 5832   2.723   6.837  10.791 -1.0010 -0.9481 -0.5665
   69SLPC  H14C 5833   2.860   6.732  10.805 -0.6353  1.0173  2.0312
   69SLPC   C15 5834   2.594   6.688  10.601  0.1637 -0.2826 -0.2079
   69SLPC  H15A 5835   2.642   6.727  10.512 -0.0173 -0.1569 -0.2500
   69SLPC  H15B 5836   2.531   6.607  10.568  0.3967 -0.4214 -0.3166
   69SLPC  H15C 5837   2.531   6.765  10.644  0.3132 -1.4515  2.2675
   69SLPC   C12 5838   2.791   6.546  10.644 -0.4515  0.4354 -0.1465
   69SLPC  H12A 5839   2.845   6.585  10.559  0.4045 -1.5908 -0.6017
   69SLPC  H12B 5840   2.739   6.466  10.594  0.6610  0.4465 -1.3974
   69SLPC   C11 5841   2.892   6.485  10.747  0.2187 -0.0863 -0.5429
   69SLPC  H11A 5842   2.955   6.437  10.670 -1.8455  1.9943 -3.7722
   69SLPC  H11B 5843   2.863   6.407  10.821 -0.2766  1.0533  0.5059
   69SLPC     P 5844   3.107   6.644  10.759  0.0298  0.0635  0.2780
   69SLPC   O13 5845   3.132   6.772  10.817 -0.4678  0.2587  0.0505
   69SLPC   O14 5846   3.207   6.536  10.801  0.5214 -0.8973 -0.4817
   69SLPC   O12 5847   2.966   6.594  10.820  0.1249  0.8084  0.5801
   69SLPC   O11 5848   3.093   6.627  10.599  0.1114  0.0885 -0.2234
   69SLPC    C1 5849   3.142   6.731  10.509  1.0558  1.2548  0.5711
   69SLPC    HA 5850   3.128   6.832  10.553 -0.1431  1.3133  0.0834
   69SLPC    HB 5851   3.249   6.722  10.478  1.0777  2.4987  0.2184
   69SLPC    C2 5852   3.062   6.715  10.369  0.2356 -0.3926 -0.1129
   69SLPC    HS 5853   2.955   6.726  10.395 -0.0151 -3.4167  0.4406
   69SLPC   O21 5854   3.096   6.593  10.305 -0.0781 -0.3256 -0.1852
   69SLPC   C21 5855   3.020   6.495  10.333 -0.0076  0.2874  0.4692
   69SLPC   O22 5856   2.919   6.492  10.402 -0.0424 -0.4887  0.2711
   69SLPC   C22 5857   3.070   6.371  10.254 -0.1817  0.3300  0.3771
   69SLPC   H2R 5858   3.110   6.398  10.153 -1.9991 -0.3456 -0.5689
   69SLPC   H2S 5859   3.155   6.333  10.315 -0.4881 -2.7036 -0.9305
   69SLPC    C3 5860   3.094   6.834  10.273 -0.7605  0.3791 -0.8739
   69SLPC    HX 5861   3.200   6.816  10.247 -0.2266 -1.3343  2.0549
   69SLPC    HY 5862   3.094   6.931  10.327  0.5198 -0.4702  0.7339
   69SLPC   O31 5863   3.010   6.826  10.158  0.1459  0.4446  0.0573
   69SLPC   C31 5864   2.893   6.885  10.162 -0.2168 -0.1309 -0.8234
   69SLPC   O32 5865   2.858   6.972  10.242 -0.1223  0.1611 -0.1463
   69SLPC   C32 5866   2.787   6.815  10.067 -0.3150  0.5329 -0.4724
   69SLPC   H2X 5867   2.740   6.894  10.004  0.6438  0.8353 -0.8325
   69SLPC   H2Y 5868   2.710   6.767  10.131  0.7681  1.5947  1.7201
   69SLPC   C23 5869   2.963   6.256  10.230 -0.2002  0.2139 -0.5293
   69SLPC   H3R 5870   2.946   6.204  10.327 -0.6738 -1.3572 -1.4221
   69SLPC   H3S 5871   3.020   6.189  10.163  1.1529  1.4811 -0.6894
   69SLPC   C24 5872   2.820   6.290  10.165  0.9045 -0.1317 -0.1680
   69SLPC   H4R 5873   2.770   6.366  10.228 -2.4266 -0.6887 -1.9170
   69SLPC   H4S 5874   2.765   6.193  10.160 -1.3575  1.1020 -0.4066
   69SLPC   C25 5875   2.831   6.333  10.021  0.1258  0.5038  0.7920
   69SLPC   H5R 5876   2.886   6.253   9.966  0.4201  2.1898 -1.4844
   69SLPC   H5S 5877   2.896   6.422  10.008  1.0148 -0.3438 -0.9086
   69SLPC   C26 5878   2.691   6.363   9.964  0.0877  0.4625 -0.2284
   69SLPC   H6R 5879   2.656   6.458  10.009  1.3063  0.9281 -0.2289
   69SLPC   H6S 5880   2.617   6.285   9.992  1.2501 -0.6977 -0.2794
   69SLPC   C27 5881   2.694   6.385   9.814 -0.4006 -0.0299 -0.7859
   69SLPC   H7R 5882   2.720   6.286   9.771 -3.4075 -0.8508 -0.8948
   69SLPC   H7S 5883   2.778   6.455   9.791  0.3061  0.5950  3.0373
   69SLPC   C28 5884   2.555   6.422   9.762  0.0847 -0.3240 -0.1264
   69SLPC   H8R 5885   2.556   6.453   9.656 -1.1917  2.4507  0.5950
   69SLPC   H8S 5886   2.533   6.514   9.819 -0.9948 -0.8961  0.4257
   69SLPC   C29 5887   2.458   6.309   9.772  0.3395 -0.3024 -0.6509
   69SLPC   H9R 5888   2.504   6.211   9.750  0.5928 -0.3924  0.2704
   69SLPC  C210 5889   2.332   6.316   9.804  0.1078 -0.0491 -0.5929
   69SLPC  H10R 5890   2.271   6.225   9.796  0.4318 -0.1261 -2.9388
   69SLPC  C211 5891   2.267   6.446   9.829  0.5907 -0.6268  0.2660
   69SLPC  H11R 5892   2.301   6.522   9.755 -0.2378 -0.6924 -0.1905
   69SLPC  H11S 5893   2.293   6.484   9.930  3.5770  0.1772 -0.6922
   69SLPC  C212 5894   2.114   6.441   9.833  0.4057  0.2153 -0.1078
   69SLPC  H12R 5895   2.070   6.407   9.928  2.3958  0.4739  0.9461
   69SLPC  C213 5896   2.041   6.463   9.723  0.4853  0.1398 -0.2395
   69SLPC  H13R 5897   1.932   6.447   9.726  0.3250  1.2931  0.6554
   69SLPC  C214 5898   2.091   6.505   9.581  0.4882 -0.5634 -0.1398
   69SLPC  H14R 5899   2.171   6.434   9.550  0.0226 -1.1083 -0.1185
   69SLPC  H14S 5900   2.124   6.610   9.598 -0.7247 -0.1782 -0.0688
   69SLPC  C215 5901   1.986   6.508   9.469 -0.4289  0.2162 -0.6223
   69SLPC  H15R 5902   2.038   6.569   9.393 -1.7683 -0.3865 -2.0772
   69SLPC  H15S 5903   1.898   6.573   9.491 -0.8219  0.2897 -2.2732
   69SLPC  C216 5904   1.939   6.368   9.420  0.2726  0.0603  0.0302
   69SLPC  H16R 5905   1.851   6.401   9.359 -0.1612  2.5930  1.8736
   69SLPC  H16S 5906   1.898   6.305   9.501 -0.1535 -1.7533 -1.5331
   69SLPC  C217 5907   2.047   6.304   9.324  0.1023 -0.1171 -0.0263
   69SLPC  H17R 5908   2.141   6.280   9.379  0.9313  0.9338 -0.9218
   69SLPC  H17S 5909   2.057   6.375   9.239 -1.6834 -0.8141 -0.8581
   69SLPC  C218 5910   2.000   6.168   9.270 -0.4711 -0.4682  0.4416
   69SLPC  H18R 5911   2.075   6.137   9.194 -1.4532 -0.8745 -0.3786
   69SLPC  H18S 5912   1.902   6.179   9.220 -1.9138 -0.9490  2.9633
   69SLPC  H18T 5913   1.985   6.092   9.350 -0.5076  1.1663  2.0535
   69SLPC   C33 5914   2.856   6.725   9.964  0.1641  0.6307 -0.5886
   69SLPC   H3X 5915   2.789   6.640   9.940  1.0246 -0.9635  2.2087
   69SLPC   H3Y 5916   2.949   6.675   9.999  0.1305 -0.4299 -1.9521
   69SLPC   C34 5917   2.902   6.788   9.832 -0.2093 -0.1079 -0.5478
   69SLPC   H4X 5918   2.810   6.817   9.777 -0.8572 -1.2371 -0.1045
   69SLPC   H4Y 5919   2.939   6.701   9.774  0.4800 -0.8422  0.9291
   69SLPC   C35 5920   2.995   6.903   9.849 -0.3082 -0.3870  0.1698
   69SLPC   H5X 5921   3.081   6.863   9.907 -0.1884 -0.6935 -0.2136
   69SLPC   H5Y 5922   2.946   6.988   9.901 -1.2077 -0.9276  0.2187
   69SLPC   C36 5923   3.070   6.948   9.717  0.1559  0.4902 -0.3990
   69SLPC   H6X 5924   2.997   7.014   9.665  0.1723  1.3240  0.6056
   69SLPC   H6Y 5925   3.095   6.862   9.652 -4.4029 -1.4209 -0.0299
   69SLPC   C37 5926   3.197   7.037   9.732  0.6820 -0.1181  0.2632
   69SLPC   H7X 5927   3.261   6.977   9.801 -0.1524 -0.5505  0.6756
   69SLPC   H7Y 5928   3.165   7.118   9.801  2.0679  0.7051 -0.0062
   69SLPC   C38 5929   3.267   7.079   9.599  0.2284 -0.2330  0.2023
   69SLPC   H8X 5930   3.360   7.131   9.630  0.1257 -0.1878  0.4402
   69SLPC   H8Y 5931   3.209   7.161   9.550 -1.0611 -0.3204  1.5264
   69SLPC   C39 5932   3.295   6.967   9.494  0.4051 -0.1148 -0.7316
   69SLPC   H9X 5933   3.200   6.924   9.457  0.1972  0.1296 -0.4855
   69SLPC   H9Y 5934   3.346   6.884   9.547  0.4433  1.0280  1.1187
   69SLPC  C310 5935   3.380   6.999   9.376  0.8362 -0.3578  0.2025
   69SLPC  H10X 5936   3.433   6.909   9.340  2.3673 -0.2887  2.1437
   69SLPC  H10Y 5937   3.463   7.058   9.421 -0.1176 -0.1719  1.8398
   69SLPC  C311 5938   3.312   7.081   9.271 -0.3254 -0.1006 -0.1516
   69SLPC  H11X 5939   3.391   7.102   9.195  0.2178  1.2814  0.7532
   69SLPC  H11Y 5940   3.289   7.182   9.311 -0.7720 -0.5645  0.7888
   69SLPC  C312 5941   3.184   7.022   9.204  0.3028 -0.3623 -0.3491
   69SLPC  H12X 5942   3.111   6.988   9.281  0.0155  1.8957  0.4510
   69SLPC  H12Y 5943   3.220   6.937   9.144  1.6694 -0.4962  0.6203
   69SLPC  C313 5944   3.105   7.118   9.105  0.4395  0.2575  0.0882
   69SLPC  H13X 5945   3.072   7.206   9.165 -1.2964 -0.5058  0.3095
   69SLPC  H13Y 5946   3.012   7.069   9.067  0.1203 -0.9896  2.3002
   69SLPC  C314 5947   3.198   7.161   8.988  1.0007 -0.5046 -0.1870
   69SLPC  H14X 5948   3.247   7.074   8.939  0.6595 -1.2335  0.7091
   69SLPC  H14Y 5949   3.284   7.219   9.028 -0.6744  0.9261  1.5037
   69SLPC  C315 5950   3.130   7.249   8.881  0.4557 -0.5114 -0.4109
   69SLPC  H15X 5951   3.077   7.333   8.931  0.0059 -0.1831 -1.4233
   69SLPC  H15Y 5952   3.051   7.193   8.827 -0.4709 -0.9322  1.2969
   69SLPC  C316 5953   3.228   7.320   8.789 -0.4624  0.4211 -0.1251
   69SLPC  H16X 5954   3.300   7.373   8.855  0.0621 -0.7491  0.2726
   69SLPC  H16Y 5955   3.167   7.387   8.725 -0.9381  0.3012  0.2030
   69SLPC  C317 5956   3.301   7.219   8.695 -0.5009 -0.0610 -0.5120
   69SLPC  H17X 5957   3.224   7.186   8.622 -1.6736 -1.8072  1.3996
   69SLPC  H17Y 5958   3.327   7.139   8.768  0.4652  1.1141  0.4761
   69SLPC  C318 5959   3.437   7.266   8.643  0.4004  0.1429  0.4917
   69SLPC  H18X 5960   3.429   7.321   8.546 -0.1064 -0.7776  0.0037
   69SLPC  H18Y 5961   3.504   7.182   8.615  1.7808  1.4447 -0.3090
   69SLPC  H18Z 5962   3.483   7.333   8.718  1.6293  3.0146 -2.5499
   70SLPC     N 5963   2.996   2.954  11.064 -0.2761  0.1340  0.1610
   70SLPC   C13 5964   3.024   2.998  10.921 -0.3028 -0.1756  0.1641
   70SLPC  H13A 5965   3.072   3.095  10.914  1.6622 -0.8784  2.5256
   70SLPC  H13B 5966   3.101   2.935  10.880 -1.5057 -1.1419 -0.6902
   70SLPC  H13C 5967   2.935   2.987  10.861  0.2486 -2.3587 -0.3263
   70SLPC   C14 5968   2.944   2.809  11.083  0.1864  0.8481  0.3787
   70SLPC  H14A 5969   2.942   2.777  11.186 -1.8996 -0.8232 -0.1189
   70SLPC  H14B 5970   2.843   2.794  11.049  0.4839 -0.4948  0.0416
   70SLPC  H14C 5971   3.010   2.738  11.036 -0.8831 -1.2303  1.8364
   70SLPC   C15 5972   2.891   3.049  11.119  0.0646  0.3490  0.3359
   70SLPC  H15A 5973   2.866   3.036  11.223 -0.0408 -3.2966 -0.0363
   70SLPC  H15B 5974   2.925   3.152  11.118  1.0665  0.0356  1.0980
   70SLPC  H15C 5975   2.792   3.041  11.077  0.5100 -0.4367 -0.5960
   70SLPC   C12 5976   3.128   2.980  11.143  0.5604 -0.0114  0.0486
   70SLPC  H12A 5977   3.109   2.980  11.249 -0.4071  0.2435 -0.1114
   70SLPC  H12B 5978   3.158   3.081  11.122 -0.5428  0.8901  2.4240
   70SLPC   C11 5979   3.251   2.892  11.097 -0.5481 -0.1450 -0.8843
   70SLPC  H11A 5980   3.223   2.786  11.113 -1.0071  0.3056  1.7399
   70SLPC  H11B 5981   3.331   2.892  11.175  0.3969  0.3604 -1.8104
   70SLPC     P 5982   3.380   3.075  10.957  0.1331  0.0538 -0.4892
   70SLPC   O13 5983   3.277   3.178  10.968  0.0890 -0.1171 -0.3366
   70SLPC   O14 5984   3.495   3.090  11.049 -0.5749 -0.2072  0.1288
   70SLPC   O12 5985   3.313   2.927  10.974 -0.0813  0.3935  0.7135
   70SLPC   O11 5986   3.432   3.078  10.808 -0.7733 -0.2919 -0.5371
   70SLPC    C1 5987   3.362   3.018  10.700 -0.0062 -0.0736 -0.1298
   70SLPC    HA 5988   3.406   2.918  10.682  0.0528 -0.0818  0.0586
   70SLPC    HB 5989   3.262   2.980  10.726 -0.2017  1.3089  1.2833
   70SLPC    C2 5990   3.345   3.104  10.572 -0.4062  0.4673  0.1233
   70SLPC    HS 5991   3.315   3.033  10.492  0.4390  0.5143 -0.2455
   70SLPC   O21 5992   3.469   3.172  10.537 -0.1073 -0.1600 -0.2034
   70SLPC   C21 5993   3.554   3.097  10.467 -0.7463 -0.1712  0.6869
   70SLPC   O22 5994   3.537   2.980  10.433  0.0666  0.1942 -0.7866
   70SLPC   C22 5995   3.678   3.184  10.425  0.0888 -0.2689  0.3501
   70SLPC   H2R 5996   3.693   3.243  10.517 -0.7780  0.6678 -0.0840
   70SLPC   H2S 5997   3.763   3.121  10.390  0.8418  0.7002  0.4032
   70SLPC    C3 5998   3.236   3.212  10.600 -0.0223 -0.3409  0.0391
   70SLPC    HX 5999   3.284   3.280  10.674  0.1911  1.0772 -1.3382
   70SLPC    HY 6000   3.148   3.161  10.643  1.2281 -2.1691  0.5221
   70SLPC   O31 6001   3.196   3.291  10.482  0.4896  0.3317  0.0645
   70SLPC   C31 6002   3.251   3.401  10.457 -0.7714  0.0889  0.5097
   70SLPC   O32 6003   3.333   3.465  10.523  0.2981  0.5688 -0.2516
   70SLPC   C32 6004   3.206   3.430  10.310 -0.2862  0.3795  0.3434
   70SLPC   H2X 6005   3.104   3.474  10.316  0.2713  1.4719  3.2924
   70SLPC   H2Y 6006   3.196   3.332  10.258 -0.2203 -0.3260  1.6104
   70SLPC   C23 6007   3.650   3.294  10.329  0.0884 -0.5512 -0.0635
   70SLPC   H3R 6008   3.732   3.368  10.317 -2.4732  2.4780 -0.4373
   70SLPC   H3S 6009   3.566   3.352  10.375  0.1042  0.2827 -1.0457
   70SLPC   C24 6010   3.607   3.243  10.188 -0.1916  0.0907 -0.1216
   70SLPC   H4R 6011   3.508   3.195  10.203  1.3482 -2.7244  2.1048
   70SLPC   H4S 6012   3.686   3.171  10.161 -0.8298 -0.4480 -0.5678
   70SLPC   C25 6013   3.616   3.348  10.085 -0.2765 -0.5626 -0.2793
   70SLPC   H5R 6014   3.720   3.388  10.088 -0.5419  0.1417 -0.2964
   70SLPC   H5S 6015   3.541   3.426  10.108 -1.2018 -0.4780 -3.2165
   70SLPC   C26 6016   3.590   3.302   9.939  0.8022 -0.6438  0.0766
   70SLPC   H6R 6017   3.584   3.398   9.881  0.7468 -0.7014 -0.0131
   70SLPC   H6S 6018   3.490   3.255   9.942  0.8783 -0.9945 -1.6284
   70SLPC   C27 6019   3.698   3.221   9.872 -0.1208 -0.5674 -0.1873
   70SLPC   H7R 6020   3.703   3.120   9.918 -0.1616  0.2837  1.7488
   70SLPC   H7S 6021   3.795   3.274   9.882 -1.0412  1.4752 -1.3586
   70SLPC   C28 6022   3.669   3.218   9.716 -0.9559 -0.0004 -0.7300
   70SLPC   H8R 6023   3.560   3.241   9.721 -0.8860  0.4524 -1.2006
   70SLPC   H8S 6024   3.676   3.114   9.679 -1.9679 -0.2356 -0.2930
   70SLPC   C29 6025   3.748   3.307   9.619 -0.1335 -1.2338  0.1267
   70SLPC   H9R 6026   3.785   3.395   9.673  0.4837 -1.4853  0.1132
   70SLPC  C210 6027   3.778   3.290   9.494 -0.2871 -0.0849  0.1375
   70SLPC  H10R 6028   3.837   3.369   9.445 -1.3384  0.5485 -0.1188
   70SLPC  C211 6029   3.723   3.167   9.418  0.4217 -0.9680  0.2915
   70SLPC  H11R 6030   3.682   3.083   9.478 -2.1957  1.4834  2.2367
   70SLPC  H11S 6031   3.800   3.124   9.351 -1.6028 -0.8996 -2.2573
   70SLPC  C212 6032   3.619   3.225   9.327 -0.0343 -0.0119  0.9856
   70SLPC  H12R 6033   3.517   3.225   9.369  0.1428 -0.5323  1.4234
   70SLPC  C213 6034   3.636   3.257   9.195 -0.2025 -0.0842 -0.1917
   70SLPC  H13R 6035   3.559   3.305   9.133 -0.7347 -1.9088 -1.0045
   70SLPC  C214 6036   3.768   3.235   9.114 -0.3624  0.1404  0.6093
   70SLPC  H14R 6037   3.811   3.139   9.147 -1.7300 -0.6225  0.2561
   70SLPC  H14S 6038   3.844   3.315   9.123 -0.8590  0.7547 -0.4269
   70SLPC  C215 6039   3.749   3.213   8.959 -0.1038 -0.1975 -0.1318
   70SLPC  H15R 6040   3.688   3.299   8.925 -0.8664 -0.8241 -0.3902
   70SLPC  H15S 6041   3.695   3.116   8.947 -1.5365  0.6804 -1.1183
   70SLPC  C216 6042   3.884   3.197   8.890  0.2015  0.2389 -0.6143
   70SLPC  H16R 6043   3.942   3.113   8.935  0.2007 -0.5757 -2.0852
   70SLPC  H16S 6044   3.941   3.291   8.907  0.7880  0.0212 -1.3157
   70SLPC  C217 6045   3.871   3.176   8.741 -0.0183 -0.3685 -0.8263
   70SLPC  H17R 6046   3.803   3.088   8.728 -1.2919  0.1603  1.6903
   70SLPC  H17S 6047   3.968   3.150   8.693  0.4925  3.5468 -2.2641
   70SLPC  C218 6048   3.810   3.293   8.669  0.2364  0.2099 -0.6786
   70SLPC  H18R 6049   3.772   3.260   8.571  1.6084  0.5688 -1.3553
   70SLPC  H18S 6050   3.874   3.384   8.659  0.0867  0.3420 -0.4657
   70SLPC  H18T 6051   3.721   3.336   8.721 -0.4194 -1.6986 -0.1483
   70SLPC   C33 6052   3.300   3.520  10.231  0.1263 -0.1212  0.4009
   70SLPC   H3X 6053   3.404   3.480  10.234  0.0189 -0.3367  1.2921
   70SLPC   H3Y 6054   3.300   3.623  10.273 -0.7507 -0.2954  0.8492
   70SLPC   C34 6055   3.263   3.530  10.085 -0.0937 -0.2441 -0.1112
   70SLPC   H4X 6056   3.299   3.441  10.029 -3.7239 -0.2357 -2.8745
   70SLPC   H4Y 6057   3.311   3.621  10.044 -0.8147  1.4503  2.5677
   70SLPC   C35 6058   3.117   3.553  10.064  0.4029  0.3477 -1.2985
   70SLPC   H5X 6059   3.074   3.630  10.131 -0.0299 -0.3768 -0.7214
   70SLPC   H5Y 6060   3.062   3.457  10.080 -0.5480  1.0998  0.2519
   70SLPC   C36 6061   3.083   3.605   9.928  0.1915 -0.1224  0.0195
   70SLPC   H6X 6062   3.124   3.538   9.850  1.4439  0.4728  0.1371
   70SLPC   H6Y 6063   3.136   3.702   9.917  2.0503 -0.7430  2.5160
   70SLPC   C37 6064   2.933   3.623   9.897  0.9965 -0.4985  0.1964
   70SLPC   H7X 6065   2.892   3.694   9.972 -0.4470 -1.6419  0.5378
   70SLPC   H7Y 6066   2.887   3.524   9.920 -1.4463 -0.0171 -2.0795
   70SLPC   C38 6067   2.897   3.675   9.753  0.1293 -0.1904  0.0132
   70SLPC   H8X 6068   2.944   3.774   9.735 -1.8919  0.8911  0.3479
   70SLPC   H8Y 6069   2.786   3.688   9.756  0.2824  1.1377  0.9190
   70SLPC   C39 6070   2.947   3.589   9.629  0.4363 -0.1319 -0.6449
   70SLPC   H9X 6071   2.908   3.486   9.642 -0.2038 -0.0694 -1.9655
   70SLPC   H9Y 6072   3.058   3.582   9.641  0.2023  0.0276  2.5660
   70SLPC  C310 6073   2.894   3.640   9.493 -0.1826  0.1129 -0.3876
   70SLPC  H10X 6074   2.923   3.745   9.471  0.2679 -0.0797 -0.7474
   70SLPC  H10Y 6075   2.784   3.638   9.486 -0.4304 -0.5705  2.5639
   70SLPC  C311 6076   2.967   3.554   9.382 -0.2678  0.2624  0.5048
   70SLPC  H11X 6077   2.953   3.444   9.385 -3.6523  0.4795 -1.5099
   70SLPC  H11Y 6078   3.075   3.575   9.394  0.1476 -1.7875  0.6518
   70SLPC  C312 6079   2.933   3.606   9.241 -0.0855  0.6802  0.1432
   70SLPC  H12X 6080   3.000   3.555   9.169  1.1829 -0.1371  1.8506
   70SLPC  H12Y 6081   2.960   3.713   9.228 -0.8059  0.5467 -3.6249
   70SLPC  C313 6082   2.788   3.570   9.200 -0.3597  0.2726 -0.0309
   70SLPC  H13X 6083   2.728   3.629   9.272 -0.8843 -0.0468 -0.2035
   70SLPC  H13Y 6084   2.768   3.463   9.220  0.4293  0.2368  0.6420
   70SLPC  C314 6085   2.754   3.601   9.060 -0.3681 -0.7037 -0.9915
   70SLPC  H14X 6086   2.767   3.709   9.039  0.1852 -0.9683 -2.0442
   70SLPC  H14Y 6087   2.645   3.578   9.052 -0.3736 -1.0686 -0.0023
   70SLPC  C315 6088   2.827   3.519   8.956  0.2036 -0.2255  0.7776
   70SLPC  H15X 6089   2.790   3.414   8.959 -1.1554  0.1165 -1.7264
   70SLPC  H15Y 6090   2.935   3.509   8.980  0.5940 -4.3014 -1.6434
   70SLPC  C316 6091   2.810   3.573   8.814  0.3069  0.0139  0.2901
   70SLPC  H16X 6092   2.847   3.504   8.735 -0.6219 -1.0115  0.7314
   70SLPC  H16Y 6093   2.852   3.674   8.794 -0.6771 -0.2193 -3.6756
   70SLPC  C317 6094   2.656   3.585   8.776  0.1641 -0.4875  0.0962
   70SLPC  H17X 6095   2.590   3.529   8.846 -0.4246 -1.2270 -1.0035
   70SLPC  H17Y 6096   2.646   3.527   8.681  0.8072  0.2353 -0.4269
   70SLPC  C318 6097   2.606   3.727   8.750  0.3407  0.3154 -0.3669
   70SLPC  H18X 6098   2.611   3.776   8.849 -0.0971 -2.4395  1.0982
   70SLPC  H18Y 6099   2.501   3.726   8.711  0.0668  1.4839  0.2929
   70SLPC  H18Z 6100   2.667   3.784   8.676 -0.1530  2.1547  0.5762
   71SLPC     N 6101   2.480   3.367  10.607 -0.1633 -0.6153 -0.1858
   71SLPC   C13 6102   2.468   3.323  10.752  0.3653 -0.0198 -0.4510
   71SLPC  H13A 6103   2.539   3.242  10.761 -1.3566 -2.1555 -4.0131
   71SLPC  H13B 6104   2.487   3.406  10.819 -1.9592  0.0103  0.2610
   71SLPC  H13C 6105   2.371   3.287  10.784 -0.4130  1.2779 -1.2651
   71SLPC   C14 6106   2.619   3.427  10.593 -0.0245  0.0255 -0.2919
   71SLPC  H14A 6107   2.702   3.363  10.618  0.4638  0.0349 -1.7952
   71SLPC  H14B 6108   2.638   3.449  10.489  0.7010 -0.0916 -0.1882
   71SLPC  H14C 6109   2.631   3.516  10.652  1.4110  0.6453 -1.4682
   71SLPC   C15 6110   2.379   3.475  10.570 -0.8263  0.4814  0.2581
   71SLPC  H15A 6111   2.276   3.442  10.579 -0.5758 -0.1625  0.8615
   71SLPC  H15B 6112   2.389   3.562  10.634 -1.3092  2.0640 -1.7359
   71SLPC  H15C 6113   2.386   3.508  10.468  0.0792 -0.7607 -0.0950
   71SLPC   C12 6114   2.471   3.253  10.517  0.5681 -1.2992 -0.5840
   71SLPC  H12A 6115   2.555   3.187  10.532  0.4314 -0.9357  2.1870
   71SLPC  H12B 6116   2.467   3.288  10.415  0.5048 -3.3209 -1.3323
   71SLPC   C11 6117   2.344   3.160  10.516 -0.3641 -0.0827 -0.2530
   71SLPC  H11A 6118   2.355   3.074  10.446 -1.0341 -0.6233  0.2920
   71SLPC  H11B 6119   2.277   3.228  10.458  0.5380 -0.1337 -1.3933
   71SLPC     P 6120   2.146   3.148  10.690  0.0342 -0.1024  0.5062
   71SLPC   O13 6121   2.119   3.055  10.803 -0.0811  0.2487 -0.7068
   71SLPC   O14 6122   2.119   3.293  10.716  0.9748 -0.1090 -0.0681
   71SLPC   O12 6123   2.296   3.120  10.641 -0.0161 -0.4153 -0.3582
   71SLPC   O11 6124   2.065   3.111  10.557  0.1595  0.3770  0.1657
   71SLPC    C1 6125   2.020   2.983  10.523 -0.1900  0.7850  0.0164
   71SLPC    HA 6126   2.034   2.910  10.605 -2.6101  1.2164  0.8757
   71SLPC    HB 6127   1.910   2.984  10.510 -0.0501  1.1507 -1.3475
   71SLPC    C2 6128   2.069   2.942  10.390 -0.5490  0.7393  0.4880
   71SLPC    HS 6129   2.180   2.943  10.398 -0.5073 -0.9944  0.3688
   71SLPC   O21 6130   2.015   3.027  10.284 -0.1102  0.4702  0.2426
   71SLPC   C21 6131   2.109   3.096  10.212  0.2431  0.1830 -0.0168
   71SLPC   O22 6132   2.227   3.072  10.217 -0.2502 -0.3688 -0.8615
   71SLPC   C22 6133   2.035   3.187  10.107 -0.0568  0.4777 -0.0882
   71SLPC   H2R 6134   1.937   3.138  10.088  0.2907  0.6297 -2.7600
   71SLPC   H2S 6135   2.019   3.285  10.156  0.4476  0.2988  0.4459
   71SLPC    C3 6136   2.029   2.799  10.357 -0.5126  0.1792 -0.6287
   71SLPC    HX 6137   1.918   2.799  10.348 -0.4937 -1.1930 -1.0446
   71SLPC    HY 6138   2.049   2.739  10.447 -1.6535  0.2557 -0.3034
   71SLPC   O31 6139   2.091   2.738  10.234 -0.5024 -0.5636  0.0117
   71SLPC   C31 6140   2.202   2.661  10.253 -0.0359 -0.0654  0.6044
   71SLPC   O32 6141   2.245   2.632  10.363 -0.0768 -0.2661 -0.0785
   71SLPC   C32 6142   2.259   2.612  10.121  0.1893  0.2391  0.5920
   71SLPC   H2X 6143   2.324   2.691  10.078  1.6975 -1.1088  0.3005
   71SLPC   H2Y 6144   2.177   2.598  10.046 -1.9060  1.0351  2.6058
   71SLPC   C23 6145   2.122   3.198   9.983  0.6584 -0.0519  0.2129
   71SLPC   H3R 6146   2.227   3.205  10.017  0.1985  1.3836  1.4532
   71SLPC   H3S 6147   2.096   3.295   9.936 -1.3104 -0.5573  0.1409
   71SLPC   C24 6148   2.093   3.087   9.881 -1.0277 -0.2926  0.0347
   71SLPC   H4R 6149   1.994   3.102   9.834 -0.9565 -1.9474 -0.7239
   71SLPC   H4S 6150   2.087   2.992   9.940 -0.3972 -0.7357 -0.5950
   71SLPC   C25 6151   2.208   3.082   9.778 -0.6593  0.6216 -1.5081
   71SLPC   H5R 6152   2.290   3.013   9.807 -0.3707  1.1519 -1.0402
   71SLPC   H5S 6153   2.256   3.181   9.765  0.3753  0.3571 -0.0130
   71SLPC   C26 6154   2.166   3.045   9.637 -0.0983  0.5262  0.0740
   71SLPC   H6R 6155   2.074   3.102   9.614  0.6986  1.3066 -1.3268
   71SLPC   H6S 6156   2.144   2.939   9.617 -1.4651  1.2881 -3.0174
   71SLPC   C27 6157   2.262   3.095   9.532  0.6702  0.3260 -0.3923
   71SLPC   H7R 6158   2.354   3.035   9.547 -0.3512 -1.2556 -0.2106
   71SLPC   H7S 6159   2.286   3.201   9.558 -1.2086  0.5191  0.7553
   71SLPC   C28 6160   2.196   3.087   9.393  0.7241 -0.2502 -0.4662
   71SLPC   H8R 6161   2.087   3.106   9.404  1.0123  1.6058 -0.5244
   71SLPC   H8S 6162   2.201   2.981   9.360 -2.0314 -0.4402 -0.5034
   71SLPC   C29 6163   2.258   3.176   9.291  0.4627 -0.8333  0.6348
   71SLPC   H9R 6164   2.367   3.174   9.302  0.8216  2.5491 -0.9950
   71SLPC  C210 6165   2.196   3.250   9.200 -0.2519  0.3491  0.3975
   71SLPC  H10R 6166   2.270   3.291   9.130  1.7000 -1.4781  1.2856
   71SLPC  C211 6167   2.051   3.264   9.176  0.2515  0.7355  0.6152
   71SLPC  H11R 6168   2.034   3.372   9.158  0.7208  0.8449  0.8320
   71SLPC  H11S 6169   1.997   3.236   9.268 -1.0095 -1.4503 -0.6886
   71SLPC  C212 6170   1.998   3.188   9.059 -0.6827 -0.2495 -0.3859
   71SLPC  H12R 6171   1.975   3.085   9.090  1.7044 -0.3738  1.2240
   71SLPC  C213 6172   1.967   3.234   8.937 -0.3008 -0.3635 -0.4073
   71SLPC  H13R 6173   1.904   3.169   8.874  1.2237 -2.2092 -0.1419
   71SLPC  C214 6174   1.985   3.376   8.892  0.2385 -0.0490  0.2067
   71SLPC  H14R 6175   2.074   3.417   8.944  1.4757 -1.0206 -1.1013
   71SLPC  H14S 6176   1.891   3.437   8.896  0.6103  0.5405  0.0963
   71SLPC  C215 6177   2.023   3.371   8.749  0.0882 -0.0464  0.2963
   71SLPC  H15R 6178   2.004   3.472   8.708  0.7950  0.0247  0.1386
   71SLPC  H15S 6179   1.962   3.311   8.678 -0.5092  2.1220 -1.1111
   71SLPC  C216 6180   2.170   3.336   8.719 -0.0152 -0.2226  0.6802
   71SLPC  H16R 6181   2.188   3.235   8.761 -1.1159 -0.6567  0.1534
   71SLPC  H16S 6182   2.244   3.404   8.767  4.5574 -2.2439 -2.7250
   71SLPC  C217 6183   2.200   3.325   8.571 -0.7033 -0.2300  0.0155
   71SLPC  H17R 6184   2.204   3.422   8.519 -3.2077 -0.1242 -0.1021
   71SLPC  H17S 6185   2.119   3.268   8.520 -0.4282 -2.0556  1.4765
   71SLPC  C218 6186   2.328   3.254   8.540 -0.1600  0.1980  0.6019
   71SLPC  H18R 6187   2.410   3.310   8.589  0.3024  0.6158 -0.6013
   71SLPC  H18S 6188   2.341   3.252   8.429 -3.7597 -2.3409  0.0290
   71SLPC  H18T 6189   2.335   3.149   8.575 -0.0029  0.4292  1.2653
   71SLPC   C33 6190   2.342   2.493  10.138  0.1433  0.2711 -0.3796
   71SLPC   H3X 6191   2.291   2.413  10.195 -0.4259  1.3330  0.6336
   71SLPC   H3Y 6192   2.436   2.513  10.194 -0.9421  0.1870  1.5632
   71SLPC   C34 6193   2.374   2.427  10.000  0.1837 -0.5695  0.2895
   71SLPC   H4X 6194   2.284   2.385   9.950  0.9743 -3.6742  1.2106
   71SLPC   H4Y 6195   2.431   2.336  10.031  0.3287 -0.1146  1.4194
   71SLPC   C35 6196   2.471   2.509   9.901 -0.1818  0.0301  0.1242
   71SLPC   H5X 6197   2.558   2.450   9.865 -0.5641  1.0352 -2.7061
   71SLPC   H5Y 6198   2.494   2.600   9.960 -1.0746 -1.3959  2.8044
   71SLPC   C36 6199   2.406   2.571   9.776 -0.1619 -0.0554 -0.0105
   71SLPC   H6X 6200   2.438   2.676   9.761 -0.6176  0.0690 -0.1431
   71SLPC   H6Y 6201   2.297   2.573   9.799 -0.9394  2.0127 -3.1720
   71SLPC   C37 6202   2.428   2.482   9.655  0.0707  0.0111  0.1522
   71SLPC   H7X 6203   2.416   2.383   9.705  0.3120  0.4443  1.0843
   71SLPC   H7Y 6204   2.537   2.491   9.633 -0.2577  1.5559 -1.0259
   71SLPC   C38 6205   2.323   2.500   9.542 -1.1537 -0.1297 -0.0834
   71SLPC   H8X 6206   2.223   2.536   9.575 -0.7375  0.3744  0.6738
   71SLPC   H8Y 6207   2.314   2.403   9.489  2.1640  0.7422 -2.6059
   71SLPC   C39 6208   2.371   2.606   9.435  0.5785 -0.5172 -0.0751
   71SLPC   H9X 6209   2.468   2.578   9.390 -0.2371 -2.5136 -0.7234
   71SLPC   H9Y 6210   2.381   2.697   9.497  0.5167 -1.6227  1.6172
   71SLPC  C310 6211   2.262   2.618   9.328  0.3589 -0.2673 -0.4177
   71SLPC  H10X 6212   2.165   2.660   9.362  0.9153 -1.5354  3.1424
   71SLPC  H10Y 6213   2.247   2.514   9.293  0.0323 -0.6396  0.7726
   71SLPC  C311 6214   2.303   2.707   9.211  0.2891 -0.5222  0.2710
   71SLPC  H11X 6215   2.413   2.695   9.201  0.3559  0.3464 -0.1183
   71SLPC  H11Y 6216   2.280   2.814   9.228 -1.5624 -1.0423  1.2836
   71SLPC  C312 6217   2.222   2.687   9.084 -0.3533 -0.5782  0.4991
   71SLPC  H12X 6218   2.116   2.707   9.111 -0.9308 -1.3132 -1.0991
   71SLPC  H12Y 6219   2.245   2.582   9.057  1.4017 -0.8430  2.7234
   71SLPC  C313 6220   2.268   2.773   8.973  0.0492 -0.4815 -0.3642
   71SLPC  H13X 6221   2.376   2.757   8.951  0.4719 -0.4742  1.5669
   71SLPC  H13Y 6222   2.264   2.879   9.006  1.6446 -0.4251 -0.3000
   71SLPC  C314 6223   2.187   2.748   8.846 -0.6974  0.5480 -0.4481
   71SLPC  H14X 6224   2.085   2.715   8.878  0.9778 -2.3102  2.5590
   71SLPC  H14Y 6225   2.237   2.665   8.792  0.6382  0.9930  0.0794
   71SLPC  C315 6226   2.195   2.873   8.765 -0.2349  0.3425 -0.7037
   71SLPC  H15X 6227   2.298   2.896   8.730  0.4034 -0.9985  0.2208
   71SLPC  H15Y 6228   2.161   2.955   8.832  2.6527  1.2305 -0.2107
   71SLPC  C316 6229   2.101   2.858   8.654  0.0224  0.1092 -0.0031
   71SLPC  H16X 6230   2.076   2.960   8.617 -0.7754  0.5893  1.7299
   71SLPC  H16Y 6231   2.002   2.817   8.681 -0.4402  2.3419  2.1161
   71SLPC  C317 6232   2.162   2.776   8.538 -0.4506 -0.8195  0.3774
   71SLPC  H17X 6233   2.080   2.712   8.499  0.0360 -0.7454 -0.8059
   71SLPC  H17Y 6234   2.240   2.704   8.573 -0.0500 -1.1047 -1.0540
   71SLPC  C318 6235   2.226   2.859   8.418  0.9325  0.0882 -0.2936
   71SLPC  H18X 6236   2.151   2.927   8.372  0.3938 -2.6251 -3.8640
   71SLPC  H18Y 6237   2.258   2.791   8.336 -0.3112 -1.4635  0.4745
   71SLPC  H18Z 6238   2.316   2.912   8.458  0.9583 -1.7931  2.3596
   72SLPC     N 6239   3.761   1.611  10.795  0.2311 -0.0289  0.2502
   72SLPC   C13 6240   3.786   1.514  10.910  0.4156  0.5218  0.0112
   72SLPC  H13A 6241   3.878   1.458  10.907  0.6209  0.2416  4.5163
   72SLPC  H13B 6242   3.801   1.572  11.000  1.3834 -0.6168  0.6098
   72SLPC  H13C 6243   3.706   1.442  10.924  1.7635 -1.7022 -2.7734
   72SLPC   C14 6244   3.877   1.709  10.775  0.4209 -0.1934  0.1689
   72SLPC  H14A 6245   3.965   1.650  10.754 -0.0499 -1.2835  1.1259
   72SLPC  H14B 6246   3.856   1.780  10.697 -1.7926  0.0503  0.9329
   72SLPC  H14C 6247   3.896   1.774  10.859  0.2552 -1.4490  1.2192
   72SLPC   C15 6248   3.637   1.688  10.842  0.1849 -0.1919  0.1751
   72SLPC  H15A 6249   3.600   1.762  10.772  0.3850 -0.7225 -0.5093
   72SLPC  H15B 6250   3.548   1.630  10.861 -1.7877  2.8624  0.9527
   72SLPC  H15C 6251   3.662   1.731  10.937 -0.6008 -2.7097  1.6208
   72SLPC   C12 6252   3.720   1.531  10.667 -0.1697  0.2875  0.0864
   72SLPC  H12A 6253   3.681   1.603  10.597 -1.4912  1.4640  1.9357
   72SLPC  H12B 6254   3.645   1.458  10.692  2.6759 -3.0857 -0.3272
   72SLPC   C11 6255   3.838   1.452  10.600 -0.3233 -0.2983 -0.2248
   72SLPC  H11A 6256   3.918   1.523  10.570  0.1770 -0.4283  0.7771
   72SLPC  H11B 6257   3.806   1.407  10.504  0.0089 -1.2116  0.0898
   72SLPC     P 6258   3.858   1.213  10.678  0.4303  0.0138 -0.3213
   72SLPC   O13 6259   3.909   1.133  10.783 -0.1007  0.0382  0.0023
   72SLPC   O14 6260   3.716   1.189  10.651  0.2428 -0.2537  0.1871
   72SLPC   O12 6261   3.901   1.363  10.692  0.7545 -0.2965 -0.5012
   72SLPC   O11 6262   3.927   1.176  10.548  0.0277 -0.5283  0.2732
   72SLPC    C1 6263   4.059   1.215  10.513  0.3391 -0.3568 -0.3647
   72SLPC    HA 6264   4.104   1.292  10.580 -1.6290  1.2772 -0.7953
   72SLPC    HB 6265   4.124   1.125  10.516  1.1572  0.1389 -2.1456
   72SLPC    C2 6266   4.064   1.278  10.367 -0.1428  0.0588  0.7247
   72SLPC    HS 6267   4.045   1.387  10.379  0.9662  0.1348  1.9802
   72SLPC   O21 6268   3.971   1.208  10.283  0.2760  0.3052  0.2338
   72SLPC   C21 6269   3.905   1.282  10.200  0.2999 -0.3560 -0.1321
   72SLPC   O22 6270   3.911   1.402  10.189  0.4028 -0.9214  0.9034
   72SLPC   C22 6271   3.814   1.188  10.116 -0.0957  0.6346 -0.5910
   72SLPC   H2R 6272   3.861   1.167  10.017 -2.0915  1.0992 -1.7096
   72SLPC   H2S 6273   3.789   1.095  10.172 -0.2876  0.3929 -1.0702
   72SLPC    C3 6274   4.207   1.264  10.297 -0.4356 -0.0978 -0.4618
   72SLPC    HX 6275   4.236   1.158  10.288  3.2691  0.7351  0.1005
   72SLPC    HY 6276   4.284   1.308  10.364  4.6512 -2.3363 -4.1660
   72SLPC   O31 6277   4.225   1.333  10.175 -0.1562  0.1290  0.5304
   72SLPC   C31 6278   4.211   1.262  10.063  0.1938  0.7286 -0.6042
   72SLPC   O32 6279   4.184   1.145  10.050 -0.3075 -0.0333  0.1566
   72SLPC   C32 6280   4.206   1.358   9.938 -0.0083  0.2656  0.0186
   72SLPC   H2X 6281   4.268   1.446   9.967  1.2671 -0.4666 -0.4180
   72SLPC   H2Y 6282   4.103   1.397   9.924  1.1329  2.6825 -2.6841
   72SLPC   C23 6283   3.682   1.260  10.068 -0.9526 -0.2078 -0.2259
   72SLPC   H3R 6284   3.656   1.336  10.145  1.6368 -1.6994  2.3031
   72SLPC   H3S 6285   3.605   1.180  10.065 -0.4581 -0.6801 -0.5531
   72SLPC   C24 6286   3.693   1.329   9.931  0.6194 -0.7691  0.2279
   72SLPC   H4R 6287   3.778   1.400   9.922  0.1386 -0.4703 -5.2535
   72SLPC   H4S 6288   3.597   1.384   9.927 -0.6184 -2.8047  0.2728
   72SLPC   C25 6289   3.696   1.241   9.802  0.1040  1.0675  0.3477
   72SLPC   H5R 6290   3.598   1.189   9.792 -0.0977  1.2253  1.3891
   72SLPC   H5S 6291   3.783   1.172   9.810 -0.4519  0.5892  3.4923
   72SLPC   C26 6292   3.718   1.340   9.677 -0.8154 -0.0314 -0.7937
   72SLPC   H6R 6293   3.823   1.373   9.690 -1.1720  0.2194  2.3437
   72SLPC   H6S 6294   3.642   1.421   9.678 -0.5355  0.2268 -0.2349
   72SLPC   C27 6295   3.708   1.266   9.541  0.3879 -0.0395 -0.2037
   72SLPC   H7R 6296   3.608   1.220   9.527  1.1640 -2.5502  1.7729
   72SLPC   H7S 6297   3.790   1.196   9.514 -0.8475 -0.6808 -2.5972
   72SLPC   C28 6298   3.712   1.365   9.420  0.5055 -0.7694  0.3108
   72SLPC   H8R 6299   3.621   1.428   9.428  0.3432 -0.7523 -1.3650
   72SLPC   H8S 6300   3.692   1.316   9.323 -0.9293  1.9261 -0.8825
   72SLPC   C29 6301   3.826   1.457   9.421  0.3627  0.0901  0.0150
   72SLPC   H9R 6302   3.848   1.522   9.507 -0.0853  0.8266 -0.4180
   72SLPC  C210 6303   3.912   1.459   9.316  0.5024 -0.1041  0.4950
   72SLPC  H10R 6304   3.991   1.536   9.319  0.1646  0.2748 -0.3256
   72SLPC  C211 6305   3.909   1.377   9.184 -0.0230 -1.1857 -0.2776
   72SLPC  H11R 6306   3.825   1.404   9.117  0.9771  0.9370 -0.7488
   72SLPC  H11S 6307   3.880   1.275   9.217 -2.9390  0.0236  1.3145
   72SLPC  C212 6308   4.034   1.394   9.098 -0.0991  0.3322  0.2789
   72SLPC  H12R 6309   4.122   1.345   9.143  0.1831  0.3636 -0.2350
   72SLPC  C213 6310   4.049   1.465   8.983  0.3607  0.7871  0.4265
   72SLPC  H13R 6311   4.146   1.480   8.932 -0.2239  1.2163 -0.5917
   72SLPC  C214 6312   3.943   1.538   8.909  0.0370  0.0873  0.7546
   72SLPC  H14R 6313   3.839   1.498   8.916 -0.3538  1.3493  2.7115
   72SLPC  H14S 6314   3.970   1.552   8.802 -2.3296  1.5180  0.2584
   72SLPC  C215 6315   3.914   1.678   8.967  0.5011  0.2117  0.7998
   72SLPC  H15R 6316   4.011   1.734   8.966  0.1099  0.9115  1.2907
   72SLPC  H15S 6317   3.890   1.681   9.075 -0.7047  1.3690  0.5280
   72SLPC  C216 6318   3.815   1.758   8.880 -0.4948 -0.2090  0.2655
   72SLPC  H16R 6319   3.717   1.708   8.864 -1.0258  1.1410 -0.9171
   72SLPC  H16S 6320   3.858   1.777   8.780 -1.5517  0.9907  0.0099
   72SLPC  C217 6321   3.785   1.908   8.925 -0.2350 -0.0764 -0.2655
   72SLPC  H17R 6322   3.762   1.959   8.829  0.9517  2.4485  0.7309
   72SLPC  H17S 6323   3.878   1.940   8.976  0.6257 -0.3825 -1.5908
   72SLPC  C218 6324   3.669   1.931   9.017  0.4454  0.4894 -0.0479
   72SLPC  H18R 6325   3.589   1.856   8.995  1.6849 -1.0101  0.3609
   72SLPC  H18S 6326   3.623   2.030   8.996 -1.4137 -0.2664  0.2508
   72SLPC  H18T 6327   3.705   1.934   9.122  0.2608  2.5490 -0.0011
   72SLPC   C33 6328   4.257   1.275   9.816 -0.4673  0.5253 -0.2919
   72SLPC   H3X 6329   4.179   1.199   9.793 -2.1191  2.4651 -1.5154
   72SLPC   H3Y 6330   4.354   1.229   9.844 -1.0868  0.0347  1.1525
   72SLPC   C34 6331   4.273   1.358   9.689 -0.1251  0.0007 -0.1839
   72SLPC   H4X 6332   4.362   1.421   9.707 -1.3046  1.3373  1.2467
   72SLPC   H4Y 6333   4.185   1.426   9.685  1.5444  2.2363 -0.9566
   72SLPC   C35 6334   4.291   1.274   9.569 -0.3538 -0.4323  0.5302
   72SLPC   H5X 6335   4.191   1.236   9.542  0.8309 -1.7058 -2.5336
   72SLPC   H5Y 6336   4.366   1.194   9.589  2.3605  2.2513  1.9639
   72SLPC   C36 6337   4.349   1.361   9.457  0.0493  0.5598  0.2402
   72SLPC   H6X 6338   4.433   1.428   9.487  1.2781 -1.0970  0.6262
   72SLPC   H6Y 6339   4.270   1.428   9.415 -0.4125 -0.8792 -1.2467
   72SLPC   C37 6340   4.391   1.274   9.337  0.2475 -0.2119  0.6552
   72SLPC   H7X 6341   4.309   1.203   9.313 -1.2211  1.1375  1.5288
   72SLPC   H7Y 6342   4.472   1.205   9.369  1.6176  1.7525  1.6097
   72SLPC   C38 6343   4.428   1.353   9.212  0.2506 -0.2515 -0.6184
   72SLPC   H8X 6344   4.501   1.431   9.240 -0.3280 -0.5218  1.8221
   72SLPC   H8Y 6345   4.334   1.398   9.172 -0.9605 -2.5215 -0.5403
   72SLPC   C39 6346   4.492   1.262   9.104 -0.1979  0.2660  0.8309
   72SLPC   H9X 6347   4.436   1.171   9.073  0.7436  1.1430 -4.4396
   72SLPC   H9Y 6348   4.579   1.226   9.162  0.7038  0.6134 -0.2691
   72SLPC  C310 6349   4.532   1.337   8.975  0.4632 -0.4391 -0.8130
   72SLPC  H10X 6350   4.606   1.280   8.914  0.0115 -0.7353 -1.0876
   72SLPC  H10Y 6351   4.571   1.433   9.016  1.5648 -1.0763 -0.3288
   72SLPC  C311 6352   4.414   1.362   8.879 -0.0359 -0.8415 -0.4275
   72SLPC  H11X 6353   4.354   1.445   8.921  1.2520  0.7757 -1.6811
   72SLPC  H11Y 6354   4.351   1.270   8.883 -2.6671  0.9051  0.9918
   72SLPC  C312 6355   4.458   1.392   8.730  0.6878 -0.7968 -0.3762
   72SLPC  H12X 6356   4.493   1.296   8.686 -1.0053 -1.4797 -0.2969
   72SLPC  H12Y 6357   4.537   1.469   8.723 -0.9091  0.8009 -2.3576
   72SLPC  C313 6358   4.341   1.429   8.631 -0.6206 -0.3416  0.0194
   72SLPC  H13X 6359   4.385   1.422   8.529 -0.1309 -1.1730  0.2781
   72SLPC  H13Y 6360   4.318   1.538   8.643 -0.3075 -0.1281 -1.1610
   72SLPC  C314 6361   4.221   1.335   8.647 -0.1795 -0.0698 -0.2606
   72SLPC  H14X 6362   4.177   1.352   8.747 -1.1263 -3.8870  0.1242
   72SLPC  H14Y 6363   4.250   1.228   8.637  1.1946  0.0772  1.5580
   72SLPC  C315 6364   4.106   1.362   8.551 -0.2063  0.2507  0.5925
   72SLPC  H15X 6365   4.128   1.347   8.443  1.9224  0.4961  0.9439
   72SLPC  H15Y 6366   4.105   1.472   8.570 -0.5093  0.1814  0.9875
   72SLPC  C316 6367   3.971   1.297   8.599  0.5580  1.1587  0.5173
   72SLPC  H16X 6368   3.952   1.313   8.708 -0.2197  1.0751  0.3954
   72SLPC  H16Y 6369   3.985   1.188   8.588 -1.3727  0.7576  1.4744
   72SLPC  C317 6370   3.852   1.363   8.521 -0.2336 -0.1301 -0.7690
   72SLPC  H17X 6371   3.763   1.317   8.570  1.7446  0.0891  3.4076
   72SLPC  H17Y 6372   3.850   1.348   8.411  1.2770  0.6176 -0.9172
   72SLPC  C318 6373   3.833   1.512   8.542 -0.7021 -0.4736 -0.1850
   72SLPC  H18X 6374   3.754   1.557   8.479 -0.4767  2.5800  1.5060
   72SLPC  H18Y 6375   3.926   1.569   8.518  0.8023 -2.0720  1.4966
   72SLPC  H18Z 6376   3.822   1.538   8.649  2.1067 -1.0296  0.3255
   73SLPC     N 6377   4.040   6.151  11.254  0.1697  0.3797  0.4406
   73SLPC   C13 6378   4.152   6.058  11.240  0.2233  0.5060  0.1963
   73SLPC  H13A 6379   4.110   5.961  11.216 -0.5412  0.0358  3.0857
   73SLPC  H13B 6380   4.223   6.088  11.164  0.5319 -0.5092  0.0600
   73SLPC  H13C 6381   4.205   6.046  11.333  0.3469 -2.5550 -0.1555
   73SLPC   C14 6382   4.086   6.286  11.286 -0.3861 -0.5635  0.1480
   73SLPC  H14A 6383   4.148   6.283  11.374  1.5105 -0.1646 -1.1174
   73SLPC  H14B 6384   4.135   6.332  11.201  0.8153 -1.8220  0.1375
   73SLPC  H14C 6385   4.006   6.357  11.303 -0.6532 -1.0919  1.1198
   73SLPC   C15 6386   3.949   6.103  11.369  0.2358  0.0777  0.1508
   73SLPC  H15A 6387   3.864   6.169  11.379 -0.4045 -0.8131  0.7551
   73SLPC  H15B 6388   3.903   6.006  11.354  0.0062  0.3983 -1.4670
   73SLPC  H15C 6389   4.005   6.104  11.461  1.4768  0.9967 -0.5840
   73SLPC   C12 6390   3.951   6.159  11.131 -1.0421  0.2144  0.1466
   73SLPC  H12A 6391   3.878   6.234  11.156 -0.4085  0.0786  2.7378
   73SLPC  H12B 6392   3.899   6.064  11.123  0.5302 -0.8050  1.2913
   73SLPC   C11 6393   4.018   6.196  10.998 -0.0202 -0.1378  0.0060
   73SLPC  H11A 6394   4.055   6.300  11.010 -0.3161  0.0896 -0.9405
   73SLPC  H11B 6395   3.944   6.194  10.914  0.7925 -0.8058 -0.7185
   73SLPC     P 6396   4.140   5.996  10.884  0.1720 -0.0310  0.0956
   73SLPC   O13 6397   4.280   5.934  10.876  0.6255  0.3712 -0.1238
   73SLPC   O14 6398   4.032   5.909  10.926  0.7124  0.2125 -0.0284
   73SLPC   O12 6399   4.144   6.126  10.973  0.0127 -0.3254 -0.2910
   73SLPC   O11 6400   4.097   6.048  10.744 -0.4598  0.3312  0.2198
   73SLPC    C1 6401   4.155   5.999  10.624  0.4001 -0.5744  0.5376
   73SLPC    HA 6402   4.236   6.069  10.595 -0.2995  1.1151  2.3794
   73SLPC    HB 6403   4.198   5.897  10.629  1.3040 -0.2805 -0.7166
   73SLPC    C2 6404   4.054   5.990  10.499 -0.7675 -0.6714 -0.0387
   73SLPC    HS 6405   4.105   5.945  10.412 -0.2530 -0.8643  0.3623
   73SLPC   O21 6406   3.997   6.117  10.470  0.0246 -0.1655  0.0088
   73SLPC   C21 6407   4.081   6.201  10.410 -0.0438 -0.0832  0.1377
   73SLPC   O22 6408   4.194   6.175  10.371  0.1267  0.0003  0.3328
   73SLPC   C22 6409   4.005   6.326  10.376  0.0653  1.1667  0.0385
   73SLPC   H2R 6410   3.929   6.347  10.455 -0.4763 -0.3393 -0.0548
   73SLPC   H2S 6411   4.072   6.414  10.380 -1.8542  2.7417 -0.6302
   73SLPC    C3 6412   3.948   5.877  10.529 -0.1337 -0.1179  0.7796
   73SLPC    HX 6413   3.874   5.921  10.599  0.2850  1.9343 -0.0091
   73SLPC    HY 6414   4.000   5.793  10.579  1.2663  0.2103 -0.0708
   73SLPC   O31 6415   3.886   5.829  10.404 -0.3710 -0.1547 -0.5244
   73SLPC   C31 6416   3.764   5.781  10.421  0.2082  0.0966  0.5909
   73SLPC   O32 6417   3.692   5.788  10.515 -0.7759 -0.0808 -0.8183
   73SLPC   C32 6418   3.734   5.712  10.290  0.4374 -0.0240  0.4136
   73SLPC   H2X 6419   3.810   5.631  10.281  0.4590  0.0746 -0.3443
   73SLPC   H2Y 6420   3.758   5.781  10.206 -0.1264  1.6388  1.5821
   73SLPC   C23 6421   3.943   6.321  10.236 -0.0146 -0.2304 -0.1891
   73SLPC   H3R 6422   4.028   6.309  10.165  0.7881  1.1554  0.5049
   73SLPC   H3S 6423   3.894   6.421  10.230 -0.7759 -0.3023  3.2766
   73SLPC   C24 6424   3.837   6.224  10.212 -0.8144 -0.2658 -0.4123
   73SLPC   H4R 6425   3.754   6.234  10.285 -2.5618  1.4823 -2.5100
   73SLPC   H4S 6426   3.875   6.120  10.229  0.5202  0.2207 -0.2655
   73SLPC   C25 6427   3.789   6.238  10.075 -0.4444  0.0983  0.0339
   73SLPC   H5R 6428   3.874   6.251  10.005 -2.3305 -0.7541 -2.6071
   73SLPC   H5S 6429   3.738   6.336  10.069  2.4117  1.7072  0.1532
   73SLPC   C26 6430   3.694   6.120  10.036 -0.5513 -0.2016 -0.0376
   73SLPC   H6R 6431   3.606   6.121  10.105 -0.2653  1.8276  0.3598
   73SLPC   H6S 6432   3.749   6.025  10.046  1.7125  0.8740 -1.4773
   73SLPC   C27 6433   3.639   6.136   9.887 -0.6657 -0.4091 -0.0536
   73SLPC   H7R 6434   3.634   6.247   9.878 -1.4275 -0.3848  0.4962
   73SLPC   H7S 6435   3.544   6.081   9.869 -0.2415 -0.5712 -1.9806
   73SLPC   C28 6436   3.741   6.079   9.786 -0.3007 -0.3659 -0.4608
   73SLPC   H8R 6437   3.784   5.979   9.810  1.9678  0.6245 -0.1506
   73SLPC   H8S 6438   3.831   6.144   9.779 -0.4423 -0.0330  0.5067
   73SLPC   C29 6439   3.673   6.065   9.652 -0.0052 -0.4493 -0.2608
   73SLPC   H9R 6440   3.586   5.998   9.656  0.3852 -0.9369  0.1691
   73SLPC  C210 6441   3.706   6.123   9.539 -1.1749  0.0615  0.3452
   73SLPC  H10R 6442   3.653   6.101   9.446 -1.7333 -1.7678  1.0389
   73SLPC  C211 6443   3.834   6.204   9.520  0.4578  0.1743  0.0455
   73SLPC  H11R 6444   3.907   6.142   9.464 -0.1227 -1.4081  0.9714
   73SLPC  H11S 6445   3.888   6.226   9.614  2.1422  2.6815 -1.3929
   73SLPC  C212 6446   3.804   6.336   9.458 -0.3463 -0.4965 -0.4993
   73SLPC  H12R 6447   3.801   6.419   9.530 -1.8740 -0.8441 -0.1248
   73SLPC  C213 6448   3.766   6.365   9.330 -0.2321 -0.5841  0.7778
   73SLPC  H13R 6449   3.746   6.468   9.299  0.5145 -0.3686  0.9947
   73SLPC  C214 6450   3.766   6.263   9.217  0.3509 -0.1890  0.4483
   73SLPC  H14R 6451   3.791   6.162   9.256  1.2731 -1.2402 -2.5261
   73SLPC  H14S 6452   3.850   6.283   9.147 -0.5803  1.0584 -0.3642
   73SLPC  C215 6453   3.629   6.251   9.148  0.2397  0.2597 -0.2107
   73SLPC  H15R 6454   3.585   6.353   9.148 -1.9574 -0.6164 -1.5066
   73SLPC  H15S 6455   3.560   6.193   9.213 -0.1108  0.8091 -0.0797
   73SLPC  C216 6456   3.625   6.216   9.002 -0.2914 -0.2391 -0.1394
   73SLPC  H16R 6457   3.679   6.296   8.946 -0.0418 -1.0583 -1.0975
   73SLPC  H16S 6458   3.519   6.208   8.970 -0.4530  0.0198  0.3149
   73SLPC  C217 6459   3.710   6.089   8.960  0.3938 -0.4419 -0.0356
   73SLPC  H17R 6460   3.658   5.997   8.995 -3.6701  1.3094 -0.8210
   73SLPC  H17S 6461   3.812   6.087   9.004 -0.3500 -3.4270  1.7763
   73SLPC  C218 6462   3.723   6.076   8.803 -0.6803 -0.6417 -0.0777
   73SLPC  H18R 6463   3.784   6.158   8.760 -0.2158  0.1705  2.0278
   73SLPC  H18S 6464   3.619   6.089   8.765 -0.6727 -1.2126 -0.3074
   73SLPC  H18T 6465   3.764   5.979   8.767  0.6139  0.5531 -2.0191
   73SLPC   C33 6466   3.596   5.649  10.263  0.0811  0.1077 -0.1933
   73SLPC   H3X 6467   3.533   5.723  10.208 -0.1342  0.6285  0.7406
   73SLPC   H3Y 6468   3.539   5.638  10.357 -0.1499  0.9568 -0.2264
   73SLPC   C34 6469   3.600   5.509  10.198  0.1176 -0.1977  0.0486
   73SLPC   H4X 6470   3.494   5.476  10.186 -0.4848  0.6617  2.4575
   73SLPC   H4Y 6471   3.644   5.435  10.267 -0.9686 -1.2549 -0.3600
   73SLPC   C35 6472   3.690   5.495  10.070  0.0806  0.2723  0.2047
   73SLPC   H5X 6473   3.676   5.391  10.034 -0.3229  0.9074 -1.6228
   73SLPC   H5Y 6474   3.797   5.519  10.083  0.8684 -2.2150 -0.9221
   73SLPC   C36 6475   3.635   5.570   9.953  0.1296 -0.1031  0.3217
   73SLPC   H6X 6476   3.615   5.677   9.977  0.6134  0.1389 -0.3364
   73SLPC   H6Y 6477   3.531   5.537   9.931  0.8393 -1.6253 -0.9167
   73SLPC   C37 6478   3.712   5.570   9.818 -0.4417  0.4856  0.0486
   73SLPC   H7X 6479   3.751   5.469   9.792 -1.0812 -0.3395  2.0490
   73SLPC   H7Y 6480   3.803   5.634   9.825 -0.7262  0.8712  0.2428
   73SLPC   C38 6481   3.629   5.624   9.702  0.5093  0.6021  0.4991
   73SLPC   H8X 6482   3.567   5.710   9.734 -0.9869 -0.0140 -0.6197
   73SLPC   H8Y 6483   3.542   5.557   9.686 -1.1068  2.5803  0.6600
   73SLPC   C39 6484   3.700   5.650   9.570  0.7096 -0.2193  0.5490
   73SLPC   H9X 6485   3.733   5.557   9.519  0.0426 -1.9380  3.0638
   73SLPC   H9Y 6486   3.792   5.711   9.583  0.6724 -0.0266 -0.0524
   73SLPC  C310 6487   3.607   5.715   9.470 -0.6689  0.2939  0.3274
   73SLPC  H10X 6488   3.569   5.807   9.519 -0.9695 -0.3365  1.3028
   73SLPC  H10Y 6489   3.521   5.651   9.443  0.2555 -0.4869 -0.8371
   73SLPC  C311 6490   3.693   5.767   9.347 -0.4148 -0.2149  0.0983
   73SLPC  H11X 6491   3.739   5.677   9.300  0.4426  0.0515  0.4036
   73SLPC  H11Y 6492   3.781   5.820   9.389  0.2243 -0.0897 -1.3577
   73SLPC  C312 6493   3.622   5.847   9.240  0.1587 -0.4599 -0.0455
   73SLPC  H12X 6494   3.693   5.928   9.213 -0.8918 -0.0197 -1.6619
   73SLPC  H12Y 6495   3.527   5.884   9.285 -0.9091 -1.8811 -1.0274
   73SLPC  C313 6496   3.600   5.767   9.111 -0.1300  0.0194 -0.4441
   73SLPC  H13X 6497   3.698   5.740   9.067 -0.2612  0.6405 -1.1302
   73SLPC  H13Y 6498   3.544   5.827   9.036 -0.2345 -0.8620 -1.0845
   73SLPC  C314 6499   3.508   5.645   9.122  0.6052  0.2282 -0.2189
   73SLPC  H14X 6500   3.407   5.677   9.158 -0.2767  0.1882 -2.4813
   73SLPC  H14Y 6501   3.538   5.573   9.201 -1.2771 -0.2672  0.1105
   73SLPC  C315 6502   3.487   5.580   8.984  0.6906 -0.4464 -0.5547
   73SLPC  H15X 6503   3.586   5.555   8.940  0.9321  1.0927 -0.9256
   73SLPC  H15Y 6504   3.425   5.645   8.919 -1.2739 -0.9800  0.6916
   73SLPC  C316 6505   3.392   5.453   8.977 -0.1767  0.7473 -0.1327
   73SLPC  H16X 6506   3.305   5.486   9.039  0.5746  1.1368  0.7310
   73SLPC  H16Y 6507   3.450   5.373   9.027 -0.1712  0.8239 -0.0166
   73SLPC  C317 6508   3.344   5.403   8.836  0.2786 -0.4337  0.1757
   73SLPC  H17X 6509   3.299   5.483   8.774  0.5436 -2.4341 -2.8381
   73SLPC  H17Y 6510   3.261   5.331   8.858 -0.5180  0.4116  0.0201
   73SLPC  C318 6511   3.456   5.338   8.748  0.3803  0.9565 -0.1326
   73SLPC  H18X 6512   3.493   5.245   8.796 -0.9983  0.9515  0.9918
   73SLPC  H18Y 6513   3.542   5.407   8.736  0.8486  0.4745  0.3989
   73SLPC  H18Z 6514   3.418   5.317   8.646 -2.0580 -2.2555  1.2424
   74SLPC     N 6515   4.994   1.462  10.710  0.1864  0.4198 -0.0017
   74SLPC   C13 6516   5.093   1.562  10.763 -1.1601  0.2190  0.2836
   74SLPC  H13A 6517   5.055   1.661  10.743 -0.6833  0.2824 -0.3547
   74SLPC  H13B 6518   5.112   1.542  10.867 -0.4949  1.8548  0.5002
   74SLPC  H13C 6519   5.189   1.554  10.713 -1.2310 -0.5174  0.2400
   74SLPC   C14 6520   4.967   1.490  10.566  0.2113  0.0840  0.1563
   74SLPC  H14A 6521   4.936   1.592  10.552 -0.2262 -0.4079 -3.3108
   74SLPC  H14B 6522   5.061   1.481  10.513  0.9483  2.5606  0.8951
   74SLPC  H14C 6523   4.888   1.424  10.532  1.1514 -0.0161 -2.0323
   74SLPC   C15 6524   4.863   1.471  10.785  0.0004 -0.0314  0.4070
   74SLPC  H15A 6525   4.862   1.447  10.890 -2.0714 -1.1328  0.1701
   74SLPC  H15B 6526   4.825   1.570  10.761 -1.7430 -1.1571 -1.9199
   74SLPC  H15C 6527   4.787   1.410  10.739  0.6118  0.3187 -1.1531
   74SLPC   C12 6528   5.062   1.327  10.723 -0.8221 -0.2133  0.2256
   74SLPC  H12A 6529   4.990   1.248  10.708 -0.1066 -1.1092  1.3495
   74SLPC  H12B 6530   5.094   1.315  10.826  1.0392 -0.7199 -0.3762
   74SLPC   C11 6531   5.192   1.299  10.639  0.0705  0.3655  0.2123
   74SLPC  H11A 6532   5.236   1.203  10.672 -0.0573  0.1179 -0.3335
   74SLPC  H11B 6533   5.265   1.380  10.664  0.3600 -0.0306  0.6797
   74SLPC     P 6534   5.144   1.177  10.423  0.3527 -0.3595 -0.3791
   74SLPC   O13 6535   5.266   1.098  10.412 -0.1640  1.4324 -0.0426
   74SLPC   O14 6536   5.032   1.115  10.494  0.8463 -0.2351 -0.2079
   74SLPC   O12 6537   5.178   1.309  10.499  0.2287  0.0524  0.7464
   74SLPC   O11 6538   5.094   1.226  10.285 -0.0808  0.0059 -0.3774
   74SLPC    C1 6539   5.161   1.341  10.226 -0.0571  0.4878  0.2156
   74SLPC    HA 6540   5.092   1.428  10.218  0.7630  1.0661 -0.8828
   74SLPC    HB 6541   5.250   1.373  10.285 -1.1287  1.2957  1.4516
   74SLPC    C2 6542   5.201   1.299  10.085 -0.0860  0.0394  0.2069
   74SLPC    HS 6543   5.234   1.392  10.034  2.0253  0.0385  1.4544
   74SLPC   O21 6544   5.097   1.228  10.013  0.9467 -1.0393 -0.0874
   74SLPC   C21 6545   4.995   1.302   9.979 -0.6567  0.0378 -0.5168
   74SLPC   O22 6546   4.992   1.424   9.984 -0.3474 -0.4500 -0.4506
   74SLPC   C22 6547   4.877   1.225   9.928 -0.3053 -0.2129  0.6636
   74SLPC   H2R 6548   4.912   1.146   9.858  0.8903  1.4103 -0.6413
   74SLPC   H2S 6549   4.828   1.171  10.012 -1.5200  0.1290  0.2063
   74SLPC    C3 6550   5.324   1.198  10.092  0.2973 -0.8222 -0.2181
   74SLPC    HX 6551   5.298   1.106  10.149  0.3309  0.7244  2.4383
   74SLPC    HY 6552   5.401   1.239  10.160  0.2963  0.2423 -0.8445
   74SLPC   O31 6553   5.390   1.165   9.965 -0.0050 -0.2381  0.4067
   74SLPC   C31 6554   5.433   1.267   9.901 -0.0647 -0.1316  0.3633
   74SLPC   O32 6555   5.444   1.389   9.933  0.3480  0.6337 -0.6304
   74SLPC   C32 6556   5.483   1.211   9.771 -0.1354 -0.2325  0.3154
   74SLPC   H2X 6557   5.442   1.109   9.759  1.5535 -0.7956 -0.9559
   74SLPC   H2Y 6558   5.593   1.203   9.763  0.2245  1.3169  2.6847
   74SLPC   C23 6559   4.765   1.314   9.859 -0.3681 -0.2787 -0.2562
   74SLPC   H3R 6560   4.749   1.401   9.927  3.5036 -1.3002  2.3034
   74SLPC   H3S 6561   4.670   1.258   9.855 -0.6517  0.1974 -0.2796
   74SLPC   C24 6562   4.807   1.355   9.720  0.1866 -0.2706  0.4187
   74SLPC   H4R 6563   4.917   1.357   9.711  0.2554  1.5824  1.3454
   74SLPC   H4S 6564   4.763   1.455   9.700 -0.5095  0.1484  3.4509
   74SLPC   C25 6565   4.744   1.250   9.624 -0.7039  0.3379  0.4137
   74SLPC   H5R 6566   4.637   1.234   9.647 -1.2364 -2.5053 -3.1514
   74SLPC   H5S 6567   4.799   1.153   9.625 -0.5962  0.2411 -3.0047
   74SLPC   C26 6568   4.760   1.292   9.476 -0.3579 -0.6282  0.1531
   74SLPC   H6R 6569   4.719   1.394   9.462 -0.4398 -0.7064 -0.1676
   74SLPC   H6S 6570   4.706   1.222   9.409 -0.0110  0.7985 -1.6782
   74SLPC   C27 6571   4.909   1.297   9.442  0.0256  1.1395 -0.0586
   74SLPC   H7R 6572   4.945   1.202   9.488  1.7507  1.8328  0.0876
   74SLPC   H7S 6573   4.968   1.374   9.496 -0.0417  2.1432 -1.3654
   74SLPC   C28 6574   4.947   1.300   9.291 -0.3614 -0.0983  0.0267
   74SLPC   H8R 6575   4.916   1.214   9.228  0.1848  0.5566 -1.1776
   74SLPC   H8S 6576   5.058   1.304   9.289 -0.2155 -2.6147 -0.4581
   74SLPC   C29 6577   4.892   1.432   9.244 -0.1543 -0.8506 -0.3421
   74SLPC   H9R 6578   4.857   1.500   9.323 -1.4162 -1.5181 -0.3046
   74SLPC  C210 6579   4.902   1.485   9.121  0.9863 -0.6298  0.1283
   74SLPC  H10R 6580   4.846   1.577   9.097 -0.1862 -1.5046 -0.6396
   74SLPC  C211 6581   4.982   1.416   9.010 -0.6732 -0.1822 -0.0931
   74SLPC  H11R 6582   4.930   1.319   8.996 -0.1259 -0.3077 -1.4306
   74SLPC  H11S 6583   5.085   1.388   9.040 -1.3397 -0.4963  2.0262
   74SLPC  C212 6584   4.976   1.491   8.877  0.0452 -0.0432 -0.8241
   74SLPC  H12R 6585   5.005   1.597   8.881 -1.2478  0.3467 -1.3496
   74SLPC  C213 6586   4.931   1.439   8.757  1.4338  0.3225  0.4229
   74SLPC  H13R 6587   4.937   1.494   8.662  0.5284  0.0350  0.1880
   74SLPC  C214 6588   4.869   1.301   8.732 -0.1487  0.1591 -0.3055
   74SLPC  H14R 6589   4.759   1.291   8.717 -0.1055 -0.6012 -0.1788
   74SLPC  H14S 6590   4.877   1.238   8.823 -1.3093  0.5468  0.0783
   74SLPC  C215 6591   4.936   1.225   8.617 -0.4292 -0.0875 -0.5536
   74SLPC  H15R 6592   4.901   1.119   8.625  0.1592 -0.2546 -0.0979
   74SLPC  H15S 6593   5.046   1.223   8.634 -0.6298 -1.9586  0.9246
   74SLPC  C216 6594   4.900   1.270   8.475  0.1389  0.9699 -0.7911
   74SLPC  H16R 6595   4.917   1.378   8.458 -2.3327  1.4646 -0.4594
   74SLPC  H16S 6596   4.790   1.253   8.470  0.5795 -2.6015 -1.3537
   74SLPC  C217 6597   4.967   1.200   8.361  0.1553  0.1585 -0.2483
   74SLPC  H17R 6598   5.069   1.170   8.392 -0.4487  0.4918  2.3157
   74SLPC  H17S 6599   4.966   1.271   8.275 -0.4751  0.2001 -0.2120
   74SLPC  C218 6600   4.904   1.063   8.319 -0.6021 -0.2086  0.0146
   74SLPC  H18R 6601   4.907   0.981   8.393  2.1970  0.0462  0.2826
   74SLPC  H18S 6602   4.962   1.027   8.231  0.5710 -1.2381  1.1785
   74SLPC  H18T 6603   4.796   1.076   8.297 -0.5512 -0.6907 -0.5317
   74SLPC   C33 6604   5.423   1.302   9.661 -0.8164 -0.3468 -0.1955
   74SLPC   H3X 6605   5.451   1.405   9.692  1.8011 -1.1600  0.3836
   74SLPC   H3Y 6606   5.312   1.300   9.666 -0.9723 -0.2672 -2.5080
   74SLPC   C34 6607   5.477   1.252   9.526 -0.3871  0.1948 -0.1032
   74SLPC   H4X 6608   5.476   1.141   9.533  0.2590  0.2012  0.2445
   74SLPC   H4Y 6609   5.583   1.284   9.517 -0.2276  0.3654  1.8945
   74SLPC   C35 6610   5.389   1.301   9.409 -0.1301  0.4758 -0.3614
   74SLPC   H5X 6611   5.359   1.401   9.447 -0.6108 -0.5514  2.1826
   74SLPC   H5Y 6612   5.298   1.240   9.390 -0.5416  0.0409  2.4868
   74SLPC   C36 6613   5.475   1.333   9.280 -0.4240  0.6515  0.0099
   74SLPC   H6X 6614   5.538   1.247   9.248 -0.6569 -0.6087  2.7256
   74SLPC   H6Y 6615   5.551   1.410   9.303  3.1913 -2.3561 -0.8681
   74SLPC   C37 6616   5.390   1.377   9.157  0.2878 -0.3098  0.4223
   74SLPC   H7X 6617   5.302   1.430   9.198  0.3761  0.6120 -0.5338
   74SLPC   H7Y 6618   5.361   1.279   9.113 -2.0930 -0.4664  2.1454
   74SLPC   C38 6619   5.465   1.472   9.053  0.0230  0.6036  0.0287
   74SLPC   H8X 6620   5.554   1.412   9.023  0.2307 -0.7489  2.9841
   74SLPC   H8Y 6621   5.498   1.549   9.126 -1.0961  0.6780  0.4667
   74SLPC   C39 6622   5.369   1.536   8.953 -0.5520  0.2145  0.2504
   74SLPC   H9X 6623   5.407   1.632   8.913 -1.6031 -0.2966 -2.1571
   74SLPC   H9Y 6624   5.264   1.545   8.987 -0.3072 -1.1012  1.4423
   74SLPC  C310 6625   5.366   1.439   8.829  0.4385 -0.2168 -0.4561
   74SLPC  H10X 6626   5.308   1.347   8.855  2.2823 -1.4156 -0.3837
   74SLPC  H10Y 6627   5.473   1.416   8.810  0.5578  0.2129 -0.3049
   74SLPC  C311 6628   5.318   1.516   8.709  0.2401 -0.4665  0.2240
   74SLPC  H11X 6629   5.386   1.600   8.681  1.1830 -1.5132 -0.7451
   74SLPC  H11Y 6630   5.217   1.559   8.730  0.6892  0.0949  1.3270
   74SLPC  C312 6631   5.296   1.437   8.584 -0.5140  0.8464 -0.2512
   74SLPC  H12X 6632   5.238   1.343   8.601 -0.2398  0.6143 -0.5769
   74SLPC  H12Y 6633   5.398   1.410   8.551  0.8022  2.5258  2.1656
   74SLPC  C313 6634   5.225   1.497   8.459  0.3232  0.0909 -0.2030
   74SLPC  H13X 6635   5.115   1.504   8.473 -0.2156  1.4654 -3.9617
   74SLPC  H13Y 6636   5.244   1.428   8.375 -0.0546  0.3083 -0.4692
   74SLPC  C314 6637   5.271   1.644   8.411 -0.0795  0.0622  0.2345
   74SLPC  H14X 6638   5.277   1.702   8.506  1.6976 -0.6002  0.5600
   74SLPC  H14Y 6639   5.191   1.683   8.345 -1.6544 -1.2582  1.2791
   74SLPC  C315 6640   5.413   1.663   8.343 -0.4108  0.0677 -0.1684
   74SLPC  H15X 6641   5.417   1.608   8.247 -0.7583 -3.1858  1.5301
   74SLPC  H15Y 6642   5.485   1.609   8.408 -0.7980  1.4587  1.5306
   74SLPC  C316 6643   5.460   1.810   8.321  0.0860  0.3111 -0.0988
   74SLPC  H16X 6644   5.468   1.846   8.426  2.1724  1.1287 -0.5042
   74SLPC  H16Y 6645   5.378   1.861   8.265 -0.4800 -2.6028 -2.0972
   74SLPC  C317 6646   5.587   1.837   8.244  0.0270  0.1643  0.0530
   74SLPC  H17X 6647   5.581   1.766   8.159 -1.9855 -0.7859  0.9082
   74SLPC  H17Y 6648   5.681   1.824   8.302  0.7133 -2.1527 -1.4640
   74SLPC  C318 6649   5.587   1.976   8.187  0.7200 -0.8278 -0.0087
   74SLPC  H18X 6650   5.511   1.997   8.109  0.0477  2.9775  1.4799
   74SLPC  H18Y 6651   5.685   2.005   8.143  0.5863  1.1255  0.8653
   74SLPC  H18Z 6652   5.565   2.050   8.267  0.6681 -0.1283 -0.6600
   75SLPC     N 6653   1.625   3.456   6.284 -0.1607  0.0426 -0.4792
   75SLPC   C13 6654   1.599   3.584   6.220 -0.3679 -0.3660  0.2409
   75SLPC  H13A 6655   1.572   3.659   6.293  2.4977  1.0321 -0.0095
   75SLPC  H13B 6656   1.686   3.633   6.178 -0.3990 -0.4720  0.0504
   75SLPC  H13C 6657   1.525   3.577   6.142 -1.3328  2.1514  0.8516
   75SLPC   C14 6658   1.694   3.358   6.189  1.0864 -0.1690 -0.1296
   75SLPC  H14A 6659   1.770   3.418   6.141  1.0906 -1.2650 -1.5561
   75SLPC  H14B 6660   1.749   3.276   6.233  0.4511 -0.2576  0.5205
   75SLPC  H14C 6661   1.631   3.319   6.110  2.3300 -2.3638 -0.1119
   75SLPC   C15 6662   1.486   3.413   6.334  0.0975  0.5563 -0.6467
   75SLPC  H15A 6663   1.490   3.324   6.395 -1.6870 -0.0798 -1.4070
   75SLPC  H15B 6664   1.441   3.480   6.406 -1.2436 -1.8035  0.8455
   75SLPC  H15C 6665   1.411   3.395   6.259 -0.4642 -4.0108  0.7330
   75SLPC   C12 6666   1.712   3.476   6.403 -0.1942 -0.0971  0.0441
   75SLPC  H12A 6667   1.808   3.513   6.369 -0.3590  1.0487  0.7722
   75SLPC  H12B 6668   1.740   3.380   6.443  0.8492 -2.0904 -4.7609
   75SLPC   C11 6669   1.654   3.567   6.523  0.4117  0.1356 -0.0615
   75SLPC  H11A 6670   1.712   3.547   6.616 -1.0325  0.6904  0.9911
   75SLPC  H11B 6671   1.553   3.533   6.555  0.3927 -0.2601 -0.5440
   75SLPC     P 6672   1.755   3.807   6.534  0.0022  0.4100  0.4741
   75SLPC   O13 6673   1.883   3.740   6.555 -0.8949 -0.1973 -0.0404
   75SLPC   O14 6674   1.753   3.914   6.434 -0.3204  0.1348 -0.1225
   75SLPC   O12 6675   1.647   3.702   6.492 -0.1312 -0.1451  0.0454
   75SLPC   O11 6676   1.697   3.871   6.666  0.1281  0.4821 -0.2769
   75SLPC    C1 6677   1.553   3.859   6.689  0.5264 -0.2234 -0.1484
   75SLPC    HA 6678   1.495   3.888   6.600 -1.1095 -0.3708  0.8354
   75SLPC    HB 6679   1.518   3.760   6.725  0.4921 -0.1988 -0.1152
   75SLPC    C2 6680   1.504   3.970   6.778 -1.0317  0.1549  0.0166
   75SLPC    HS 6681   1.548   4.061   6.732  0.8274 -0.0541  1.2799
   75SLPC   O21 6682   1.542   3.943   6.916  0.1575 -0.1390  0.8582
   75SLPC   C21 6683   1.574   4.050   6.989  0.0441  0.4951 -0.1441
   75SLPC   O22 6684   1.558   4.167   6.959  0.5529 -0.8542 -0.2057
   75SLPC   C22 6685   1.640   4.003   7.123  0.2663  0.2695 -0.3633
   75SLPC   H2R 6686   1.577   3.925   7.172  2.2237 -0.5053  1.0566
   75SLPC   H2S 6687   1.729   3.944   7.092 -0.0974 -2.2954  2.9231
   75SLPC    C3 6688   1.350   3.976   6.769 -0.7450 -0.5807 -0.0503
   75SLPC    HX 6689   1.344   3.984   6.659  0.0426 -1.8413 -0.2009
   75SLPC    HY 6690   1.326   4.073   6.818  2.4538  0.2355  0.0829
   75SLPC   O31 6691   1.276   3.859   6.813 -0.3612  0.2853  0.1942
   75SLPC   C31 6692   1.266   3.848   6.943 -0.0090  0.1544  0.1267
   75SLPC   O32 6693   1.289   3.931   7.030 -0.3797 -0.4189  0.0531
   75SLPC   C32 6694   1.201   3.714   6.972 -0.3923 -0.2859 -0.7568
   75SLPC   H2X 6695   1.286   3.644   6.959  1.1620  0.9180  2.0569
   75SLPC   H2Y 6696   1.117   3.692   6.902 -2.4524 -1.5350  1.9305
   75SLPC   C23 6697   1.666   4.120   7.224 -0.0935  0.5756  0.4688
   75SLPC   H3R 6698   1.705   4.203   7.162  1.9779 -1.0319 -0.5106
   75SLPC   H3S 6699   1.749   4.088   7.291  0.6392  1.2229 -0.1023
   75SLPC   C24 6700   1.537   4.160   7.302 -0.3326  0.3103  0.2327
   75SLPC   H4R 6701   1.456   4.193   7.234 -0.0858  1.9493  0.6829
   75SLPC   H4S 6702   1.552   4.242   7.375  1.5436  0.2274 -0.0020
   75SLPC   C25 6703   1.483   4.042   7.382 -0.3949  0.7026 -0.0343
   75SLPC   H5R 6704   1.571   3.999   7.435  2.5623  2.4539 -3.1311
   75SLPC   H5S 6705   1.445   3.965   7.312  0.4792  2.5854 -2.7009
   75SLPC   C26 6706   1.372   4.082   7.473  0.7301 -0.1667  0.6059
   75SLPC   H6R 6707   1.278   4.110   7.421  0.4074  0.3525  1.4588
   75SLPC   H6S 6708   1.404   4.177   7.521 -0.1411  0.8042 -0.6799
   75SLPC   C27 6709   1.341   3.974   7.570  0.7514  0.3486 -0.2144
   75SLPC   H7R 6710   1.432   3.927   7.613 -0.3662 -0.7770  1.0562
   75SLPC   H7S 6711   1.274   3.897   7.527 -1.4811  0.8060  2.1492
   75SLPC   C28 6712   1.268   4.035   7.694  0.5500 -0.2266 -0.4789
   75SLPC   H8R 6713   1.184   4.101   7.666  1.9025  1.3520 -0.9332
   75SLPC   H8S 6714   1.345   4.089   7.753 -0.7699 -0.2207  1.3463
   75SLPC   C29 6715   1.224   3.913   7.770  0.8124 -0.5740 -0.4030
   75SLPC   H9R 6716   1.135   3.869   7.720  0.4626 -1.1967  0.7295
   75SLPC  C210 6717   1.292   3.860   7.875  0.7839  1.7915 -0.5311
   75SLPC  H10R 6718   1.255   3.766   7.920 -1.5858  2.4121 -1.0496
   75SLPC  C211 6719   1.414   3.910   7.953  0.6424 -0.7166 -0.0082
   75SLPC  H11R 6720   1.492   3.958   7.890  1.3215 -1.1497  0.4791
   75SLPC  H11S 6721   1.479   3.831   7.998  2.2464  0.8892  0.6382
   75SLPC  C212 6722   1.372   3.999   8.064  0.3841 -0.2615 -0.7905
   75SLPC  H12R 6723   1.358   4.101   8.024  2.4995 -0.3033 -1.7442
   75SLPC  C213 6724   1.341   3.971   8.193 -0.2663  0.5051  0.5299
   75SLPC  H13R 6725   1.304   4.054   8.256  0.8775 -0.6060  2.7929
   75SLPC  C214 6726   1.357   3.834   8.257  0.5627 -0.0185 -0.1149
   75SLPC  H14R 6727   1.417   3.844   8.350  1.4898  1.3537 -0.8136
   75SLPC  H14S 6728   1.423   3.774   8.190 -0.0182 -0.2196 -0.5094
   75SLPC  C215 6729   1.210   3.771   8.270  0.4110 -0.3613 -0.4007
   75SLPC  H15R 6730   1.169   3.751   8.168  1.5751 -1.2362 -0.7084
   75SLPC  H15S 6731   1.148   3.843   8.328  1.1094  0.2018 -0.3363
   75SLPC  C216 6732   1.215   3.638   8.333 -0.6931  0.4075 -0.0122
   75SLPC  H16R 6733   1.280   3.651   8.422  1.1173 -0.5157 -1.1442
   75SLPC  H16S 6734   1.266   3.582   8.251 -0.2765 -0.9539  1.1263
   75SLPC  C217 6735   1.076   3.586   8.359  0.3229  0.7927 -0.2296
   75SLPC  H17R 6736   1.027   3.603   8.260  1.3236  1.0686 -0.6866
   75SLPC  H17S 6737   1.022   3.650   8.433 -0.1963  0.7546 -0.5690
   75SLPC  C218 6738   1.058   3.434   8.398  0.5592  0.3970  0.2268
   75SLPC  H18R 6739   1.124   3.369   8.337 -0.5255 -0.1314 -0.3989
   75SLPC  H18S 6740   0.954   3.403   8.378  0.5232  0.4335  0.3634
   75SLPC  H18T 6741   1.077   3.416   8.506 -1.7132 -0.5086  0.5119
   75SLPC   C33 6742   1.158   3.696   7.115 -0.2116  0.2538 -0.5143
   75SLPC   H3X 6743   1.233   3.653   7.184  0.6562  0.6800 -1.1803
   75SLPC   H3Y 6744   1.131   3.796   7.156 -4.9835 -0.4512 -1.3059
   75SLPC   C34 6745   1.023   3.611   7.122  0.0339 -0.3346  0.0593
   75SLPC   H4X 6746   1.046   3.520   7.063 -1.0784 -0.2181 -0.5844
   75SLPC   H4Y 6747   0.936   3.669   7.083 -1.3766 -0.4996  2.7150
   75SLPC   C35 6748   0.974   3.564   7.262 -0.4121 -0.2635  0.0360
   75SLPC   H5X 6749   1.057   3.508   7.310 -0.3930  0.7428  1.2260
   75SLPC   H5Y 6750   0.893   3.488   7.254 -1.1061  0.3930  0.5856
   75SLPC   C36 6751   0.931   3.674   7.363  0.7310  0.1349  0.1353
   75SLPC   H6X 6752   0.841   3.722   7.319 -0.5418 -2.6403 -0.5233
   75SLPC   H6Y 6753   1.003   3.758   7.355 -2.0294  2.5154 -2.7030
   75SLPC   C37 6754   0.907   3.633   7.509  0.4542  0.3555 -0.0862
   75SLPC   H7X 6755   1.004   3.610   7.558 -1.1405 -2.9444  1.9349
   75SLPC   H7Y 6756   0.854   3.535   7.517  0.1974  0.5153  0.1944
   75SLPC   C38 6757   0.830   3.741   7.590 -0.5933 -0.4337 -0.7388
   75SLPC   H8X 6758   0.747   3.798   7.542 -1.6027 -1.0231  0.2528
   75SLPC   H8Y 6759   0.908   3.814   7.621 -1.6024  0.6982 -0.7991
   75SLPC   C39 6760   0.764   3.689   7.721 -0.0613 -0.1656 -0.2654
   75SLPC   H9X 6761   0.687   3.612   7.697 -0.2707  0.2712 -1.0298
   75SLPC   H9Y 6762   0.714   3.780   7.760 -1.0105  0.6976 -3.2381
   75SLPC  C310 6763   0.864   3.646   7.826 -0.2288 -0.4109  0.4879
   75SLPC  H10X 6764   0.873   3.722   7.907 -0.7002  0.3330 -0.1486
   75SLPC  H10Y 6765   0.963   3.647   7.777 -1.0865  1.8084 -1.3967
   75SLPC  C311 6766   0.840   3.504   7.897 -0.1183 -1.3793  0.1211
   75SLPC  H11X 6767   0.854   3.427   7.818  1.5233  0.4174 -1.4690
   75SLPC  H11Y 6768   0.736   3.505   7.934 -0.4845 -1.5001 -0.8794
   75SLPC  C312 6769   0.943   3.469   8.010  0.0479  0.0196  0.3500
   75SLPC  H12X 6770   0.904   3.540   8.086  0.9683  0.7329  0.1675
   75SLPC  H12Y 6771   1.044   3.506   7.981 -0.6087  0.6158 -1.2844
   75SLPC  C313 6772   0.938   3.330   8.076  0.0070  0.5054  0.5061
   75SLPC  H13X 6773   1.020   3.333   8.151  0.9376  3.2415 -0.4855
   75SLPC  H13Y 6774   0.970   3.265   7.991 -0.8816  1.6612 -0.7622
   75SLPC  C314 6775   0.806   3.303   8.137  0.1843 -1.1835 -0.2062
   75SLPC  H14X 6776   0.724   3.312   8.063  0.2147 -0.8460 -0.2006
   75SLPC  H14Y 6777   0.789   3.387   8.208 -0.6151 -2.5523  1.2889
   75SLPC  C315 6778   0.802   3.169   8.219  0.0629  0.5938 -0.5282
   75SLPC  H15X 6779   0.894   3.149   8.279  1.1000  1.5037 -1.7533
   75SLPC  H15Y 6780   0.799   3.095   8.137  1.3356 -1.3087  1.0291
   75SLPC  C316 6781   0.677   3.150   8.312  0.4556  0.3178  0.3059
   75SLPC  H16X 6782   0.684   3.049   8.356  0.7952  0.9553  1.7935
   75SLPC  H16Y 6783   0.587   3.163   8.247  0.1520 -0.5240  0.5531
   75SLPC  C317 6784   0.679   3.249   8.429 -0.3252 -0.3643  0.0538
   75SLPC  H17X 6785   0.691   3.355   8.399 -1.3536 -0.3819 -0.4484
   75SLPC  H17Y 6786   0.770   3.219   8.487 -0.5833 -0.7150  0.2812
   75SLPC  C318 6787   0.555   3.246   8.514 -0.7228 -0.6999  0.5183
   75SLPC  H18X 6788   0.468   3.257   8.446  0.0411 -0.1955 -0.3904
   75SLPC  H18Y 6789   0.564   3.327   8.589  5.3043 -1.7536  1.4418
   75SLPC  H18Z 6790   0.538   3.145   8.558 -0.8095 -0.1757  1.7177
   76SLPC     N 6791   4.652   2.733   6.342 -0.3560 -0.4037 -0.1972
   76SLPC   C13 6792   4.797   2.679   6.344  0.3067 -0.1886  0.7880
   76SLPC  H13A 6793   4.841   2.724   6.432 -2.1506  0.4514  1.7748
   76SLPC  H13B 6794   4.801   2.571   6.349  1.5247 -0.1567  0.8089
   76SLPC  H13C 6795   4.858   2.711   6.261  2.7077 -2.2188  1.6166
   76SLPC   C14 6796   4.578   2.675   6.451  0.5514 -0.8107 -0.4543
   76SLPC  H14A 6797   4.592   2.568   6.461  1.4916 -0.6518 -0.0679
   76SLPC  H14B 6798   4.609   2.715   6.546 -0.9364 -0.3170 -0.1413
   76SLPC  H14C 6799   4.471   2.694   6.452  0.4944 -1.0852 -1.0014
   76SLPC   C15 6800   4.596   2.691   6.208 -0.0527  0.0022 -0.3359
   76SLPC  H15A 6801   4.599   2.585   6.186 -0.4578  0.1384 -1.0674
   76SLPC  H15B 6802   4.494   2.726   6.214  0.2859  1.2213 -1.3328
   76SLPC  H15C 6803   4.628   2.749   6.123  1.2793 -1.2399 -0.7322
   76SLPC   C12 6804   4.659   2.887   6.356 -0.5588  0.5780 -0.2576
   76SLPC  H12A 6805   4.555   2.914   6.363 -0.3269  1.8457 -1.2679
   76SLPC  H12B 6806   4.702   2.931   6.267 -3.1013  0.1312 -1.7888
   76SLPC   C11 6807   4.740   2.940   6.478 -0.6837  0.1407  0.8680
   76SLPC  H11A 6808   4.710   2.889   6.573  2.0624 -1.3790  1.0200
   76SLPC  H11B 6809   4.716   3.047   6.491  1.2987  0.7566 -0.1631
   76SLPC     P 6810   4.964   3.006   6.349  0.1596 -0.2442 -0.1284
   76SLPC   O13 6811   5.106   2.963   6.373 -0.1411  0.3120 -0.0026
   76SLPC   O14 6812   4.896   2.981   6.220  0.4202  0.0219 -0.0272
   76SLPC   O12 6813   4.881   2.924   6.455 -0.0200  0.5940 -0.7765
   76SLPC   O11 6814   4.923   3.153   6.406  0.6069 -0.4561 -0.1311
   76SLPC    C1 6815   5.007   3.230   6.488 -0.0592 -0.0921 -0.0993
   76SLPC    HA 6816   5.107   3.186   6.511 -0.0755  0.5732  1.3518
   76SLPC    HB 6817   5.031   3.325   6.436 -0.2291 -0.9923 -1.9123
   76SLPC    C2 6818   4.937   3.273   6.623  0.4612 -0.3049 -0.5637
   76SLPC    HS 6819   5.021   3.316   6.683  0.2408  0.6624 -0.9326
   76SLPC   O21 6820   4.882   3.165   6.690  0.0820  0.1622 -0.3183
   76SLPC   C21 6821   4.961   3.082   6.751  0.6307 -0.2284  0.1660
   76SLPC   O22 6822   5.080   3.091   6.761 -0.2391  0.2418  0.4792
   76SLPC   C22 6823   4.875   2.965   6.803 -0.2867 -0.3041 -0.1257
   76SLPC   H2R 6824   4.776   2.957   6.754 -0.8333 -1.8180  1.1267
   76SLPC   H2S 6825   4.919   2.868   6.773 -1.1667 -1.5359  2.2720
   76SLPC    C3 6826   4.831   3.374   6.587  0.2288 -0.0588  0.2213
   76SLPC    HX 6827   4.751   3.336   6.520  1.6699  0.9230 -2.1620
   76SLPC    HY 6828   4.882   3.455   6.531  0.6891 -0.4918  0.0051
   76SLPC   O31 6829   4.777   3.443   6.703  0.0441  0.6446 -0.1130
   76SLPC   C31 6830   4.668   3.406   6.756  0.5515 -0.2272 -0.1568
   76SLPC   O32 6831   4.581   3.333   6.704 -0.4782  0.3201  0.3166
   76SLPC   C32 6832   4.668   3.470   6.889 -0.0181  0.8006  0.0107
   76SLPC   H2X 6833   4.573   3.528   6.896 -0.0606  0.5908  1.3897
   76SLPC   H2Y 6834   4.756   3.535   6.900 -0.6089  1.2554  2.5079
   76SLPC   C23 6835   4.875   2.956   6.962  0.4161 -0.1205 -0.0095
   76SLPC   H3R 6836   4.807   2.872   6.988 -0.4470  0.0521 -1.5880
   76SLPC   H3S 6837   4.830   3.047   7.006  1.4370 -0.3579  1.5896
   76SLPC   C24 6838   5.008   2.930   7.020 -1.1348 -0.8011 -0.6159
   76SLPC   H4R 6839   5.048   3.033   7.021 -1.5526 -0.6380 -0.5873
   76SLPC   H4S 6840   5.067   2.864   6.953  2.5053  0.0044  1.5292
   76SLPC   C25 6841   5.007   2.870   7.157  0.4662  0.2035 -0.6092
   76SLPC   H5R 6842   5.115   2.848   7.174  0.2567  0.6318  1.5440
   76SLPC   H5S 6843   4.946   2.777   7.170  0.5343 -0.2016 -2.8672
   76SLPC   C26 6844   4.954   2.967   7.260 -0.5314  0.2450  0.2856
   76SLPC   H6R 6845   4.846   2.981   7.240 -0.3087  0.2432 -1.0202
   76SLPC   H6S 6846   5.009   3.062   7.242 -1.5069  0.4980 -1.7187
   76SLPC   C27 6847   4.982   2.914   7.412 -0.0648 -0.0769  0.7751
   76SLPC   H7R 6848   5.090   2.889   7.427  0.3709  1.7993  1.0122
   76SLPC   H7S 6849   4.925   2.820   7.428  1.7552 -1.3604  0.0941
   76SLPC   C28 6850   4.956   3.012   7.529  0.0800 -0.9687 -0.0725
   76SLPC   H8R 6851   4.998   3.109   7.494 -1.6908 -0.5572 -1.2138
   76SLPC   H8S 6852   4.848   3.040   7.529  0.0895 -0.9107  0.7491
   76SLPC   C29 6853   4.988   2.970   7.673 -0.3742 -0.3620  0.3192
   76SLPC   H9R 6854   4.989   2.863   7.695 -0.9537 -0.4541 -0.0690
   76SLPC  C210 6855   5.019   3.053   7.775 -0.0882  0.1059 -0.1692
   76SLPC  H10R 6856   5.028   3.010   7.876 -0.0131  0.5359  0.0072
   76SLPC  C211 6857   5.030   3.202   7.763  0.5763  0.0818 -0.1342
   76SLPC  H11R 6858   5.081   3.224   7.667  1.2949 -0.5560  0.0892
   76SLPC  H11S 6859   5.101   3.232   7.843  1.0875  0.6430 -0.7942
   76SLPC  C212 6860   4.895   3.272   7.776 -0.7184 -0.2446  0.4486
   76SLPC  H12R 6861   4.839   3.289   7.683  0.1543  1.3416  0.1903
   76SLPC  C213 6862   4.844   3.310   7.895 -0.0228  0.2607  0.0341
   76SLPC  H13R 6863   4.745   3.358   7.891 -0.3091 -0.2315  0.7648
   76SLPC  C214 6864   4.902   3.283   8.029  0.0048  0.6212 -0.4854
   76SLPC  H14R 6865   4.918   3.375   8.090  1.0074 -0.9910  1.8365
   76SLPC  H14S 6866   4.999   3.229   8.029  0.0298  0.5530  1.9451
   76SLPC  C215 6867   4.788   3.210   8.105 -0.3626 -0.2062 -0.3148
   76SLPC  H15R 6868   4.766   3.110   8.063 -0.6544  0.0007 -0.6565
   76SLPC  H15S 6869   4.696   3.271   8.095 -2.4680 -3.1315 -0.0778
   76SLPC  C216 6870   4.804   3.198   8.261 -0.0694 -0.5134 -0.6834
   76SLPC  H16R 6871   4.797   3.303   8.298 -0.7601 -1.0067  0.6544
   76SLPC  H16S 6872   4.905   3.159   8.287  0.0177  0.4781  0.6177
   76SLPC  C217 6873   4.692   3.112   8.326 -0.1922  0.7929 -0.1217
   76SLPC  H17R 6874   4.700   3.005   8.294  0.2382  1.0575 -0.9385
   76SLPC  H17S 6875   4.596   3.150   8.286 -0.2652  0.2132 -0.5260
   76SLPC  C218 6876   4.681   3.107   8.481 -0.0642 -0.5986 -0.4166
   76SLPC  H18R 6877   4.684   3.215   8.509  2.1629 -0.8095  0.3743
   76SLPC  H18S 6878   4.766   3.052   8.527  0.8156  0.1343 -1.1207
   76SLPC  H18T 6879   4.586   3.063   8.516 -1.8665  3.2708  0.0709
   76SLPC   C33 6880   4.670   3.364   7.005 -0.2304  0.3023 -0.3772
   76SLPC   H3X 6881   4.763   3.305   7.001 -1.4007 -1.9419  2.0382
   76SLPC   H3Y 6882   4.582   3.296   6.999  1.5111 -2.0224 -0.9234
   76SLPC   C34 6883   4.677   3.430   7.153 -0.2956 -0.1431  0.3650
   76SLPC   H4X 6884   4.755   3.509   7.149 -0.9240  0.4674 -1.9831
   76SLPC   H4Y 6885   4.698   3.344   7.219 -1.3377 -0.2389  0.5839
   76SLPC   C35 6886   4.531   3.483   7.175  0.1020  0.2173 -0.4160
   76SLPC   H5X 6887   4.464   3.403   7.139  1.0669 -2.5523  3.2773
   76SLPC   H5Y 6888   4.509   3.575   7.117 -2.8026  0.4619  0.9130
   76SLPC   C36 6889   4.496   3.522   7.325  0.9518 -0.1253  0.4930
   76SLPC   H6X 6890   4.392   3.563   7.328  2.2226  3.7663 -1.2687
   76SLPC   H6Y 6891   4.561   3.605   7.359 -1.7051  1.5990  1.7352
   76SLPC   C37 6892   4.497   3.403   7.420 -0.6265 -0.4476 -0.5392
   76SLPC   H7X 6893   4.599   3.362   7.407 -0.0634 -0.4130  2.9022
   76SLPC   H7Y 6894   4.426   3.324   7.386  0.2465 -0.3754 -2.6800
   76SLPC   C38 6895   4.478   3.433   7.566  0.1626 -0.2785 -0.4480
   76SLPC   H8X 6896   4.382   3.489   7.565  0.9180  1.0799  0.0884
   76SLPC   H8Y 6897   4.547   3.510   7.607  0.2206 -1.2529  1.3798
   76SLPC   C39 6898   4.463   3.312   7.655  0.3285 -0.2540  0.3584
   76SLPC   H9X 6899   4.555   3.251   7.668  1.8857  2.1359  1.2573
   76SLPC   H9Y 6900   4.388   3.247   7.606 -0.4064  1.0146 -0.2552
   76SLPC  C310 6901   4.410   3.352   7.794  0.0403 -0.3694  0.2658
   76SLPC  H10X 6902   4.311   3.401   7.791 -1.1092 -2.5580  0.1951
   76SLPC  H10Y 6903   4.478   3.435   7.822  0.7237 -0.7229 -0.2904
   76SLPC  C311 6904   4.424   3.241   7.903  0.2522  0.1651 -0.1120
   76SLPC  H11X 6905   4.530   3.212   7.920  0.7082  1.0834 -1.2303
   76SLPC  H11Y 6906   4.376   3.151   7.859  0.1719  0.2004 -0.0960
   76SLPC  C312 6907   4.349   3.277   8.032  0.5114 -0.0703  0.8242
   76SLPC  H12X 6908   4.248   3.311   8.001 -0.1357  0.9910  3.7238
   76SLPC  H12Y 6909   4.406   3.364   8.073  0.9245  0.1091 -0.1029
   76SLPC  C313 6910   4.337   3.165   8.129  0.3239 -0.2033  0.2296
   76SLPC  H13X 6911   4.435   3.114   8.129 -0.1928 -1.3152 -1.6671
   76SLPC  H13Y 6912   4.263   3.088   8.097  0.8697 -1.4102  1.7732
   76SLPC  C314 6913   4.308   3.216   8.272 -0.0498  0.4053  0.2743
   76SLPC  H14X 6914   4.211   3.270   8.275 -0.4055 -0.2897  2.1060
   76SLPC  H14Y 6915   4.390   3.284   8.304  1.2944 -2.0855  2.4721
   76SLPC  C315 6916   4.306   3.119   8.387  0.0789  0.2625 -0.0649
   76SLPC  H15X 6917   4.406   3.080   8.416 -1.4043 -3.5106  0.3973
   76SLPC  H15Y 6918   4.244   3.030   8.364 -1.2323  1.0104  0.4578
   76SLPC  C316 6919   4.247   3.187   8.510  0.4097  0.2740 -0.3975
   76SLPC  H16X 6920   4.229   3.112   8.590 -0.7366 -1.5431 -2.2513
   76SLPC  H16Y 6921   4.150   3.232   8.481 -0.1265 -1.3747 -1.2611
   76SLPC  C317 6922   4.340   3.280   8.581  0.5305  0.2465  0.3685
   76SLPC  H17X 6923   4.385   3.358   8.516 -0.6627  0.0514 -0.7192
   76SLPC  H17Y 6924   4.415   3.220   8.636 -0.2478 -3.1120 -1.9748
   76SLPC  C318 6925   4.259   3.355   8.691  0.8437  0.2598 -0.3869
   76SLPC  H18X 6926   4.261   3.286   8.778 -0.1115 -0.9120 -1.2636
   76SLPC  H18Y 6927   4.155   3.375   8.657  0.9594 -0.3800 -1.1270
   76SLPC  H18Z 6928   4.308   3.449   8.725 -0.3732  1.5834 -2.1176
   77SLPC     N 6929   0.669   2.082   6.008  0.4561 -0.0800  0.2879
   77SLPC   C13 6930   0.556   2.001   5.945 -0.0517 -0.0964  0.2134
   77SLPC  H13A 6931   0.548   1.901   5.984  0.6901  0.2158  1.2067
   77SLPC  H13B 6932   0.460   2.050   5.956  0.9381  2.3075 -1.1435
   77SLPC  H13C 6933   0.575   1.997   5.839 -0.7799 -1.8884  0.1057
   77SLPC   C14 6934   0.667   2.222   5.978  0.2302 -0.6190  0.2068
   77SLPC  H14A 6935   0.724   2.273   6.055  0.0399  0.7619 -0.5343
   77SLPC  H14B 6936   0.706   2.240   5.879  0.8378 -0.7321  0.4188
   77SLPC  H14C 6937   0.566   2.261   5.978 -0.0452 -1.0738 -2.8064
   77SLPC   C15 6938   0.802   2.025   5.967  0.3886  0.1400 -0.6481
   77SLPC  H15A 6939   0.876   2.081   6.021 -1.6876  1.4784  0.9752
   77SLPC  H15B 6940   0.809   1.920   5.993 -0.9922  0.6039  1.9998
   77SLPC  H15C 6941   0.819   2.043   5.862 -0.2265  2.4734 -0.4112
   77SLPC   C12 6942   0.666   2.058   6.165  0.3577  0.0258  0.6917
   77SLPC  H12A 6943   0.666   1.950   6.177  0.1446  0.0025  0.5012
   77SLPC  H12B 6944   0.567   2.088   6.196  0.1745 -0.7603  0.9053
   77SLPC   C11 6945   0.756   2.135   6.256 -0.2014  0.4974  1.0196
   77SLPC  H11A 6946   0.860   2.117   6.223 -0.5589 -1.6367  0.8703
   77SLPC  H11B 6947   0.758   2.086   6.356 -1.0346  0.1127  0.8596
   77SLPC     P 6948   0.599   2.343   6.317  0.0649  0.1409 -0.3070
   77SLPC   O13 6949   0.591   2.477   6.259 -0.3316 -0.0982  0.3301
   77SLPC   O14 6950   0.483   2.254   6.295  0.4571  0.2426 -0.2338
   77SLPC   O12 6951   0.727   2.273   6.264  0.1238  0.6253 -0.5661
   77SLPC   O11 6952   0.618   2.357   6.466 -0.1902 -0.2276 -0.1501
   77SLPC    C1 6953   0.743   2.381   6.531  0.0405  0.5720  0.4047
   77SLPC    HA 6954   0.803   2.452   6.470 -0.9740 -0.0509 -1.3830
   77SLPC    HB 6955   0.710   2.438   6.620 -1.8394 -1.3481  1.0203
   77SLPC    C2 6956   0.833   2.260   6.569 -0.3209 -0.8369 -0.2313
   77SLPC    HS 6957   0.884   2.216   6.481 -1.5789 -4.2053  0.5639
   77SLPC   O21 6958   0.748   2.150   6.617 -0.1821 -0.8234  0.1499
   77SLPC   C21 6959   0.807   2.043   6.663  0.0449  0.6492  0.2317
   77SLPC   O22 6960   0.927   2.022   6.662 -0.2098 -0.0722  0.2971
   77SLPC   C22 6961   0.700   1.946   6.703 -0.7643 -0.4358 -0.6923
   77SLPC   H2R 6962   0.609   2.003   6.732 -0.3151 -1.5194  3.5865
   77SLPC   H2S 6963   0.677   1.877   6.619  0.1959 -2.7253  0.8082
   77SLPC    C3 6964   0.938   2.317   6.673  0.1322  0.0746  0.2349
   77SLPC    HX 6965   0.974   2.420   6.650  0.5556 -0.3119 -0.9372
   77SLPC    HY 6966   1.030   2.255   6.665 -1.0982 -1.7249 -0.8880
   77SLPC   O31 6967   0.900   2.308   6.813 -0.2698  0.0606  0.5510
   77SLPC   C31 6968   0.987   2.293   6.903 -1.1984 -0.2167 -0.5637
   77SLPC   O32 6969   1.108   2.292   6.893  0.4792 -0.2651  0.1208
   77SLPC   C32 6970   0.902   2.265   7.029  0.0856  0.0630 -0.2862
   77SLPC   H2X 6971   0.846   2.169   7.031  1.1505 -0.5813  1.7213
   77SLPC   H2Y 6972   0.834   2.353   7.028 -1.6601 -1.1971 -2.4282
   77SLPC   C23 6973   0.734   1.853   6.827 -0.4484  0.5355 -0.1564
   77SLPC   H3R 6974   0.839   1.820   6.818 -0.1935  1.8100 -3.1423
   77SLPC   H3S 6975   0.669   1.765   6.806 -0.0382  0.2890 -0.4058
   77SLPC   C24 6976   0.674   1.895   6.960  0.8556  0.8730  0.2983
   77SLPC   H4R 6977   0.576   1.944   6.939  1.0758  1.1622 -0.0652
   77SLPC   H4S 6978   0.731   1.980   7.002  2.1967 -0.8597  2.1761
   77SLPC   C25 6979   0.667   1.788   7.072  0.4493  0.0715  0.0991
   77SLPC   H5R 6980   0.755   1.795   7.139 -1.9717  3.3680  3.2838
   77SLPC   H5S 6981   0.646   1.685   7.034 -1.6168  0.5303 -0.1390
   77SLPC   C26 6982   0.547   1.807   7.165 -0.0095 -0.0263 -0.0054
   77SLPC   H6R 6983   0.454   1.799   7.104  0.9307 -1.5791 -1.3488
   77SLPC   H6S 6984   0.554   1.911   7.203 -0.2952 -0.7273  2.0646
   77SLPC   C27 6985   0.532   1.699   7.277  0.0586  0.3098 -0.3340
   77SLPC   H7R 6986   0.531   1.598   7.231 -2.3995  0.1943 -0.1891
   77SLPC   H7S 6987   0.434   1.719   7.325  0.4712  4.0157 -0.7537
   77SLPC   C28 6988   0.646   1.699   7.382 -0.2937  0.3570  0.6019
   77SLPC   H8R 6989   0.738   1.678   7.322 -0.3053 -3.0274  1.5603
   77SLPC   H8S 6990   0.643   1.614   7.454  3.0370  1.5498  2.3893
   77SLPC   C29 6991   0.678   1.824   7.449  0.6312  0.0575 -0.2447
   77SLPC   H9R 6992   0.709   1.898   7.374 -0.5717  0.9938  0.1491
   77SLPC  C210 6993   0.667   1.848   7.580  0.6709  0.2839  0.1772
   77SLPC  H10R 6994   0.693   1.950   7.613 -0.7148  0.3670  1.0716
   77SLPC  C211 6995   0.614   1.755   7.693 -0.3599 -0.0633  0.0273
   77SLPC  H11R 6996   0.693   1.726   7.765 -3.0847 -0.7873  2.9659
   77SLPC  H11S 6997   0.564   1.662   7.659 -1.8618  0.4969  0.6264
   77SLPC  C212 6998   0.501   1.832   7.757 -0.1424 -0.2367  0.1704
   77SLPC  H12R 6999   0.426   1.861   7.682  0.5216 -0.8480 -0.7506
   77SLPC  C213 7000   0.494   1.860   7.885 -0.0104  0.2915 -0.2131
   77SLPC  H13R 7001   0.411   1.924   7.919  0.5073  0.5372  0.6128
   77SLPC  C214 7002   0.591   1.827   7.995 -0.1720 -0.2247 -0.3388
   77SLPC  H14R 7003   0.685   1.785   7.954  0.4898  1.6293 -0.8206
   77SLPC  H14S 7004   0.545   1.752   8.064 -1.2775  0.7784  0.0606
   77SLPC  C215 7005   0.633   1.948   8.089  0.1328  0.9671 -0.2579
   77SLPC  H15R 7006   0.543   1.981   8.145 -0.4627 -1.7427  0.5316
   77SLPC  H15S 7007   0.683   2.035   8.041 -0.3837  1.9065  0.8846
   77SLPC  C216 7008   0.736   1.888   8.186 -0.1215  0.4478 -0.8824
   77SLPC  H16R 7009   0.835   1.857   8.147 -0.0859  0.1241 -0.5361
   77SLPC  H16S 7010   0.695   1.799   8.239  0.6774  0.4972 -0.1593
   77SLPC  C217 7011   0.764   1.984   8.304 -0.5077  0.4538 -0.4681
   77SLPC  H17R 7012   0.667   1.996   8.358  0.1264 -2.4113  1.4975
   77SLPC  H17S 7013   0.804   2.086   8.287  2.6731 -0.0447  2.7831
   77SLPC  C218 7014   0.855   1.915   8.412  0.9776  0.4774 -0.5783
   77SLPC  H18R 7015   0.822   1.812   8.438  2.6932 -0.0856 -0.5617
   77SLPC  H18S 7016   0.853   1.964   8.512 -1.8292 -4.1445  1.9942
   77SLPC  H18T 7017   0.959   1.912   8.375  0.7770 -2.3958 -1.1271
   77SLPC   C33 7018   0.986   2.290   7.156  0.4077 -0.5525  0.5032
   77SLPC   H3X 7019   1.046   2.382   7.142 -0.5673  0.0200 -0.0262
   77SLPC   H3Y 7020   1.056   2.204   7.166  1.4652  0.0661 -1.2463
   77SLPC   C34 7021   0.903   2.326   7.282  0.0667  0.4328 -0.2376
   77SLPC   H4X 7022   0.828   2.407   7.268 -1.3343 -0.7436  0.2410
   77SLPC   H4Y 7023   0.979   2.362   7.354  0.0148  2.7219 -1.2392
   77SLPC   C35 7024   0.851   2.205   7.348  0.1171 -0.1370  0.6963
   77SLPC   H5X 7025   0.932   2.130   7.361  0.8942 -0.0086 -2.4727
   77SLPC   H5Y 7026   0.784   2.146   7.282  0.1181  0.0423  0.5332
   77SLPC   C36 7027   0.775   2.232   7.484 -0.3221 -0.2611 -0.1308
   77SLPC   H6X 7028   0.703   2.148   7.498 -2.8483  1.5817 -1.1704
   77SLPC   H6Y 7029   0.712   2.322   7.463 -1.2922 -1.1696 -1.2474
   77SLPC   C37 7030   0.869   2.246   7.603  0.8878  0.5353 -0.1220
   77SLPC   H7X 7031   0.951   2.310   7.566  1.7360 -0.0736  0.6541
   77SLPC   H7Y 7032   0.918   2.149   7.629  1.2878  0.6918 -0.2777
   77SLPC   C38 7033   0.810   2.285   7.737 -0.5195 -0.8122 -0.4360
   77SLPC   H8X 7034   0.740   2.203   7.766 -2.0849  0.1973 -1.2495
   77SLPC   H8Y 7035   0.747   2.372   7.709  0.3680 -1.1838 -3.9636
   77SLPC   C39 7036   0.915   2.312   7.844 -0.3203  0.0797 -0.1195
   77SLPC   H9X 7037   0.965   2.410   7.833 -0.5731 -0.0277 -2.8249
   77SLPC   H9Y 7038   0.990   2.229   7.845 -0.3328  0.0680  0.6682
   77SLPC  C310 7039   0.847   2.329   7.983  0.1192  0.0192 -0.1536
   77SLPC  H10X 7040   0.759   2.261   7.985 -0.2520  0.4925 -0.2831
   77SLPC  H10Y 7041   0.808   2.432   7.968  1.5439  0.4085 -1.4444
   77SLPC  C311 7042   0.937   2.330   8.110 -0.4260 -0.1704  0.7810
   77SLPC  H11X 7043   1.042   2.331   8.074 -0.2004 -3.7298  0.9014
   77SLPC  H11Y 7044   0.927   2.227   8.152 -1.3060 -0.2179  0.4649
   77SLPC  C312 7045   0.909   2.449   8.206  0.2829 -0.8051 -0.2050
   77SLPC  H12X 7046   0.923   2.542   8.146 -1.8664  0.4399  1.0792
   77SLPC  H12Y 7047   0.996   2.451   8.275  0.1699 -1.3886 -0.0416
   77SLPC  C313 7048   0.770   2.447   8.262  0.4664 -0.4118  0.7888
   77SLPC  H13X 7049   0.703   2.410   8.181 -0.5803  0.8891  1.0248
   77SLPC  H13Y 7050   0.735   2.549   8.288 -0.2974 -0.2795 -0.6558
   77SLPC  C314 7051   0.763   2.372   8.399  0.2905 -0.0513 -0.0166
   77SLPC  H14X 7052   0.809   2.440   8.474 -0.7795  0.4172  0.2394
   77SLPC  H14Y 7053   0.831   2.285   8.403  0.2879 -0.0025  1.5312
   77SLPC  C315 7054   0.632   2.335   8.453  0.8000  0.7096 -0.6872
   77SLPC  H15X 7055   0.637   2.259   8.534  2.4308  2.1439  0.5973
   77SLPC  H15Y 7056   0.565   2.281   8.382 -0.7080 -2.1429  2.6093
   77SLPC  C316 7057   0.567   2.457   8.507 -0.0890  0.1691 -0.3352
   77SLPC  H16X 7058   0.564   2.546   8.440 -1.1014  0.3702 -0.0356
   77SLPC  H16Y 7059   0.626   2.486   8.597 -2.0369  0.9088  0.7673
   77SLPC  C317 7060   0.428   2.446   8.557 -0.3007 -0.4893 -0.6643
   77SLPC  H17X 7061   0.354   2.464   8.476  0.5927  0.2512 -1.3433
   77SLPC  H17Y 7062   0.433   2.539   8.618  0.3069 -1.7549  1.3157
   77SLPC  C318 7063   0.372   2.348   8.653 -0.1431 -0.6066 -0.1292
   77SLPC  H18X 7064   0.329   2.259   8.602  1.7027 -4.1565  3.8509
   77SLPC  H18Y 7065   0.290   2.397   8.711 -1.2506  0.4109 -2.4025
   77SLPC  H18Z 7066   0.439   2.303   8.729  0.5697  1.0371  0.2718
   78SLPC     N 7067   2.541   2.927   5.937  0.3204 -0.7495  0.2194
   78SLPC   C13 7068   2.645   3.020   5.886  0.6936  0.0417 -0.5713
   78SLPC  H13A 7069   2.635   3.019   5.779 -0.6828 -2.1445 -0.4802
   78SLPC  H13B 7070   2.637   3.122   5.922 -1.0418 -0.0515 -0.5951
   78SLPC  H13C 7071   2.746   2.985   5.899  0.2364 -1.1046  0.0481
   78SLPC   C14 7072   2.413   2.992   5.904 -0.5322  0.0906  0.0801
   78SLPC  H14A 7073   2.331   2.922   5.915 -1.0524  0.6070 -0.4696
   78SLPC  H14B 7074   2.388   3.076   5.966  0.4210 -1.2800  2.4685
   78SLPC  H14C 7075   2.410   3.016   5.798 -0.4785 -1.0902 -0.2053
   78SLPC   C15 7076   2.551   2.913   6.085  0.4818 -0.3769 -0.0681
   78SLPC  H15A 7077   2.634   2.855   6.121 -1.1271 -1.1518  2.7089
   78SLPC  H15B 7078   2.550   3.008   6.135 -1.2087 -0.1998 -0.3702
   78SLPC  H15C 7079   2.466   2.857   6.123  0.7711 -0.9779 -0.2859
   78SLPC   C12 7080   2.544   2.795   5.873  0.3005  0.1896 -0.6316
   78SLPC  H12A 7081   2.636   2.744   5.899 -0.7724 -0.4295  2.3232
   78SLPC  H12B 7082   2.552   2.817   5.767  1.8540 -0.2301 -0.6313
   78SLPC   C11 7083   2.428   2.696   5.908 -0.4741 -0.5615  0.3794
   78SLPC  H11A 7084   2.438   2.620   5.827 -0.5889 -1.9017  1.5855
   78SLPC  H11B 7085   2.329   2.744   5.898  0.1755  0.8621  0.5875
   78SLPC     P 7086   2.504   2.520   6.088 -0.2978 -0.0940  0.4789
   78SLPC   O13 7087   2.498   2.414   5.988  0.2019  0.6539  0.2329
   78SLPC   O14 7088   2.643   2.549   6.133  0.2923 -0.6459 -0.0224
   78SLPC   O12 7089   2.436   2.650   6.039  0.4337 -0.2117 -0.1989
   78SLPC   O11 7090   2.421   2.478   6.212 -0.4497 -0.0105 -0.0016
   78SLPC    C1 7091   2.323   2.564   6.273  0.0879 -0.3228 -0.8669
   78SLPC    HA 7092   2.256   2.622   6.206  0.5542  0.2513 -0.8492
   78SLPC    HB 7093   2.257   2.500   6.335  0.6978  0.7549  0.9936
   78SLPC    C2 7094   2.379   2.651   6.389  0.6328  0.6545 -0.0876
   78SLPC    HS 7095   2.436   2.730   6.334  0.9540 -0.4625 -1.3940
   78SLPC   O21 7096   2.460   2.570   6.471 -0.0767  0.2041  0.0198
   78SLPC   C21 7097   2.535   2.641   6.559  1.1764 -0.2859  0.0691
   78SLPC   O22 7098   2.536   2.764   6.568  0.3211 -0.0785 -0.1932
   78SLPC   C22 7099   2.616   2.545   6.644  0.4295 -0.3657 -0.3099
   78SLPC   H2R 7100   2.545   2.476   6.694  1.1073  0.7396  2.3792
   78SLPC   H2S 7101   2.694   2.483   6.596 -0.1015 -0.0901 -1.5547
   78SLPC    C3 7102   2.250   2.717   6.465  0.5480 -0.0560 -0.0598
   78SLPC    HX 7103   2.186   2.777   6.397  1.1740 -0.3939 -0.9685
   78SLPC    HY 7104   2.303   2.783   6.537  0.3200  0.0891 -0.0234
   78SLPC   O31 7105   2.172   2.620   6.538 -0.0071 -0.0497  0.4082
   78SLPC   C31 7106   2.100   2.670   6.640 -0.0228 -0.0827 -1.4038
   78SLPC   O32 7107   2.073   2.785   6.657 -0.3363  0.1759 -0.3611
   78SLPC   C32 7108   2.073   2.559   6.734  0.6059 -0.5095  0.2856
   78SLPC   H2X 7109   2.066   2.468   6.671 -0.4891  1.0521 -1.9650
   78SLPC   H2Y 7110   1.971   2.580   6.772  0.3794 -0.7157 -0.2047
   78SLPC   C23 7111   2.696   2.623   6.754 -0.3133 -0.3725 -0.6105
   78SLPC   H3R 7112   2.772   2.693   6.712 -0.0192 -0.1705  0.2294
   78SLPC   H3S 7113   2.744   2.541   6.812 -1.1002  0.6548  1.6438
   78SLPC   C24 7114   2.607   2.680   6.865  0.3577  0.2170  1.1016
   78SLPC   H4R 7115   2.562   2.593   6.917 -0.4941  0.5667  0.9604
   78SLPC   H4S 7116   2.525   2.743   6.826  0.9177  0.9286  1.0506
   78SLPC   C25 7117   2.681   2.772   6.960 -0.0808 -0.2608  1.2005
   78SLPC   H5R 7118   2.610   2.825   7.027  1.4174  2.5557  0.6918
   78SLPC   H5S 7119   2.708   2.865   6.907 -1.6115  1.1553  2.7804
   78SLPC   C26 7120   2.788   2.705   7.041 -0.3686 -0.4474  0.2063
   78SLPC   H6R 7121   2.869   2.680   6.968 -2.2583  1.0738 -2.6348
   78SLPC   H6S 7122   2.756   2.609   7.085  1.9348 -1.8292 -0.9368
   78SLPC   C27 7123   2.853   2.796   7.141 -0.6588  0.4017 -0.0055
   78SLPC   H7R 7124   2.780   2.863   7.191 -0.7853  0.0420  0.3004
   78SLPC   H7S 7125   2.913   2.864   7.077  0.2060 -0.0405  0.3158
   78SLPC   C28 7126   2.939   2.721   7.242  0.3368  0.7267  0.9371
   78SLPC   H8R 7127   3.001   2.781   7.312  1.6851 -0.1001  0.5063
   78SLPC   H8S 7128   3.007   2.652   7.187 -0.8803 -0.1689  0.5019
   78SLPC   C29 7129   2.858   2.634   7.339  0.3897 -0.4521  0.4334
   78SLPC   H9R 7130   2.807   2.542   7.306  1.4779 -0.3960 -1.5080
   78SLPC  C210 7131   2.844   2.669   7.470 -0.5819  0.7349 -0.2057
   78SLPC  H10R 7132   2.791   2.591   7.525  1.3105 -2.0220 -2.0284
   78SLPC  C211 7133   2.897   2.781   7.551 -0.3420  0.6073  0.0209
   78SLPC  H11R 7134   3.008   2.777   7.558 -0.3966 -0.6325  0.4395
   78SLPC  H11S 7135   2.874   2.760   7.658  0.6251  0.2564  0.1758
   78SLPC  C212 7136   2.834   2.908   7.505 -0.2743  0.6793 -0.3035
   78SLPC  H12R 7137   2.830   2.909   7.395 -2.1027 -0.7579 -0.2902
   78SLPC  C213 7138   2.787   3.006   7.575  0.4767 -0.1534 -0.5555
   78SLPC  H13R 7139   2.745   3.094   7.525  0.4833 -0.0112 -0.3115
   78SLPC  C214 7140   2.778   3.002   7.728  0.8946 -0.2066  0.0498
   78SLPC  H14R 7141   2.796   3.094   7.786 -0.4331 -0.9092  1.6297
   78SLPC  H14S 7142   2.845   2.921   7.763 -1.7582 -2.0148  1.3286
   78SLPC  C215 7143   2.629   2.977   7.768  0.3166 -0.3191  0.0800
   78SLPC  H15R 7144   2.579   2.909   7.696  0.6167 -0.7088  0.2301
   78SLPC  H15S 7145   2.571   3.070   7.753  1.1203  0.4442  1.4857
   78SLPC  C216 7146   2.609   2.933   7.910  0.2126  0.4952  0.1406
   78SLPC  H16R 7147   2.679   2.986   7.978  2.0511  0.2392 -1.4670
   78SLPC  H16S 7148   2.628   2.824   7.923 -0.8668  0.1523 -0.9159
   78SLPC  C217 7149   2.467   2.967   7.960  0.0416 -0.0864  0.6239
   78SLPC  H17R 7150   2.394   2.899   7.912 -1.1409  2.3168 -1.2678
   78SLPC  H17S 7151   2.446   3.075   7.940  2.4149  0.3033 -0.1108
   78SLPC  C218 7152   2.449   2.941   8.113 -0.5927 -0.1567 -0.8802
   78SLPC  H18R 7153   2.349   2.978   8.141  0.4024  2.5014 -0.5515
   78SLPC  H18S 7154   2.530   2.985   8.175 -0.6982 -0.9461 -0.1781
   78SLPC  H18T 7155   2.468   2.834   8.137  0.7919  0.6654  2.1846
   78SLPC   C33 7156   2.174   2.535   6.846  0.1088  0.0034  0.3596
   78SLPC   H3X 7157   2.277   2.523   6.806  0.1673  0.5273  0.3433
   78SLPC   H3Y 7158   2.140   2.446   6.903 -1.6495  1.9387  2.5674
   78SLPC   C34 7159   2.159   2.641   6.953 -0.3375  0.7865 -1.2067
   78SLPC   H4X 7160   2.055   2.642   6.993 -0.6064 -0.4053 -1.8099
   78SLPC   H4Y 7161   2.177   2.736   6.899 -2.4026  0.8743 -1.8275
   78SLPC   C35 7162   2.267   2.614   7.066  0.6626  0.1468 -1.1541
   78SLPC   H5X 7163   2.368   2.597   7.022  0.2283  0.5151 -2.3225
   78SLPC   H5Y 7164   2.236   2.522   7.119  0.6016  1.5788  1.4557
   78SLPC   C36 7165   2.282   2.723   7.176  0.2705  0.3552 -0.5695
   78SLPC   H6X 7166   2.189   2.744   7.233  0.3149  0.2446 -0.4556
   78SLPC   H6Y 7167   2.310   2.818   7.126  2.2106 -0.6572 -1.4991
   78SLPC   C37 7168   2.399   2.681   7.274 -0.5806 -0.8148 -0.0262
   78SLPC   H7X 7169   2.493   2.664   7.217  0.3836  0.0589  1.2446
   78SLPC   H7Y 7170   2.375   2.585   7.325 -2.4872 -0.6887 -0.6075
   78SLPC   C38 7171   2.447   2.799   7.360  0.2157  0.3865 -0.5678
   78SLPC   H8X 7172   2.447   2.886   7.292 -2.5405  1.7544  1.0088
   78SLPC   H8Y 7173   2.549   2.776   7.400  0.9231 -0.1282 -2.5509
   78SLPC   C39 7174   2.348   2.848   7.464  0.0447  0.1059 -0.3006
   78SLPC   H9X 7175   2.261   2.898   7.415  0.2819  1.6269  0.7272
   78SLPC   H9Y 7176   2.407   2.927   7.516  1.9625 -0.3516 -1.6752
   78SLPC  C310 7177   2.288   2.748   7.571  0.3498 -0.5805 -0.0239
   78SLPC  H10X 7178   2.214   2.685   7.517 -0.8152  0.1920  0.6348
   78SLPC  H10Y 7179   2.215   2.796   7.639  1.7623 -1.0225  1.8923
   78SLPC  C311 7180   2.387   2.667   7.661 -0.6281  0.4743 -0.0005
   78SLPC  H11X 7181   2.458   2.735   7.713  2.5523 -3.0491  0.7095
   78SLPC  H11Y 7182   2.463   2.626   7.591  1.6356  2.9180  0.8663
   78SLPC  C312 7183   2.327   2.555   7.746 -0.9874  0.1576  0.3104
   78SLPC  H12X 7184   2.407   2.483   7.777  1.8611  2.7863 -0.4258
   78SLPC  H12Y 7185   2.264   2.495   7.677 -0.1874 -0.0615 -0.2482
   78SLPC  C313 7186   2.256   2.609   7.869  0.1615 -0.0136  0.0985
   78SLPC  H13X 7187   2.152   2.633   7.838 -0.2841 -1.1251  0.6909
   78SLPC  H13Y 7188   2.291   2.701   7.920 -1.1362  0.3258  0.4222
   78SLPC  C314 7189   2.236   2.499   7.976 -0.3262  0.0875 -0.4432
   78SLPC  H14X 7190   2.285   2.404   7.946  0.1211  0.1214  0.1654
   78SLPC  H14Y 7191   2.128   2.478   7.989  0.3653 -2.6501  1.8006
   78SLPC  C315 7192   2.291   2.527   8.119  0.5749 -0.4052  0.3848
   78SLPC  H15X 7193   2.227   2.612   8.152 -0.7176 -1.1307 -0.1765
   78SLPC  H15Y 7194   2.400   2.548   8.122  0.4891  0.2832 -0.9101
   78SLPC  C316 7195   2.256   2.415   8.216  0.4157  0.6113  0.6954
   78SLPC  H16X 7196   2.312   2.324   8.187  1.2337 -0.1218  4.1431
   78SLPC  H16Y 7197   2.147   2.393   8.221  0.3912  0.6258  0.2574
   78SLPC  C317 7198   2.291   2.442   8.365  0.1179  0.5575 -0.6670
   78SLPC  H17X 7199   2.241   2.533   8.404 -0.8262 -0.9886  1.9790
   78SLPC  H17Y 7200   2.400   2.463   8.366  0.5821 -1.3370 -2.6237
   78SLPC  C318 7201   2.259   2.327   8.457  0.1622  0.0577 -0.2251
   78SLPC  H18X 7202   2.273   2.352   8.564 -2.7126 -1.8799  0.7174
   78SLPC  H18Y 7203   2.311   2.232   8.432 -3.0554 -1.2624 -2.6094
   78SLPC  H18Z 7204   2.153   2.294   8.452 -0.7212  1.6718  3.7328
   79SLPC     N 7205   5.214   5.668   6.567  0.0702 -0.3590 -0.2813
   79SLPC   C13 7206   5.319   5.712   6.666  0.0448 -0.0759  0.1141
   79SLPC  H13A 7207   5.318   5.819   6.684  1.0024 -0.2101  1.0263
   79SLPC  H13B 7208   5.287   5.660   6.755  0.2487  0.0177  0.2434
   79SLPC  H13C 7209   5.418   5.683   6.635 -0.5362 -0.7688 -1.1613
   79SLPC   C14 7210   5.084   5.705   6.615 -0.3065 -0.7393 -0.1778
   79SLPC  H14A 7211   5.085   5.809   6.643 -1.1778 -0.8064  0.1298
   79SLPC  H14B 7212   5.005   5.694   6.541 -0.5061 -1.9352  0.1812
   79SLPC  H14C 7213   5.058   5.648   6.703  0.3019  1.4988  1.5463
   79SLPC   C15 7214   5.207   5.519   6.551 -0.3808 -0.2454 -0.0882
   79SLPC  H15A 7215   5.161   5.486   6.643 -2.1696  4.6278  1.0782
   79SLPC  H15B 7216   5.162   5.510   6.453 -2.5416  0.2427  0.8070
   79SLPC  H15C 7217   5.306   5.476   6.551 -0.6831 -0.9808  1.2102
   79SLPC   C12 7218   5.234   5.723   6.428 -0.3976 -0.1845  0.0606
   79SLPC  H12A 7219   5.228   5.831   6.434  2.0338  0.0311 -0.4363
   79SLPC  H12B 7220   5.148   5.697   6.369 -0.0251  2.4354 -1.7877
   79SLPC   C11 7221   5.365   5.686   6.349  0.7137 -0.3215 -0.3419
   79SLPC  H11A 7222   5.355   5.737   6.251 -0.4335 -0.5757 -0.3689
   79SLPC  H11B 7223   5.357   5.579   6.320  1.6856 -0.6606  0.6027
   79SLPC     P 7224   5.556   5.842   6.436  0.1952 -0.1521  0.3059
   79SLPC   O13 7225   5.643   5.836   6.556 -0.8310  0.2485 -0.1350
   79SLPC   O14 7226   5.627   5.883   6.310  0.3689 -0.1787  0.2879
   79SLPC   O12 7227   5.484   5.705   6.427 -0.0965 -0.3216  0.0154
   79SLPC   O11 7228   5.435   5.944   6.466 -0.3548 -0.2742  0.6487
   79SLPC    C1 7229   5.465   6.072   6.514 -0.0743 -0.5860 -0.7055
   79SLPC    HA 7230   5.574   6.090   6.526 -0.5000  0.1613  3.4705
   79SLPC    HB 7231   5.413   6.147   6.451 -1.2067 -2.4400 -2.0597
   79SLPC    C2 7232   5.401   6.094   6.659 -0.8254  0.9331 -0.0500
   79SLPC    HS 7233   5.422   6.194   6.702  0.5783 -0.7051  3.5060
   79SLPC   O21 7234   5.452   5.998   6.757  0.4637  0.0151 -0.3521
   79SLPC   C21 7235   5.563   6.036   6.816 -0.2589 -0.0248 -0.1782
   79SLPC   O22 7236   5.626   6.139   6.779  0.5011  0.4565 -0.1469
   79SLPC   C22 7237   5.602   5.944   6.936  0.8311 -0.1376  0.1002
   79SLPC   H2R 7238   5.527   5.971   7.014 -0.3057 -0.0997 -0.9883
   79SLPC   H2S 7239   5.581   5.846   6.888 -0.6153 -0.1849  0.7559
   79SLPC    C3 7240   5.248   6.082   6.649  0.0948 -0.1917  0.7502
   79SLPC    HX 7241   5.222   5.982   6.607  0.2514  1.0978 -2.7851
   79SLPC    HY 7242   5.214   6.154   6.571  0.9359 -0.2832  0.2795
   79SLPC   O31 7243   5.192   6.123   6.774 -0.2064  0.1006 -0.0140
   79SLPC   C31 7244   5.165   6.034   6.862 -0.2696  1.1387 -0.3021
   79SLPC   O32 7245   5.177   5.911   6.849 -0.0737 -0.2245 -0.2905
   79SLPC   C32 7246   5.107   6.098   6.990 -0.8680 -0.3516  0.1430
   79SLPC   H2X 7247   4.997   6.105   6.986 -0.9594 -2.0238 -1.5974
   79SLPC   H2Y 7248   5.154   6.199   6.998 -1.7753 -0.0205  1.7050
   79SLPC   C23 7249   5.747   5.961   6.993 -0.4893 -0.9141 -0.4290
   79SLPC   H3R 7250   5.774   6.068   7.009 -0.3536 -1.0218  0.0765
   79SLPC   H3S 7251   5.834   5.919   6.938  1.1262  0.1128  1.2078
   79SLPC   C24 7252   5.755   5.898   7.131  0.0110  0.0218  0.7920
   79SLPC   H4R 7253   5.726   5.791   7.120 -1.0393  0.4213 -0.5855
   79SLPC   H4S 7254   5.671   5.944   7.186 -0.4171  0.4615 -0.2087
   79SLPC   C25 7255   5.889   5.921   7.207  0.1252 -0.2134 -0.1703
   79SLPC   H5R 7256   5.918   6.028   7.198  2.4717 -0.8695 -1.2252
   79SLPC   H5S 7257   5.973   5.870   7.154 -1.4331 -1.7659 -1.2623
   79SLPC   C26 7258   5.882   5.875   7.350  0.8798 -0.1682  0.3995
   79SLPC   H6R 7259   5.984   5.855   7.392  0.6783  0.1858  1.0809
   79SLPC   H6S 7260   5.847   5.770   7.355  1.6978 -0.4685 -0.0037
   79SLPC   C27 7261   5.794   5.954   7.447 -0.9632 -1.0119 -0.7034
   79SLPC   H7R 7262   5.691   5.962   7.405 -1.7913  1.2884  1.5547
   79SLPC   H7S 7263   5.826   6.060   7.455 -1.4923 -0.8519 -0.6964
   79SLPC   C28 7264   5.795   5.894   7.589  0.0491 -0.0655  0.3462
   79SLPC   H8R 7265   5.726   5.807   7.589 -2.3933  1.7389 -1.3360
   79SLPC   H8S 7266   5.739   5.966   7.652 -0.5455 -1.0984  1.0285
   79SLPC   C29 7267   5.934   5.852   7.643  0.4827  0.1299  0.4607
   79SLPC   H9R 7268   6.018   5.918   7.621 -0.3810  0.2038 -3.2475
   79SLPC  C210 7269   5.968   5.739   7.701  0.1340 -0.0753  0.2094
   79SLPC  H10R 7270   6.064   5.746   7.753 -1.3637  1.0680  3.0064
   79SLPC  C211 7271   5.870   5.625   7.724 -0.2219  0.2129 -0.4929
   79SLPC  H11R 7272   5.821   5.584   7.633  0.2257 -0.1424 -0.5806
   79SLPC  H11S 7273   5.793   5.659   7.797 -1.1194 -0.5031 -1.0876
   79SLPC  C212 7274   5.934   5.510   7.798  0.0667  0.0098 -0.3940
   79SLPC  H12R 7275   5.974   5.442   7.721 -1.7522  1.2326 -2.5414
   79SLPC  C213 7276   5.964   5.505   7.927 -0.2719 -0.2037  0.0639
   79SLPC  H13R 7277   6.031   5.426   7.962 -1.2354 -0.7456  0.7489
   79SLPC  C214 7278   5.944   5.608   8.034  0.5125  0.1714 -1.1283
   79SLPC  H14R 7279   5.858   5.673   8.007 -0.2438  0.0233  0.7576
   79SLPC  H14S 7280   6.040   5.661   8.048  0.6336  0.3065 -2.4104
   79SLPC  C215 7281   5.904   5.548   8.174 -0.2718 -0.7804 -0.5560
   79SLPC  H15R 7282   5.811   5.488   8.162 -0.8220  0.1179 -0.9546
   79SLPC  H15S 7283   5.882   5.637   8.237 -1.5223 -1.0983 -0.5205
   79SLPC  C216 7284   6.010   5.470   8.259 -0.1023  0.0927  0.8614
   79SLPC  H16R 7285   6.082   5.540   8.308  1.9748 -2.1584  1.1929
   79SLPC  H16S 7286   6.071   5.403   8.195  0.8508  0.8224  0.9857
   79SLPC  C217 7287   5.962   5.395   8.389 -0.6650 -0.4996  0.0383
   79SLPC  H17R 7288   5.893   5.320   8.346  0.7584 -0.7412 -1.9425
   79SLPC  H17S 7289   5.899   5.461   8.453 -1.2925 -0.7736 -0.2894
   79SLPC  C218 7290   6.074   5.324   8.473 -0.0684  0.2118  0.0659
   79SLPC  H18R 7291   6.134   5.409   8.512 -1.4696  1.0009  0.5780
   79SLPC  H18S 7292   6.123   5.255   8.402 -1.7925 -0.3715 -0.6052
   79SLPC  H18T 7293   6.034   5.263   8.557  0.7883 -0.7077 -0.1744
   79SLPC   C33 7294   5.150   6.020   7.118 -1.2034  0.1741 -0.5600
   79SLPC   H3X 7295   5.260   6.002   7.124 -1.0055  1.4352  0.1181
   79SLPC   H3Y 7296   5.099   5.922   7.107 -3.0476  0.9039  0.9687
   79SLPC   C34 7297   5.099   6.088   7.249  0.0066  0.7073  0.3800
   79SLPC   H4X 7298   4.989   6.074   7.263  0.3463  0.1040  2.7205
   79SLPC   H4Y 7299   5.132   6.194   7.251  1.2126  0.5068 -2.8325
   79SLPC   C35 7300   5.165   6.011   7.366  0.0777  0.3727  0.1246
   79SLPC   H5X 7301   5.275   6.004   7.350  0.1908 -0.5844  1.1722
   79SLPC   H5Y 7302   5.131   5.906   7.356 -3.2318  1.3387 -0.1637
   79SLPC   C36 7303   5.130   6.070   7.505  0.3527 -0.1517 -1.4262
   79SLPC   H6X 7304   5.020   6.078   7.519  0.4315 -2.2918  1.2236
   79SLPC   H6Y 7305   5.181   6.169   7.509  0.4890 -0.2424 -0.8790
   79SLPC   C37 7306   5.186   5.993   7.633  0.4050 -0.0366 -0.2410
   79SLPC   H7X 7307   5.292   5.970   7.608 -0.9168 -2.8483 -4.2886
   79SLPC   H7Y 7308   5.141   5.892   7.645 -1.1298  0.6344 -0.1023
   79SLPC   C38 7309   5.179   6.061   7.772  0.0883 -0.1499 -1.1041
   79SLPC   H8X 7310   5.073   6.084   7.797  0.2726 -0.0149 -0.4040
   79SLPC   H8Y 7311   5.219   6.164   7.763  0.9646 -0.4294 -0.6053
   79SLPC   C39 7312   5.261   5.990   7.878 -0.8286 -0.0393 -0.4589
   79SLPC   H9X 7313   5.358   5.958   7.835 -0.6387 -2.6457  1.6247
   79SLPC   H9Y 7314   5.214   5.891   7.896  1.1905 -0.9563 -0.0450
   79SLPC  C310 7315   5.277   6.065   8.012  0.1528  0.2456  0.6468
   79SLPC  H10X 7316   5.321   6.163   7.983  0.3725 -0.3864 -1.3003
   79SLPC  H10Y 7317   5.352   6.017   8.079 -1.0524 -0.0520  1.8195
   79SLPC  C311 7318   5.142   6.098   8.088  0.4648  0.4160  0.2355
   79SLPC  H11X 7319   5.077   6.009   8.101  0.4174  0.6345  1.6070
   79SLPC  H11Y 7320   5.082   6.165   8.024 -1.3714 -0.9221  0.4843
   79SLPC  C312 7321   5.170   6.172   8.218  0.1486  0.7360  0.1941
   79SLPC  H12X 7322   5.074   6.217   8.249 -0.7534 -0.5286 -0.6425
   79SLPC  H12Y 7323   5.256   6.242   8.208 -0.2108  0.8900 -3.0987
   79SLPC  C313 7324   5.194   6.070   8.332 -0.7665  0.4571  0.4277
   79SLPC  H13X 7325   5.231   6.118   8.425 -2.8328 -0.1166  1.6191
   79SLPC  H13Y 7326   5.271   5.999   8.296 -0.2186  0.7326  1.0217
   79SLPC  C314 7327   5.075   5.992   8.369 -0.0950 -0.4176 -0.0808
   79SLPC  H14X 7328   5.105   5.892   8.407  1.0194 -0.7953 -1.8562
   79SLPC  H14Y 7329   5.018   5.963   8.278  0.8811  3.0042 -1.9211
   79SLPC  C315 7330   4.986   6.064   8.464 -0.3488  0.1747 -0.4343
   79SLPC  H15X 7331   4.881   6.030   8.454 -0.0916 -1.1933  1.1641
   79SLPC  H15Y 7332   4.988   6.174   8.446  1.3917  0.4572  1.1029
   79SLPC  C316 7333   5.031   6.054   8.611 -0.1098  0.8261  0.2240
   79SLPC  H16X 7334   5.135   6.093   8.616  0.0298  0.4187  0.5299
   79SLPC  H16Y 7335   5.044   5.949   8.646  1.2716  0.8081 -0.3025
   79SLPC  C317 7336   4.956   6.118   8.726 -0.3778 -0.1990 -0.5345
   79SLPC  H17X 7337   4.857   6.070   8.738 -0.0992 -0.7027 -0.2734
   79SLPC  H17Y 7338   4.935   6.222   8.690 -0.4190 -0.1320 -0.3193
   79SLPC  C318 7339   5.017   6.117   8.866  0.2837 -0.1254 -0.4343
   79SLPC  H18X 7340   4.956   6.174   8.940 -2.0568 -1.3133 -1.3222
   79SLPC  H18Y 7341   5.120   6.157   8.856 -0.1974  1.5045  0.6621
   79SLPC  H18Z 7342   5.026   6.014   8.904  0.4516 -0.3531 -1.0839
   80SLPC     N 7343   1.542   2.146   6.018  0.1959  0.4863  0.3463
   80SLPC   C13 7344   1.535   1.994   6.037 -0.5206 -0.7245  0.2321
   80SLPC  H13A 7345   1.581   1.974   6.133 -0.7409  1.8860  0.9826
   80SLPC  H13B 7346   1.436   1.953   6.034 -1.3407  1.1964 -1.5331
   80SLPC  H13C 7347   1.587   1.946   5.955 -2.0319  0.3597 -1.4437
   80SLPC   C14 7348   1.464   2.211   6.122 -0.0947 -0.3780 -0.3848
   80SLPC  H14A 7349   1.361   2.180   6.129 -0.2806  0.1408 -0.7920
   80SLPC  H14B 7350   1.510   2.197   6.219  1.4348  0.9375 -0.8765
   80SLPC  H14C 7351   1.462   2.316   6.096 -0.4179 -0.4045 -0.4664
   80SLPC   C15 7352   1.472   2.173   5.885  0.2138 -0.2554 -0.8270
   80SLPC  H15A 7353   1.524   2.141   5.796 -2.3844  2.1159 -3.4398
   80SLPC  H15B 7354   1.370   2.137   5.886 -0.5608  1.7381 -1.4906
   80SLPC  H15C 7355   1.460   2.279   5.868 -0.1802 -0.1392  0.1199
   80SLPC   C12 7356   1.688   2.203   6.012  1.4722 -0.1764  0.0795
   80SLPC  H12A 7357   1.691   2.309   5.992  1.2054 -0.3436 -0.8954
   80SLPC  H12B 7358   1.752   2.150   5.943  0.6586 -1.8399  0.5345
   80SLPC   C11 7359   1.774   2.205   6.135  0.4956  0.5935  0.3188
   80SLPC  H11A 7360   1.727   2.239   6.230 -2.6577 -1.3715 -0.4017
   80SLPC  H11B 7361   1.852   2.280   6.108  0.3222  0.7736  0.3169
   80SLPC     P 7362   1.957   2.059   6.242 -0.0556 -0.2547  0.6518
   80SLPC   O13 7363   1.988   1.919   6.247 -0.4701  0.4766  0.6034
   80SLPC   O14 7364   2.065   2.151   6.197 -0.1879 -0.0226  0.6976
   80SLPC   O12 7365   1.828   2.068   6.151  0.0422 -0.4826 -0.1278
   80SLPC   O11 7366   1.907   2.113   6.384 -0.4203  1.0582  0.2784
   80SLPC    C1 7367   1.800   2.033   6.433  0.3315  0.5136  0.4005
   80SLPC    HA 7368   1.711   2.042   6.366  0.5993  1.1393  0.1196
   80SLPC    HB 7369   1.819   1.924   6.441  1.4510  0.7721  1.4292
   80SLPC    C2 7370   1.759   2.067   6.576  0.6766 -0.4533 -0.2481
   80SLPC    HS 7371   1.665   2.015   6.604  0.8316  0.3156  1.9017
   80SLPC   O21 7372   1.765   2.211   6.603  0.3252  0.0798  0.1409
   80SLPC   C21 7373   1.674   2.281   6.535  1.0421 -0.4847  0.2692
   80SLPC   O22 7374   1.589   2.239   6.457  0.3056  0.5338 -0.1333
   80SLPC   C22 7375   1.675   2.428   6.578  0.3484 -0.2810 -0.5943
   80SLPC   H2R 7376   1.755   2.479   6.520 -1.4554 -0.0466 -3.0333
   80SLPC   H2S 7377   1.574   2.474   6.563 -0.1468 -0.2116  2.3725
   80SLPC    C3 7378   1.870   2.006   6.666 -0.6858  0.1210  0.6221
   80SLPC    HX 7379   1.973   2.020   6.626  0.3277 -1.9191  2.3074
   80SLPC    HY 7380   1.857   1.896   6.653 -0.8502  0.4197 -2.5475
   80SLPC   O31 7381   1.855   2.050   6.799 -0.4438 -0.2848  0.0874
   80SLPC   C31 7382   1.927   2.140   6.855  0.4456  0.1575 -0.9895
   80SLPC   O32 7383   2.004   2.215   6.800  0.0774 -0.2564  0.3201
   80SLPC   C32 7384   1.902   2.137   7.006  1.2277 -0.0181  0.0061
   80SLPC   H2X 7385   1.868   2.038   7.043 -1.1348  1.3793  1.8833
   80SLPC   H2Y 7386   1.815   2.203   7.025  1.3801  1.0029 -2.4450
   80SLPC   C23 7387   1.708   2.439   6.730 -0.3361 -0.0114  0.9596
   80SLPC   H3R 7388   1.704   2.548   6.753 -0.2553  0.4677 -1.1363
   80SLPC   H3S 7389   1.811   2.407   6.756 -0.7100 -2.6118 -0.4410
   80SLPC   C24 7390   1.636   2.364   6.831 -0.0471 -0.1345  0.0857
   80SLPC   H4R 7391   1.664   2.256   6.832  1.8392  0.2781 -1.7158
   80SLPC   H4S 7392   1.528   2.362   6.804  0.1025  1.2439 -0.6759
   80SLPC   C25 7393   1.673   2.403   6.980 -0.4771 -0.7234  0.1206
   80SLPC   H5R 7394   1.657   2.513   6.984  1.0564 -0.4883  0.5629
   80SLPC   H5S 7395   1.780   2.387   7.005 -0.9139 -1.2520  1.7435
   80SLPC   C26 7396   1.585   2.332   7.087  0.0089  0.6421 -0.7308
   80SLPC   H6R 7397   1.596   2.223   7.073 -0.6983  0.6191 -1.1217
   80SLPC   H6S 7398   1.479   2.355   7.068 -0.0798  0.5543 -0.3489
   80SLPC   C27 7399   1.634   2.369   7.231 -0.4331  0.0612  0.7141
   80SLPC   H7R 7400   1.627   2.479   7.249 -0.3212  0.6292 -2.1110
   80SLPC   H7S 7401   1.744   2.357   7.231 -0.0502  2.5980 -0.9880
   80SLPC   C28 7402   1.577   2.298   7.353  0.4572  0.3482 -0.2456
   80SLPC   H8R 7403   1.600   2.358   7.443  0.5400 -0.9533  0.6249
   80SLPC   H8S 7404   1.623   2.197   7.355 -1.1852 -0.4848 -1.5795
   80SLPC   C29 7405   1.424   2.286   7.352 -0.2978 -0.4875  0.0695
   80SLPC   H9R 7406   1.375   2.313   7.258  0.0989  2.3520  0.5835
   80SLPC  C210 7407   1.348   2.246   7.462 -0.1916 -0.9595 -0.8570
   80SLPC  H10R 7408   1.238   2.251   7.458 -0.1249  2.9508 -0.9975
   80SLPC  C211 7409   1.417   2.213   7.591  0.7401  1.0935  0.0701
   80SLPC  H11R 7410   1.526   2.196   7.579  0.4629 -0.3080 -0.6528
   80SLPC  H11S 7411   1.377   2.116   7.628  1.6453  0.5240 -0.4229
   80SLPC  C212 7412   1.401   2.310   7.706 -0.2272  0.2647 -0.1145
   80SLPC  H12R 7413   1.337   2.398   7.689  0.9964  1.1497 -0.3394
   80SLPC  C213 7414   1.453   2.295   7.827  0.6168  0.2475 -0.7315
   80SLPC  H13R 7415   1.427   2.368   7.905 -1.3396 -0.2539 -0.8505
   80SLPC  C214 7416   1.535   2.185   7.890 -0.4329 -0.1524  0.4112
   80SLPC  H14R 7417   1.644   2.194   7.871 -0.8576  1.4910 -1.6934
   80SLPC  H14S 7418   1.510   2.081   7.859  2.1107 -0.6062 -0.3414
   80SLPC  C215 7419   1.513   2.170   8.043 -0.5876 -0.9210 -0.2078
   80SLPC  H15R 7420   1.556   2.258   8.095 -1.2628  0.2744 -1.6136
   80SLPC  H15S 7421   1.582   2.085   8.065  2.6817  1.5310 -0.1792
   80SLPC  C216 7422   1.366   2.139   8.085 -0.3484  0.5042  0.6517
   80SLPC  H16R 7423   1.321   2.063   8.017 -0.4472  1.7138 -0.6805
   80SLPC  H16S 7424   1.302   2.229   8.071 -0.3136  0.6162  1.1684
   80SLPC  C217 7425   1.365   2.081   8.225  0.0134  0.2814  0.4567
   80SLPC  H17R 7426   1.413   2.152   8.297 -0.5909  3.1228 -1.7693
   80SLPC  H17S 7427   1.428   1.989   8.233 -1.8854 -1.1001  0.0445
   80SLPC  C218 7428   1.222   2.060   8.287 -0.4591  0.1696 -0.1276
   80SLPC  H18R 7429   1.150   2.006   8.221  0.1291 -1.2545  0.3632
   80SLPC  H18S 7430   1.179   2.161   8.307 -1.1825 -0.5251  2.0209
   80SLPC  H18T 7431   1.231   2.013   8.387 -1.9258  1.2742  0.5536
   80SLPC   C33 7432   2.024   2.193   7.084 -0.3498  0.0712 -0.2857
   80SLPC   H3X 7433   2.066   2.281   7.030  0.1282  1.1547  1.7425
   80SLPC   H3Y 7434   2.106   2.118   7.073 -0.0272  0.4471 -0.4815
   80SLPC   C34 7435   1.999   2.230   7.234  0.2628  0.7338  0.3897
   80SLPC   H4X 7436   1.943   2.154   7.291 -0.0794  1.9026  1.6770
   80SLPC   H4Y 7437   1.931   2.318   7.227 -0.1986  0.3441  0.0083
   80SLPC   C35 7438   2.121   2.295   7.310 -0.3505  1.5226  0.4549
   80SLPC   H5X 7439   2.174   2.356   7.233  1.9806 -0.9647 -0.0773
   80SLPC   H5Y 7440   2.183   2.214   7.354 -2.7076 -0.5846  0.0957
   80SLPC   C36 7441   2.073   2.370   7.435 -0.1813  0.5863  0.0518
   80SLPC   H6X 7442   2.009   2.445   7.384  2.0962  2.7440  0.1139
   80SLPC   H6Y 7443   2.159   2.418   7.487 -1.2507  1.3191  1.1923
   80SLPC   C37 7444   1.981   2.286   7.533 -0.0339 -0.3109  0.2832
   80SLPC   H7X 7445   1.956   2.185   7.495 -0.6688 -0.4201  0.9571
   80SLPC   H7Y 7446   1.885   2.340   7.551 -0.5981 -1.2661  0.1569
   80SLPC   C38 7447   2.045   2.267   7.675 -0.9300  0.4611 -0.5589
   80SLPC   H8X 7448   2.091   2.363   7.708 -2.7834  2.0128 -2.2394
   80SLPC   H8Y 7449   2.129   2.201   7.645  0.4608  1.4028  1.1260
   80SLPC   C39 7450   1.949   2.211   7.788 -0.4125  1.2270  0.0432
   80SLPC   H9X 7451   1.909   2.116   7.746  1.0289  0.4050  0.4906
   80SLPC   H9Y 7452   1.869   2.282   7.818 -0.2088  2.1554 -1.4844
   80SLPC  C310 7453   2.022   2.170   7.919  0.9128  0.1832  0.1188
   80SLPC  H10X 7454   2.076   2.254   7.966 -1.1441  0.4433  2.2207
   80SLPC  H10Y 7455   2.096   2.089   7.900  0.9969  0.2285  0.2561
   80SLPC  C311 7456   1.922   2.112   8.022 -1.1432  0.0274  0.1332
   80SLPC  H11X 7457   1.859   2.032   7.977 -2.2435  1.1027 -0.2894
   80SLPC  H11Y 7458   1.847   2.194   8.025 -0.7269  0.4339 -0.4394
   80SLPC  C312 7459   1.987   2.082   8.157 -0.3433 -0.2379 -0.0088
   80SLPC  H12X 7460   2.072   2.148   8.186  0.6435 -2.2022  1.8966
   80SLPC  H12Y 7461   2.030   1.980   8.141  1.0265  0.3364 -0.1294
   80SLPC  C313 7462   1.903   2.086   8.285  0.4909  0.0699 -0.2417
   80SLPC  H13X 7463   1.976   2.052   8.361  2.5706 -0.8598 -2.5219
   80SLPC  H13Y 7464   1.820   2.013   8.273 -1.2618  1.4720  2.3274
   80SLPC  C314 7465   1.856   2.221   8.327 -0.2909 -0.3132 -1.1744
   80SLPC  H14X 7466   1.819   2.274   8.236  0.3382 -0.6490 -1.6327
   80SLPC  H14Y 7467   1.934   2.281   8.378 -1.5725  1.6010 -1.3410
   80SLPC  C315 7468   1.731   2.203   8.424 -0.5760 -0.2659 -0.3390
   80SLPC  H15X 7469   1.774   2.142   8.505  2.3314  0.5773 -1.1198
   80SLPC  H15Y 7470   1.653   2.142   8.373 -1.2131  0.1722  0.0896
   80SLPC  C316 7471   1.676   2.344   8.454  0.7153 -0.1304 -0.4828
   80SLPC  H16X 7472   1.616   2.373   8.365  2.1473  0.4368 -1.2837
   80SLPC  H16Y 7473   1.755   2.418   8.478  0.2253 -0.3886  2.2338
   80SLPC  C317 7474   1.592   2.346   8.580 -0.7404  0.5703  0.0599
   80SLPC  H17X 7475   1.567   2.453   8.599  1.1050  1.3793 -1.6388
   80SLPC  H17Y 7476   1.655   2.314   8.665 -0.0572 -1.2561 -1.0645
   80SLPC  C318 7477   1.468   2.250   8.580 -0.7159 -0.0853 -0.4092
   80SLPC  H18X 7478   1.507   2.149   8.554 -1.8415  0.1872 -3.5770
   80SLPC  H18Y 7479   1.393   2.280   8.504  1.4507  0.5634 -2.4199
   80SLPC  H18Z 7480   1.424   2.243   8.682  0.6032  0.9693  0.2530
   81SAPS     N 7481   2.506   4.009  11.186 -0.4033 -0.1939 -0.2220
   81SAPS   HN1 7482   2.449   4.049  11.264  0.8952  2.4808 -0.5259
   81SAPS   HN2 7483   2.589   4.070  11.175 -0.1979 -0.4531 -0.1360
   81SAPS   HN3 7484   2.450   4.008  11.099 -1.9074 -3.0529  0.6514
   81SAPS   C12 7485   2.549   3.868  11.217  0.4970 -0.0307 -0.0368
   81SAPS  H12A 7486   2.602   3.866  11.311 -1.0760 -1.1944  0.8771
   81SAPS   C13 7487   2.427   3.778  11.223 -0.1566 -0.7086 -1.0033
   81SAPS  O13A 7488   2.312   3.823  11.212  0.3872 -0.9692 -0.6580
   81SAPS  O13B 7489   2.446   3.664  11.271 -0.3591 -0.0226 -0.5728
   81SAPS   C11 7490   2.647   3.827  11.097  0.6046 -0.1255 -0.1391
   81SAPS  H11A 7491   2.575   3.848  11.015 -1.0788 -0.8798  1.0879
   81SAPS  H11B 7492   2.671   3.719  11.112 -2.1695 -0.7640  0.3812
   81SAPS     P 7493   2.890   3.873  11.021  0.3584  0.1343 -0.0680
   81SAPS   O13 7494   2.989   3.972  11.065  0.0927 -0.3666  0.6001
   81SAPS   O14 7495   2.929   3.732  11.024 -0.2455 -0.0109  0.3929
   81SAPS   O12 7496   2.758   3.914  11.095  0.0772 -0.0880 -0.5472
   81SAPS   O11 7497   2.866   3.902  10.876  0.0523  0.2535  0.4187
   81SAPS    C1 7498   2.798   4.030  10.837  0.9906  0.3230 -0.4617
   81SAPS    HA 7499   2.692   4.036  10.870  1.0787 -1.1288  0.2024
   81SAPS    HB 7500   2.847   4.117  10.885  0.9102 -0.2557  0.7252
   81SAPS    C2 7501   2.782   4.038  10.678  0.0785  0.3549 -0.8042
   81SAPS    HS 7502   2.715   3.953  10.654  0.8625  0.5426 -4.0138
   81SAPS   O21 7503   2.911   4.053  10.617  0.2580  0.3560  1.1168
   81SAPS   C21 7504   2.955   3.953  10.542 -0.5167 -0.8130  0.4779
   81SAPS   O22 7505   2.898   3.848  10.515  0.0224 -0.1969  0.2074
   81SAPS   C22 7506   3.105   3.983  10.499 -0.7976 -0.4434 -0.9450
   81SAPS   H2R 7507   3.163   3.997  10.593  0.4735  1.4715 -1.9517
   81SAPS   H2S 7508   3.136   3.890  10.447  0.6405  0.4700 -1.7985
   81SAPS    C3 7509   2.709   4.164  10.641  0.2345  0.1693 -0.1896
   81SAPS    HX 7510   2.764   4.247  10.689 -0.6984 -0.1422  1.5018
   81SAPS    HY 7511   2.605   4.171  10.680  0.1990  0.5345 -0.3563
   81SAPS   O31 7512   2.705   4.184  10.494 -0.1342 -0.1171 -0.4513
   81SAPS   C31 7513   2.607   4.128  10.428 -0.2532 -1.1374  0.0164
   81SAPS   O32 7514   2.546   4.034  10.469 -0.3018  0.0941  0.4886
   81SAPS   C32 7515   2.573   4.204  10.293  0.0664  0.6393 -0.7124
   81SAPS   H2X 7516   2.663   4.259  10.258  0.6511 -1.3448 -2.5452
   81SAPS   H2Y 7517   2.491   4.274  10.320  0.9212  0.8552  1.4710
   81SAPS   C23 7518   3.112   4.107  10.406 -0.2201 -0.3522  0.1730
   81SAPS   H3R 7519   3.204   4.115  10.344 -0.2461  2.0677  0.3731
   81SAPS   H3S 7520   3.102   4.201  10.464 -0.4021 -0.8239  0.9243
   81SAPS   C24 7521   3.004   4.107  10.300 -0.4606 -0.0114  0.5684
   81SAPS   H4R 7522   3.019   4.200  10.240  1.0927 -1.8972 -2.1999
   81SAPS   H4S 7523   2.907   4.111  10.354  0.1195  1.4528  1.5841
   81SAPS   C25 7524   3.004   3.988  10.203 -0.2038 -0.2907 -0.5693
   81SAPS   H5R 7525   2.924   3.916  10.225 -0.0594 -0.1874  0.3523
   81SAPS   C26 7526   3.082   3.987  10.097 -0.1432  0.6935 -0.1419
   81SAPS   H6R 7527   3.083   3.889  10.047  1.4281 -1.2220  3.2152
   81SAPS   C27 7528   3.188   4.089  10.063 -0.5692  0.1714 -0.0651
   81SAPS   H7R 7529   3.202   4.171  10.138 -0.2116  0.4103 -0.3872
   81SAPS   H7S 7530   3.165   4.137   9.966  1.9357 -2.2389 -2.0220
   81SAPS   C28 7531   3.327   4.021  10.044  0.0643 -0.2318 -0.0224
   81SAPS   H8R 7532   3.369   4.002  10.144 -1.8887 -1.2228  0.6618
   81SAPS   C29 7533   3.400   3.998   9.931  0.1095  0.4699  0.0189
   81SAPS   H9R 7534   3.497   3.946   9.934 -0.0919  0.1017  0.3040
   81SAPS  C210 7535   3.353   4.026   9.796  0.4745 -0.9708 -0.2296
   81SAPS  H10R 7536   3.432   4.055   9.724  0.2037 -1.6451 -0.8091
   81SAPS  H10S 7537   3.295   4.121   9.806  1.7857 -0.1643 -0.1122
   81SAPS  C211 7538   3.265   3.919   9.736 -0.1152 -0.4480  0.0782
   81SAPS  H11R 7539   3.278   3.814   9.766 -0.1025 -0.7950 -1.0887
   81SAPS  C212 7540   3.169   3.940   9.646  0.1130  0.3212 -0.5847
   81SAPS  H12R 7541   3.113   3.854   9.606  1.9854 -1.4182  0.3586
   81SAPS  C213 7542   3.132   4.076   9.596  0.4174  0.0227 -0.3711
   81SAPS  H13R 7543   3.223   4.139   9.584  0.7862 -0.1534  1.3425
   81SAPS  H13S 7544   3.085   4.139   9.674  0.6984  1.7933 -1.5613
   81SAPS  C214 7545   3.053   4.090   9.471  0.1959  0.2263 -0.0756
   81SAPS  H14R 7546   2.951   4.130   9.482  0.5082  1.5364 -1.5106
   81SAPS  C215 7547   3.089   4.065   9.342  0.5856  0.0637 -0.4799
   81SAPS  H15R 7548   3.023   4.070   9.254 -1.0621 -1.2223  0.6204
   81SAPS  C216 7549   3.227   4.013   9.304 -0.3674 -0.6397  0.4866
   81SAPS  H16R 7550   3.235   3.904   9.286 -1.0630 -0.4807 -0.8855
   81SAPS  H16S 7551   3.306   4.037   9.379  0.4534 -0.5373 -0.3940
   81SAPS  C217 7552   3.261   4.086   9.178 -0.2447 -0.2208  0.6213
   81SAPS  H17R 7553   3.369   4.082   9.155 -0.8682  0.2395 -2.9964
   81SAPS  H17S 7554   3.234   4.193   9.171  0.5469 -0.0283  0.5301
   81SAPS  C218 7555   3.196   4.026   9.051  1.2184  0.1049  0.1174
   81SAPS  H18R 7556   3.100   4.079   9.031  2.0941  1.3479 -0.9864
   81SAPS  H18S 7557   3.169   3.921   9.074 -0.4618  0.0128 -1.9232
   81SAPS  C219 7558   3.280   4.043   8.933 -0.0226  0.3559  0.8858
   81SAPS  H19R 7559   3.247   3.976   8.851  1.7699  0.6211 -0.1095
   81SAPS  H19S 7560   3.384   4.012   8.957 -0.3913  0.0815  2.2468
   81SAPS  C220 7561   3.297   4.182   8.872  0.1195 -0.6893  0.5659
   81SAPS  H20R 7562   3.212   4.218   8.811  0.5885  0.6676  0.6861
   81SAPS  H20S 7563   3.396   4.193   8.823  0.3784  1.5018  1.4699
   81SAPS  H20T 7564   3.303   4.258   8.953  1.1946  1.1091 -1.1384
   81SAPS   C33 7565   2.545   4.113  10.173  1.2775 -0.0265  0.5014
   81SAPS   H3X 7566   2.514   4.183  10.092  1.7880 -1.2208 -0.7729
   81SAPS   H3Y 7567   2.461   4.040  10.183  1.3885 -0.0789  1.0673
   81SAPS   C34 7568   2.677   4.042  10.135  0.2317  0.7865 -0.0829
   81SAPS   H4X 7569   2.704   3.983  10.226 -1.9420  0.7162  0.5597
   81SAPS   H4Y 7570   2.749   4.127  10.126  0.8964  0.2614  0.1772
   81SAPS   C35 7571   2.686   3.963  10.004  0.4624 -0.6446  0.5019
   81SAPS   H5X 7572   2.599   3.894   9.997 -0.8072  1.0267 -2.2171
   81SAPS   H5Y 7573   2.777   3.901   9.996 -2.2336 -4.8841 -0.8907
   81SAPS   C36 7574   2.664   4.046   9.878 -0.5645 -0.6303 -1.0714
   81SAPS   H6X 7575   2.731   4.135   9.876 -0.9463 -0.0608  2.9448
   81SAPS   H6Y 7576   2.559   4.082   9.890 -0.3231 -0.5274  1.1122
   81SAPS   C37 7577   2.688   3.961   9.753 -0.1138  0.4993  0.2075
   81SAPS   H7X 7578   2.614   3.879   9.745  0.6919 -0.1253 -1.0209
   81SAPS   H7Y 7579   2.791   3.922   9.759 -0.1516  0.2569 -0.5908
   81SAPS   C38 7580   2.670   4.045   9.635 -0.2847 -0.3436 -0.7583
   81SAPS   H8X 7581   2.748   4.124   9.641 -0.0946 -0.5387 -0.5793
   81SAPS   H8Y 7582   2.569   4.089   9.631 -2.3545 -4.4796  0.5765
   81SAPS   C39 7583   2.674   3.954   9.510  0.5644  0.2370 -0.2192
   81SAPS   H9X 7584   2.600   3.871   9.516  0.6055  0.3027  1.4740
   81SAPS   H9Y 7585   2.776   3.912   9.495  0.8964  1.5865 -2.1293
   81SAPS  C310 7586   2.654   4.038   9.386 -0.0299 -0.0436 -0.0523
   81SAPS  H10X 7587   2.735   4.115   9.393 -1.1928  1.2834 -0.5992
   81SAPS  H10Y 7588   2.555   4.087   9.373 -0.2656 -0.9225 -1.9016
   81SAPS  C311 7589   2.682   3.955   9.258 -0.9758  0.3504 -0.4649
   81SAPS  H11X 7590   2.589   3.897   9.239 -0.5597 -0.0603 -1.2908
   81SAPS  H11Y 7591   2.769   3.886   9.260  0.6557  2.3182  0.5916
   81SAPS  C312 7592   2.704   4.031   9.130 -0.2631  0.0051  0.0379
   81SAPS  H12X 7593   2.762   3.971   9.057 -1.4545  0.8048 -1.6345
   81SAPS  H12Y 7594   2.773   4.117   9.146 -0.8315  1.0553 -2.6101
   81SAPS  C313 7595   2.573   4.085   9.076  0.0412 -0.0152  0.2490
   81SAPS  H13X 7596   2.523   4.146   9.154  2.4142  0.8612  1.2072
   81SAPS  H13Y 7597   2.513   3.999   9.040 -1.4478  1.4655 -0.9367
   81SAPS  C314 7598   2.608   4.169   8.948  0.5602  0.7387 -0.1163
   81SAPS  H14X 7599   2.688   4.241   8.974  2.0879 -0.4958 -1.1908
   81SAPS  H14Y 7600   2.512   4.221   8.926 -0.5079 -0.9412  0.3983
   81SAPS  C315 7601   2.643   4.083   8.827  1.4472 -0.0836 -1.0628
   81SAPS  H15X 7602   2.560   4.016   8.795  1.0784 -2.0588  3.3332
   81SAPS  H15Y 7603   2.721   4.009   8.854  2.2792  0.9337 -0.5958
   81SAPS  C316 7604   2.682   4.168   8.708 -0.7663 -0.1777 -0.2269
   81SAPS  H16X 7605   2.727   4.106   8.627 -1.7579 -0.8645 -0.2762
   81SAPS  H16Y 7606   2.752   4.243   8.750 -1.6938  0.8206 -0.4368
   81SAPS  C317 7607   2.558   4.236   8.644 -0.8442 -0.0844  0.2775
   81SAPS  H17X 7608   2.507   4.301   8.718 -0.8837 -0.1379  0.2966
   81SAPS  H17Y 7609   2.486   4.154   8.621  0.4464 -1.7901  1.9876
   81SAPS  C318 7610   2.595   4.321   8.519  0.1469  0.0807 -0.0528
   81SAPS  H18X 7611   2.671   4.399   8.538  0.2504  0.3521 -1.4593
   81SAPS  H18Y 7612   2.501   4.373   8.490 -0.6141 -1.2840 -0.1639
   81SAPS  H18Z 7613   2.617   4.250   8.436 -0.3360 -1.4160  1.0432
   82SAPS     N 7614   6.700   4.469  10.951 -0.3177 -0.5735  0.3141
   82SAPS   HN1 7615   6.668   4.525  10.870  0.4294  0.6257  0.8321
   82SAPS   HN2 7616   6.698   4.530  11.035  3.9005 -1.2777  1.1396
   82SAPS   HN3 7617   6.798   4.439  10.931 -0.4177 -0.0354 -1.1023
   82SAPS   C12 7618   6.613   4.350  10.954 -0.2552 -0.7364 -0.5171
   82SAPS  H12A 7619   6.643   4.291  11.040  2.2266  0.0585 -0.7418
   82SAPS   C13 7620   6.461   4.376  10.976  0.4138 -0.6322 -0.5126
   82SAPS  O13A 7621   6.416   4.491  10.977  0.5604 -0.1397  0.4999
   82SAPS  O13B 7622   6.384   4.273  11.001 -0.1582  0.1077  0.6974
   82SAPS   C11 7623   6.632   4.263  10.830 -0.4225 -0.4516 -0.1524
   82SAPS  H11A 7624   6.598   4.324  10.743  0.8767 -1.3869 -1.3556
   82SAPS  H11B 7625   6.556   4.181  10.829 -1.3234  0.3145  1.5258
   82SAPS     P 7626   6.793   4.122  10.685  0.2065  0.0392 -0.6668
   82SAPS   O13 7627   6.936   4.092  10.675  0.1846 -0.1061  0.3205
   82SAPS   O14 7628   6.708   4.005  10.701  0.0219 -0.2129  0.1114
   82SAPS   O12 7629   6.769   4.212  10.814  0.0753  0.2258  0.0733
   82SAPS   O11 7630   6.748   4.226  10.571  0.1447 -0.1960 -1.2560
   82SAPS    C1 7631   6.848   4.306  10.506 -0.2279  0.6098  0.2759
   82SAPS    HA 7632   6.910   4.369  10.574 -0.8698  0.3850  1.0816
   82SAPS    HB 7633   6.920   4.249  10.444 -1.2909 -0.8228  0.3091
   82SAPS    C2 7634   6.772   4.401  10.411  0.1795  0.5726  0.1207
   82SAPS    HS 7635   6.678   4.440  10.454 -0.2853  0.5474 -0.8371
   82SAPS   O21 7636   6.741   4.334  10.282  0.2699  0.3122 -0.3589
   82SAPS   C21 7637   6.656   4.404  10.208 -0.4776  0.1142 -0.8891
   82SAPS   O22 7638   6.609   4.510  10.244  0.6076  0.0124  0.3285
   82SAPS   C22 7639   6.619   4.317  10.080  0.4939 -0.9506 -0.0834
   82SAPS   H2R 7640   6.687   4.229  10.086  0.7744 -0.8014 -0.9238
   82SAPS   H2S 7641   6.515   4.280  10.094  0.5192 -0.9173  0.2102
   82SAPS    C3 7642   6.872   4.522  10.381  0.2860 -0.1091 -0.6584
   82SAPS    HX 7643   6.887   4.588  10.469 -1.3753 -2.1834  1.2915
   82SAPS    HY 7644   6.832   4.599  10.312  3.4512  2.4389  0.0728
   82SAPS   O31 7645   7.005   4.478  10.337  0.1760 -0.4772 -0.0859
   82SAPS   C31 7646   7.027   4.434  10.215  0.0740  0.7393  0.6922
   82SAPS   O32 7647   6.952   4.451  10.124  0.2269 -0.0775  0.2536
   82SAPS   C32 7648   7.167   4.376  10.211 -0.7547  0.6428  0.8427
   82SAPS   H2X 7649   7.151   4.275  10.169 -0.2925  0.6043  0.7511
   82SAPS   H2Y 7650   7.199   4.367  10.317 -1.9617 -1.7099  1.0687
   82SAPS   C23 7651   6.637   4.393   9.952  0.3499  0.1767  0.1980
   82SAPS   H3R 7652   6.732   4.451   9.945  0.7424 -0.6604 -2.1014
   82SAPS   H3S 7653   6.555   4.468   9.948  0.5462  0.3560 -0.8924
   82SAPS   C24 7654   6.624   4.302   9.827  0.1727  0.6503  0.8124
   82SAPS   H4R 7655   6.524   4.252   9.825  1.2157 -1.5361  0.0276
   82SAPS   H4S 7656   6.708   4.231   9.845  0.1222 -0.2509 -2.0781
   82SAPS   C25 7657   6.635   4.385   9.700 -0.0416  0.0894 -0.7954
   82SAPS   H5R 7658   6.634   4.492   9.724  0.0301 -0.2013  0.5674
   82SAPS   C26 7659   6.651   4.344   9.572 -0.0992  0.2148  0.0677
   82SAPS   H6R 7660   6.658   4.419   9.492  0.0473 -2.0616 -2.1620
   82SAPS   C27 7661   6.661   4.201   9.518 -0.5406  0.6088 -0.1295
   82SAPS   H7R 7662   6.756   4.154   9.552 -1.4069 -0.0715  1.4529
   82SAPS   H7S 7663   6.661   4.210   9.408  0.2952  1.6476 -0.0596
   82SAPS   C28 7664   6.559   4.094   9.548  0.2783 -0.3849 -0.4097
   82SAPS   H8R 7665   6.492   4.119   9.631  0.4280  1.0193 -0.6828
   82SAPS   C29 7666   6.536   3.985   9.476  0.0412  0.1842 -0.4436
   82SAPS   H9R 7667   6.445   3.928   9.502 -0.1401  0.8633  0.4766
   82SAPS  C210 7668   6.621   3.938   9.356 -0.4853 -0.6626  0.4329
   82SAPS  H10R 7669   6.602   4.024   9.288  0.5389  0.3716  1.4142
   82SAPS  H10S 7670   6.571   3.850   9.311 -1.5848 -0.4268  1.1412
   82SAPS  C211 7671   6.766   3.921   9.372 -0.0208 -0.0972  0.0087
   82SAPS  H11R 7672   6.801   3.974   9.462 -2.8005 -0.5418  1.4631
   82SAPS  C212 7673   6.858   3.859   9.299 -0.2861  0.1831  0.1486
   82SAPS  H12R 7674   6.961   3.859   9.337  0.2956 -1.3177 -1.2986
   82SAPS  C213 7675   6.836   3.797   9.164 -0.6126 -0.3746  0.5936
   82SAPS  H13R 7676   6.734   3.752   9.164 -1.6612  1.8839  0.8983
   82SAPS  H13S 7677   6.908   3.712   9.160  0.3898  0.4757 -0.0369
   82SAPS  C214 7678   6.860   3.911   9.063 -0.3661  0.5177 -0.1015
   82SAPS  H14R 7679   6.778   3.984   9.062 -1.5979 -0.8269 -0.9263
   82SAPS  C215 7680   6.964   3.927   8.984  0.1836 -0.2214  0.4991
   82SAPS  H15R 7681   6.967   4.024   8.932  0.6536  0.5522  1.9121
   82SAPS  C216 7682   7.078   3.832   8.965  0.4015 -0.4690  0.1052
   82SAPS  H16R 7683   7.100   3.772   9.055 -1.9446  0.0519  1.0864
   82SAPS  H16S 7684   7.163   3.895   8.932  1.0729 -0.0953  2.3850
   82SAPS  C217 7685   7.061   3.733   8.850 -0.0224  0.1368 -0.4362
   82SAPS  H17R 7686   7.067   3.782   8.751  2.4794  0.1588 -0.3307
   82SAPS  H17S 7687   6.979   3.658   8.858  0.8598 -0.9909 -1.6875
   82SAPS  C218 7688   7.195   3.638   8.850  0.7863 -0.2337  0.8091
   82SAPS  H18R 7689   7.199   3.581   8.945  0.2755 -2.8085 -0.6076
   82SAPS  H18S 7690   7.289   3.692   8.826  0.8987 -0.3025  1.0917
   82SAPS  C219 7691   7.185   3.524   8.747  0.2087  0.7841  0.1098
   82SAPS  H19R 7692   7.286   3.489   8.715 -0.3657 -1.3775  0.4921
   82SAPS  H19S 7693   7.136   3.553   8.652 -1.3524 -0.9390  0.3172
   82SAPS  C220 7694   7.116   3.397   8.796  0.6716  0.2135  0.5216
   82SAPS  H20R 7695   7.096   3.333   8.708 -0.2536  0.0240  0.8637
   82SAPS  H20S 7696   7.021   3.424   8.848 -1.1177 -0.1183 -2.3989
   82SAPS  H20T 7697   7.181   3.350   8.874 -1.0962 -0.5990  1.5623
   82SAPS   C33 7698   7.256   4.462  10.120  0.4561 -0.0781 -0.0061
   82SAPS   H3X 7699   7.276   4.568  10.145  0.4323 -0.1563  0.3538
   82SAPS   H3Y 7700   7.222   4.459  10.014  1.2879  1.1866 -0.3312
   82SAPS   C34 7701   7.386   4.390  10.106 -0.3991 -0.8771  0.0837
   82SAPS   H4X 7702   7.374   4.285  10.070  1.7166 -1.0538 -0.2147
   82SAPS   H4Y 7703   7.429   4.368  10.206  2.6316  2.3496 -0.3263
   82SAPS   C35 7704   7.494   4.459  10.032 -0.0524  0.4839  0.8671
   82SAPS   H5X 7705   7.588   4.401  10.039 -0.1439 -0.0306 -1.5005
   82SAPS   H5Y 7706   7.516   4.564  10.060  1.0296  0.8409 -1.1510
   82SAPS   C36 7707   7.469   4.468   9.882 -0.1451 -0.3399 -0.1393
   82SAPS   H6X 7708   7.546   4.536   9.840  1.5039 -1.8248  0.3577
   82SAPS   H6Y 7709   7.373   4.521   9.862  0.0597 -0.3676 -1.2395
   82SAPS   C37 7710   7.470   4.333   9.802 -0.4079  0.0752 -0.4003
   82SAPS   H7X 7711   7.390   4.270   9.846 -1.9534  1.5846 -0.9443
   82SAPS   H7Y 7712   7.568   4.284   9.821 -0.4125  0.8923  2.0949
   82SAPS   C38 7713   7.448   4.351   9.652 -0.2809  0.1934 -0.0881
   82SAPS   H8X 7714   7.362   4.421   9.639  0.7122  1.5754  0.4974
   82SAPS   H8Y 7715   7.422   4.259   9.595  0.4804 -0.7329  1.0052
   82SAPS   C39 7716   7.566   4.417   9.579  0.2439 -0.7102  0.0071
   82SAPS   H9X 7717   7.658   4.355   9.580  0.8904  0.2330  0.6546
   82SAPS   H9Y 7718   7.586   4.516   9.625 -0.6051 -0.5473  0.0512
   82SAPS  C310 7719   7.547   4.438   9.425  0.4458  0.9519 -0.3408
   82SAPS  H10X 7720   7.456   4.493   9.393  0.8410  1.8208  0.0142
   82SAPS  H10Y 7721   7.528   4.334   9.390 -0.5242  1.1631 -0.4674
   82SAPS  C311 7722   7.663   4.485   9.350  0.4358 -0.2827  0.4117
   82SAPS  H11X 7723   7.758   4.429   9.359  0.1210 -1.0806 -0.9541
   82SAPS  H11Y 7724   7.692   4.584   9.392  0.8895  0.2645 -1.1086
   82SAPS  C312 7725   7.632   4.507   9.199  0.1078  0.4900  0.4053
   82SAPS  H12X 7726   7.667   4.608   9.173  0.5668  0.0484 -0.7581
   82SAPS  H12Y 7727   7.523   4.493   9.180 -0.1082  2.9840 -0.5981
   82SAPS  C313 7728   7.698   4.404   9.102 -0.5298  0.5165  0.7017
   82SAPS  H13X 7729   7.621   4.328   9.078 -0.3331  0.8556 -1.1703
   82SAPS  H13Y 7730   7.783   4.350   9.149 -2.4580 -2.1252  1.4449
   82SAPS  C314 7731   7.754   4.445   8.959  0.4169  0.1620 -0.4899
   82SAPS  H14X 7732   7.780   4.350   8.908 -1.3933 -0.6467 -0.0256
   82SAPS  H14Y 7733   7.843   4.510   8.972  0.7032 -0.3400  0.1226
   82SAPS  C315 7734   7.636   4.499   8.871  0.0920  0.1741 -0.3115
   82SAPS  H15X 7735   7.633   4.603   8.912 -1.4974  0.6049 -1.4294
   82SAPS  H15Y 7736   7.542   4.441   8.887 -1.0201  1.1628 -2.7391
   82SAPS  C316 7737   7.665   4.501   8.719  0.0477 -0.5037  0.0289
   82SAPS  H16X 7738   7.712   4.402   8.700  0.8839  0.0944 -1.0842
   82SAPS  H16Y 7739   7.740   4.576   8.689  1.6858 -1.1762  2.1524
   82SAPS  C317 7740   7.537   4.496   8.627 -0.3098 -0.0367  0.0913
   82SAPS  H17X 7741   7.485   4.593   8.620 -1.8950 -0.9406 -1.4025
   82SAPS  H17Y 7742   7.470   4.420   8.672 -0.7860 -0.7073 -1.6637
   82SAPS  C318 7743   7.573   4.448   8.484  0.3529 -0.2573  0.4661
   82SAPS  H18X 7744   7.484   4.413   8.428  0.6522  2.3052 -1.8054
   82SAPS  H18Y 7745   7.636   4.357   8.494 -0.3041 -0.8580 -0.6515
   82SAPS  H18Z 7746   7.621   4.528   8.423 -1.5033 -0.2806 -1.1073
   83SAPS     N 7747   1.825   5.561  11.514 -0.1790  0.3083  0.2441
   83SAPS   HN1 7748   1.879   5.649  11.520 -0.4121  0.4773 -0.1145
   83SAPS   HN2 7749   1.734   5.571  11.464 -0.3562  0.8054  0.6593
   83SAPS   HN3 7750   1.813   5.516  11.607  0.8038 -2.1382 -0.7285
   83SAPS   C12 7751   1.899   5.457  11.437 -0.1281 -0.1807 -0.0336
   83SAPS  H12A 7752   1.998   5.465  11.478 -0.6040 -0.8457  1.3222
   83SAPS   C13 7753   1.830   5.320  11.463  0.2258  0.0525  0.1324
   83SAPS  O13A 7754   1.721   5.309  11.531  0.5978 -0.5251  0.5219
   83SAPS  O13B 7755   1.890   5.218  11.420 -0.6839 -1.2574  0.1235
   83SAPS   C11 7756   1.886   5.503  11.291 -0.2824 -0.4606  0.1441
   83SAPS  H11A 7757   1.785   5.539  11.262  0.3098  0.9398 -0.2823
   83SAPS  H11B 7758   1.899   5.414  11.225  0.1944  0.3624 -0.8982
   83SAPS     P 7759   2.129   5.553  11.201  0.1278 -0.2633 -0.1238
   83SAPS   O13 7760   2.232   5.653  11.237 -0.2504 -0.3937  0.0183
   83SAPS   O14 7761   2.156   5.416  11.246 -0.8145  0.4297 -0.0611
   83SAPS   O12 7762   1.989   5.600  11.267 -0.1157 -0.5980 -0.1328
   83SAPS   O11 7763   2.092   5.557  11.052  0.4243  0.3806 -0.0214
   83SAPS    C1 7764   1.999   5.653  11.001 -0.0211 -0.1972 -0.0112
   83SAPS    HA 7765   1.901   5.602  11.001  1.5484 -3.7779 -3.2860
   83SAPS    HB 7766   1.991   5.747  11.059  1.7293  0.8185 -1.2955
   83SAPS    C2 7767   2.034   5.701  10.855 -0.1328  0.0957 -0.3021
   83SAPS    HS 7768   1.952   5.768  10.821  2.0439  2.3694 -1.4345
   83SAPS   O21 7769   2.057   5.595  10.760 -0.0812  0.5783  0.3966
   83SAPS   C21 7770   1.967   5.506  10.741  0.1786 -0.1544  0.7899
   83SAPS   O22 7771   1.851   5.501  10.782 -0.1223 -0.0919 -0.4473
   83SAPS   C22 7772   2.035   5.389  10.667 -0.0594 -0.4987  0.9926
   83SAPS   H2R 7773   2.122   5.425  10.609  0.2559 -0.8975  1.2194
   83SAPS   H2S 7774   2.073   5.320  10.745 -0.5588 -1.6489  0.2452
   83SAPS    C3 7775   2.158   5.788  10.870  0.1447 -0.3572 -0.1826
   83SAPS    HX 7776   2.234   5.722  10.918  1.3476  1.4245  0.5025
   83SAPS    HY 7777   2.120   5.873  10.931  1.5289 -0.4585  0.8704
   83SAPS   O31 7778   2.202   5.838  10.743 -0.3254 -0.1713 -0.4646
   83SAPS   C31 7779   2.328   5.870  10.741  0.2738 -0.4458 -0.5237
   83SAPS   O32 7780   2.413   5.853  10.826  0.2729  0.3109 -0.2029
   83SAPS   C32 7781   2.365   5.907  10.596 -0.3323  0.0882  0.3886
   83SAPS   H2X 7782   2.279   5.962  10.552 -0.0170 -1.8086 -2.9156
   83SAPS   H2Y 7783   2.378   5.813  10.538 -0.2430  1.7542 -2.4821
   83SAPS   C23 7784   1.940   5.314  10.567  0.3601  0.5626  0.1676
   83SAPS   H3R 7785   1.891   5.384  10.496 -1.0241  0.6457  1.1421
   83SAPS   H3S 7786   1.862   5.268  10.631  0.4169  1.3510  0.8201
   83SAPS   C24 7787   2.011   5.206  10.481  0.2013 -0.0898 -0.1939
   83SAPS   H4R 7788   2.054   5.123  10.542 -2.3118 -0.2893  1.4705
   83SAPS   H4S 7789   2.095   5.242  10.419  0.9220 -1.9405 -0.3514
   83SAPS   C25 7790   1.902   5.148  10.391 -0.0668  0.5195  0.2658
   83SAPS   H5R 7791   1.811   5.125  10.450  0.8458 -0.8190  1.2074
   83SAPS   C26 7792   1.905   5.117  10.256  0.1400 -0.1596  0.2151
   83SAPS   H6R 7793   1.816   5.086  10.200  1.2386 -1.6010 -0.7924
   83SAPS   C27 7794   2.021   5.140  10.165  0.3054  0.3320  0.1626
   83SAPS   H7R 7795   2.054   5.246  10.166  4.8280 -0.8281 -1.9307
   83SAPS   H7S 7796   1.989   5.117  10.062  1.4755 -3.2212  0.4756
   83SAPS   C28 7797   2.149   5.060  10.187  0.0569 -0.1182 -0.6358
   83SAPS   H8R 7798   2.184   5.060  10.291  0.8386 -1.6376 -0.8776
   83SAPS   C29 7799   2.235   5.013  10.095  0.3760 -0.5064 -0.1842
   83SAPS   H9R 7800   2.319   4.953  10.133  1.6354  2.3554  1.9384
   83SAPS  C210 7801   2.227   5.026   9.943 -0.2691  0.5522 -0.0310
   83SAPS  H10R 7802   2.137   5.084   9.914 -0.4794 -0.5128 -1.5977
   83SAPS  H10S 7803   2.212   4.921   9.914 -0.0556  0.4960  0.0563
   83SAPS  C211 7804   2.339   5.070   9.858  0.4863 -0.2180 -0.4696
   83SAPS  H11R 7805   2.428   5.109   9.910  1.1466 -0.3293 -1.4786
   83SAPS  C212 7806   2.352   5.084   9.720  0.2434  0.9856 -0.1434
   83SAPS  H12R 7807   2.452   5.106   9.682  0.3565 -0.0275 -0.4701
   83SAPS  C213 7808   2.242   5.052   9.621  0.1408 -0.0653 -0.3068
   83SAPS  H13R 7809   2.267   5.111   9.530 -0.7409  1.6027  0.4940
   83SAPS  H13S 7810   2.149   5.094   9.665 -0.8079 -1.2254 -1.1366
   83SAPS  C214 7811   2.225   4.900   9.607  0.5459  0.5415 -0.3445
   83SAPS  H14R 7812   2.196   4.850   9.701 -0.1948 -0.9841 -1.3557
   83SAPS  C215 7813   2.252   4.829   9.497  0.4364  0.2238  0.0631
   83SAPS  H15R 7814   2.244   4.720   9.502 -1.2944  0.3682  1.0855
   83SAPS  C216 7815   2.302   4.875   9.362  0.4101  0.1228  0.6266
   83SAPS  H16R 7816   2.403   4.837   9.338 -1.6050 -3.1793 -4.0489
   83SAPS  H16S 7817   2.304   4.986   9.361 -0.8582  0.1905  1.6905
   83SAPS  C217 7818   2.204   4.828   9.249  0.6274 -0.0235 -0.6179
   83SAPS  H17R 7819   2.104   4.876   9.262  1.4883  1.5249  0.6928
   83SAPS  H17S 7820   2.176   4.723   9.272 -1.7640  0.5179 -0.7799
   83SAPS  C218 7821   2.258   4.822   9.105  0.2744  0.5555  0.1970
   83SAPS  H18R 7822   2.205   4.743   9.048  0.6966 -0.5852  1.3175
   83SAPS  H18S 7823   2.360   4.779   9.116 -0.4847 -1.1328  1.1563
   83SAPS  C219 7824   2.249   4.957   9.031  0.4578 -0.1286  0.4396
   83SAPS  H19R 7825   2.283   5.039   9.097 -2.1100  1.0508  0.3726
   83SAPS  H19S 7826   2.144   4.984   9.011  1.0047  0.6627 -1.5662
   83SAPS  C220 7827   2.329   4.958   8.902  0.5134  0.4494  0.1225
   83SAPS  H20R 7828   2.431   4.915   8.904 -0.0413 -1.1184 -1.9036
   83SAPS  H20S 7829   2.344   5.059   8.858 -1.1147  0.2339 -0.9979
   83SAPS  H20T 7830   2.273   4.900   8.826 -0.2744  3.8027 -2.0901
   83SAPS   C33 7831   2.486   5.992  10.586 -0.4095  0.0643 -0.3530
   83SAPS   H3X 7832   2.561   5.955  10.660  0.7227 -2.1581 -2.4525
   83SAPS   H3Y 7833   2.454   6.095  10.613  1.3578  1.0533 -1.7176
   83SAPS   C34 7834   2.563   5.980  10.447 -0.0792  1.0267 -0.0887
   83SAPS   H4X 7835   2.655   6.042  10.458  0.4129  0.2312  0.3842
   83SAPS   H4Y 7836   2.506   6.013  10.358  0.1949 -0.1340 -0.7192
   83SAPS   C35 7837   2.611   5.838  10.427  0.3755 -0.7169  0.3042
   83SAPS   H5X 7838   2.523   5.790  10.379 -0.0716  0.0837  0.3256
   83SAPS   H5Y 7839   2.635   5.791  10.525 -0.6325 -3.5779 -0.7182
   83SAPS   C36 7840   2.742   5.822  10.345 -0.2076 -0.4794 -0.6678
   83SAPS   H6X 7841   2.782   5.719  10.353 -0.5885 -0.5453  0.6556
   83SAPS   H6Y 7842   2.818   5.893  10.384  0.3815 -0.5167 -1.7371
   83SAPS   C37 7843   2.722   5.841  10.197  0.8365  0.3605  0.6356
   83SAPS   H7X 7844   2.700   5.945  10.164 -0.4061 -0.2817 -0.6416
   83SAPS   H7Y 7845   2.630   5.785  10.169 -0.3410  2.3546  0.3340
   83SAPS   C38 7846   2.850   5.795  10.123 -0.3353 -0.9528 -0.0118
   83SAPS   H8X 7847   2.875   5.689  10.146  0.9148 -0.6533  0.0508
   83SAPS   H8Y 7848   2.928   5.858  10.171 -0.5239  2.2605 -3.4420
   83SAPS   C39 7849   2.854   5.822   9.966 -0.7743 -0.5385  0.2576
   83SAPS   H9X 7850   2.805   5.744   9.904 -0.3140 -1.2426  0.7589
   83SAPS   H9Y 7851   2.960   5.839   9.940 -1.3146  1.6032 -0.8256
   83SAPS  C310 7852   2.798   5.958   9.925  0.6841  0.1854 -0.7891
   83SAPS  H10X 7853   2.849   6.034   9.988  1.0051 -0.7418  0.0867
   83SAPS  H10Y 7854   2.688   5.950   9.943  0.9871 -2.1735  0.4868
   83SAPS  C311 7855   2.831   5.981   9.777 -0.6048  0.6495 -0.4172
   83SAPS  H11X 7856   2.935   5.955   9.748 -1.0949 -0.7261 -1.0580
   83SAPS  H11Y 7857   2.815   6.090   9.760  1.0344  1.6501  3.4033
   83SAPS  C312 7858   2.730   5.903   9.686 -0.0820  0.2608 -0.1595
   83SAPS  H12X 7859   2.658   5.846   9.748 -0.0488  1.1305  0.6995
   83SAPS  H12Y 7860   2.785   5.826   9.627  0.5995  0.1757  0.5706
   83SAPS  C313 7861   2.655   5.996   9.590 -0.0592  0.1501 -0.1326
   83SAPS  H13X 7862   2.615   6.080   9.650  1.0247  3.2378 -3.3766
   83SAPS  H13Y 7863   2.573   5.942   9.539  1.3835 -2.3310  0.0099
   83SAPS  C314 7864   2.744   6.051   9.482 -0.0975  0.4518  0.6502
   83SAPS  H14X 7865   2.772   5.980   9.402 -0.1613  1.6896 -0.5096
   83SAPS  H14Y 7866   2.840   6.074   9.533  1.9902 -1.9328 -1.8653
   83SAPS  C315 7867   2.675   6.159   9.399 -0.3999 -0.4480  0.3886
   83SAPS  H15X 7868   2.642   6.235   9.473  1.0083 -0.5305  1.1378
   83SAPS  H15Y 7869   2.573   6.125   9.370 -1.1901 -0.2555  2.7811
   83SAPS  C316 7870   2.759   6.216   9.287 -0.2974  0.1791  0.2406
   83SAPS  H16X 7871   2.805   6.131   9.232 -1.4498 -1.9664  2.3805
   83SAPS  H16Y 7872   2.841   6.279   9.327 -1.1037  0.8205  0.9337
   83SAPS  C317 7873   2.680   6.313   9.199  0.4875 -0.6798  0.7896
   83SAPS  H17X 7874   2.641   6.390   9.269 -0.3145 -0.0975 -0.2877
   83SAPS  H17Y 7875   2.598   6.253   9.154 -0.0734 -0.1835  1.1384
   83SAPS  C318 7876   2.763   6.372   9.089 -0.0767 -0.0681 -0.4974
   83SAPS  H18X 7877   2.727   6.470   9.053 -0.8290 -0.0685  0.2115
   83SAPS  H18Y 7878   2.755   6.294   9.010  0.3142 -0.8050  0.1715
   83SAPS  H18Z 7879   2.871   6.380   9.115 -0.5406 -0.7675  1.9915
   84SAPS     N 7880   4.457   4.668  11.199 -0.5208  0.1853  0.1820
   84SAPS   HN1 7881   4.427   4.631  11.291  0.3962  2.1473  1.3263
   84SAPS   HN2 7882   4.556   4.645  11.178 -0.3440  1.3966 -0.4185
   84SAPS   HN3 7883   4.446   4.771  11.204  2.0543  0.6859 -2.2094
   84SAPS   C12 7884   4.380   4.627  11.074  0.2200  0.1306  0.6045
   84SAPS  H12A 7885   4.383   4.519  11.066  1.4666  0.2554 -1.0631
   84SAPS   C13 7886   4.235   4.657  11.084 -0.2939  0.2952  0.2109
   84SAPS  O13A 7887   4.185   4.679  11.199 -0.0515  0.4646  0.1257
   84SAPS  O13B 7888   4.159   4.624  10.988 -0.1240  0.6159 -0.6173
   84SAPS   C11 7889   4.436   4.697  10.943 -0.2260 -0.5032  0.8080
   84SAPS  H11A 7890   4.375   4.660  10.858  1.6274  1.3345 -1.4391
   84SAPS  H11B 7891   4.543   4.667  10.937 -0.6527 -1.8350 -1.7916
   84SAPS     P 7892   4.527   4.956  10.918 -0.1430  0.2904  0.3551
   84SAPS   O13 7893   4.516   5.050  11.027  0.7712  0.3517  0.8417
   84SAPS   O14 7894   4.662   4.890  10.893 -0.0319  0.1410 -0.5582
   84SAPS   O12 7895   4.420   4.839  10.950 -0.2953 -0.4893 -0.2139
   84SAPS   O11 7896   4.470   5.028  10.787 -0.3754  0.5045  0.3044
   84SAPS    C1 7897   4.338   4.991  10.738 -0.0326 -0.1575  0.3871
   84SAPS    HA 7898   4.271   4.970  10.824 -0.4879  0.4511  0.1864
   84SAPS    HB 7899   4.301   5.081  10.685 -0.4227 -1.0566 -0.9302
   84SAPS    C2 7900   4.332   4.876  10.636 -0.0890 -0.0625 -0.1728
   84SAPS    HS 7901   4.409   4.799  10.660 -0.2091  0.1392  0.8904
   84SAPS   O21 7902   4.340   4.931  10.502 -1.0960 -0.0735 -0.4314
   84SAPS   C21 7903   4.397   4.848  10.415  0.0101  0.0025 -0.1912
   84SAPS   O22 7904   4.455   4.744  10.435 -0.0074  0.2621 -0.7340
   84SAPS   C22 7905   4.360   4.900  10.273 -0.0409  0.4934 -0.3823
   84SAPS   H2R 7906   4.254   4.933  10.274  0.2514  1.4769 -0.5928
   84SAPS   H2S 7907   4.425   4.988  10.257 -1.5572  1.9433  1.0859
   84SAPS    C3 7908   4.198   4.811  10.651  0.4925  0.1676 -0.0457
   84SAPS    HX 7909   4.112   4.880  10.653  0.6743  0.4373 -1.1859
   84SAPS    HY 7910   4.198   4.773  10.755  1.6512  4.5954  1.8100
   84SAPS   O31 7911   4.187   4.689  10.567  1.0431 -0.0000 -0.3397
   84SAPS   C31 7912   4.108   4.704  10.461  0.3642  0.2280 -0.5356
   84SAPS   O32 7913   4.043   4.805  10.439  0.7143 -0.6557  0.2891
   84SAPS   C32 7914   4.095   4.579  10.371  0.2343  0.0751  0.3180
   84SAPS   H2X 7915   4.101   4.488  10.433  1.0099 -0.4307 -0.4785
   84SAPS   H2Y 7916   4.190   4.572  10.313  1.2706  0.1421  1.9551
   84SAPS   C23 7917   4.388   4.779  10.170  0.7102 -0.4284  0.2207
   84SAPS   H3R 7918   4.330   4.687  10.196 -1.2870 -0.1201 -2.6696
   84SAPS   H3S 7919   4.495   4.748  10.180  0.6694 -1.7478 -2.4495
   84SAPS   C24 7920   4.338   4.808  10.029  0.0490 -0.2162 -0.3636
   84SAPS   H4R 7921   4.305   4.914  10.036  1.5666  0.1990  1.1864
   84SAPS   H4S 7922   4.253   4.745   9.996 -1.2797  1.2541  0.1193
   84SAPS   C25 7923   4.450   4.795   9.935 -0.5547 -0.2446  0.2511
   84SAPS   H5R 7924   4.543   4.758   9.980 -0.9189 -0.2974  0.9740
   84SAPS   C26 7925   4.460   4.805   9.801 -0.0645 -0.7084  0.4954
   84SAPS   H6R 7926   4.559   4.792   9.755  0.1548 -2.7379  1.4252
   84SAPS   C27 7927   4.350   4.835   9.702  0.6522  0.2888  0.3714
   84SAPS   H7R 7928   4.255   4.792   9.740  0.1289  1.2394  0.1777
   84SAPS   H7S 7929   4.367   4.773   9.611  2.1505 -0.2595  0.9965
   84SAPS   C28 7930   4.336   4.986   9.666  0.2031 -0.0910 -0.1824
   84SAPS   H8R 7931   4.342   5.047   9.757 -1.0562  2.4290 -1.6756
   84SAPS   C29 7932   4.324   5.048   9.549  0.0001 -0.0846 -0.3895
   84SAPS   H9R 7933   4.290   5.153   9.556 -0.4595 -0.2822  0.5026
   84SAPS  C210 7934   4.326   4.978   9.413  0.0302  0.3725 -0.0353
   84SAPS  H10R 7935   4.228   4.970   9.363 -0.8449 -2.0899  1.9269
   84SAPS  H10S 7936   4.356   4.871   9.417  0.9049  0.6597  2.5742
   84SAPS  C211 7937   4.427   5.061   9.339  0.4250  0.0934  0.3390
   84SAPS  H11R 7938   4.517   5.097   9.392  0.0741 -2.1719  2.6823
   84SAPS  C212 7939   4.425   5.090   9.208 -0.2222  0.4278 -0.1425
   84SAPS  H12R 7940   4.500   5.158   9.164 -1.1866  0.9919 -0.9653
   84SAPS  C213 7941   4.314   5.057   9.108  0.6972 -0.3250 -0.4821
   84SAPS  H13R 7942   4.222   5.027   9.163  0.5512 -1.4678 -1.3136
   84SAPS  H13S 7943   4.345   4.965   9.054  0.0970 -0.6373 -0.3141
   84SAPS  C214 7944   4.272   5.170   9.018 -0.2192 -0.5007  0.6382
   84SAPS  H14R 7945   4.188   5.237   9.041 -0.5918 -0.8253  0.2225
   84SAPS  C215 7946   4.335   5.194   8.900  0.1301 -0.6069 -0.5021
   84SAPS  H15R 7947   4.299   5.272   8.830  0.7435 -1.9645 -2.4117
   84SAPS  C216 7948   4.455   5.122   8.843 -0.1110 -0.0892  0.3568
   84SAPS  H16R 7949   4.503   5.055   8.918 -0.8684 -0.2500  0.7070
   84SAPS  H16S 7950   4.527   5.200   8.812  0.2944 -0.6154 -0.0398
   84SAPS  C217 7951   4.420   5.035   8.727 -0.4756 -0.2338 -0.2369
   84SAPS  H17R 7952   4.373   5.090   8.643 -1.5547  1.6505  1.5187
   84SAPS  H17S 7953   4.341   4.965   8.764 -0.2651 -1.1628 -1.4775
   84SAPS  C218 7954   4.537   4.940   8.682  0.7895  0.2931 -0.0304
   84SAPS  H18R 7955   4.592   4.916   8.775 -2.4927  0.8236  2.1813
   84SAPS  H18S 7956   4.600   5.000   8.612  1.8942 -1.5178 -0.6777
   84SAPS  C219 7957   4.478   4.808   8.617 -0.0983 -0.5551 -0.1336
   84SAPS  H19R 7958   4.418   4.841   8.530  0.4453  2.3682  0.4970
   84SAPS  H19S 7959   4.404   4.764   8.687  0.0956 -1.4788 -0.4952
   84SAPS  C220 7960   4.591   4.715   8.569 -0.1078 -0.6244 -0.2965
   84SAPS  H20R 7961   4.654   4.716   8.661 -0.1863  0.7312 -0.2427
   84SAPS  H20S 7962   4.654   4.758   8.488  1.3459 -1.0902  0.5391
   84SAPS  H20T 7963   4.548   4.619   8.534  0.2696 -0.6595 -0.6743
   84SAPS   C33 7964   3.969   4.593  10.287 -0.0722  0.0303  0.0115
   84SAPS   H3X 7965   3.885   4.638  10.345 -0.1644  1.1496 -0.9642
   84SAPS   H3Y 7966   3.944   4.488  10.263 -0.2915  0.0087  0.3228
   84SAPS   C34 7967   3.988   4.665  10.155 -0.7748  0.4061  0.0506
   84SAPS   H4X 7968   4.046   4.593  10.093  1.1988  1.1420  0.9494
   84SAPS   H4Y 7969   4.053   4.753  10.174  2.0705 -1.5644  0.2085
   84SAPS   C35 7970   3.859   4.708  10.112  0.3339  0.0212  0.2123
   84SAPS   H5X 7971   3.824   4.792  10.175  0.4056 -0.3985  0.8184
   84SAPS   H5Y 7972   3.786   4.626  10.127  1.6664 -0.8930  2.0765
   84SAPS   C36 7973   3.842   4.735   9.960 -0.4582 -0.1156 -0.2726
   84SAPS   H6X 7974   3.839   4.640   9.901 -0.1405 -0.3879  0.1427
   84SAPS   H6Y 7975   3.927   4.798   9.927  0.1845 -1.6417 -1.7292
   84SAPS   C37 7976   3.712   4.812   9.928  0.5086 -0.6408 -0.4623
   84SAPS   H7X 7977   3.691   4.885  10.008 -1.6567 -0.0930 -1.4595
   84SAPS   H7Y 7978   3.629   4.739   9.930  0.4381 -0.5851 -1.1468
   84SAPS   C38 7979   3.714   4.889   9.792 -0.2352  0.5672  0.4096
   84SAPS   H8X 7980   3.761   4.987   9.812  1.4686 -0.2711  0.6795
   84SAPS   H8Y 7981   3.610   4.912   9.760  0.2880  1.7928 -0.5067
   84SAPS   C39 7982   3.771   4.812   9.670  0.1534  0.0264 -1.4371
   84SAPS   H9X 7983   3.736   4.706   9.674 -0.1259  0.1293  1.3300
   84SAPS   H9Y 7984   3.880   4.795   9.678  0.1989  0.5326 -0.8095
   84SAPS  C310 7985   3.740   4.870   9.534  0.2559 -1.0161  0.3764
   84SAPS  H10X 7986   3.789   4.970   9.534 -0.4233 -0.6762 -0.2311
   84SAPS  H10Y 7987   3.631   4.886   9.521  0.3360 -1.1409 -0.5630
   84SAPS  C311 7988   3.797   4.778   9.422  0.7290  0.2117  0.3746
   84SAPS  H11X 7989   3.746   4.679   9.415 -3.1943  2.0185  0.4947
   84SAPS  H11Y 7990   3.903   4.771   9.452  0.8034 -3.0712 -0.2383
   84SAPS  C312 7991   3.793   4.834   9.276  0.2249  0.5963  0.2921
   84SAPS  H12X 7992   3.875   4.783   9.220  0.7478  2.1221 -0.4055
   84SAPS  H12Y 7993   3.821   4.941   9.279  1.6129  0.2830 -0.5389
   84SAPS  C313 7994   3.657   4.807   9.203  0.1760  1.0688  0.0930
   84SAPS  H13X 7995   3.641   4.876   9.118 -2.8286  0.2991 -0.0786
   84SAPS  H13Y 7996   3.568   4.815   9.269 -0.5311  2.4967 -1.0023
   84SAPS  C314 7997   3.660   4.673   9.120 -0.1130 -0.1839 -0.5088
   84SAPS  H14X 7998   3.635   4.594   9.193 -1.1782  2.1516  1.7900
   84SAPS  H14Y 7999   3.757   4.673   9.065 -0.7217  0.2442 -1.6105
   84SAPS  C315 8000   3.548   4.674   9.016 -0.2366  0.1889  0.2815
   84SAPS  H15X 8001   3.573   4.751   8.940 -0.1359 -1.1477 -1.0881
   84SAPS  H15Y 8002   3.456   4.707   9.069  1.6108  3.7279  1.6725
   84SAPS  C316 8003   3.540   4.536   8.948  0.0906 -0.2857  0.3518
   84SAPS  H16X 8004   3.460   4.538   8.871 -1.1477 -0.0412  1.6039
   84SAPS  H16Y 8005   3.516   4.454   9.019  0.6824 -0.6943  0.0904
   84SAPS  C317 8006   3.669   4.476   8.893  0.1365  0.1175  0.7948
   84SAPS  H17X 8007   3.728   4.443   8.981 -0.3493 -1.2146  0.6330
   84SAPS  H17Y 8008   3.729   4.550   8.835  1.5992  0.8186  3.0634
   84SAPS  C318 8009   3.639   4.352   8.804  0.4258 -0.9188 -0.4148
   84SAPS  H18X 8010   3.735   4.314   8.763  0.6290  0.6116 -1.4535
   84SAPS  H18Y 8011   3.573   4.395   8.725  1.3323  0.2589 -0.5638
   84SAPS  H18Z 8012   3.593   4.266   8.858 -1.1707  1.0255  1.5294
   85SAPS     N 8013   2.078   6.119  11.283 -0.6215  0.0935 -0.3730
   85SAPS   HN1 8014   2.169   6.119  11.232 -1.1270  0.1291 -1.3065
   85SAPS   HN2 8015   2.094   6.129  11.385  0.8423 -0.3073 -0.5442
   85SAPS   HN3 8016   2.019   6.036  11.262 -1.8222  0.6311  0.7759
   85SAPS   C12 8017   2.006   6.237  11.231  0.7162  0.0620 -0.1006
   85SAPS  H12A 8018   1.905   6.244  11.269  0.8312  0.4606  0.1374
   85SAPS   C13 8019   2.056   6.370  11.296 -0.7960 -0.2308  0.3047
   85SAPS  O13A 8020   2.127   6.360  11.402  0.0860  0.3415  0.0181
   85SAPS  O13B 8021   2.006   6.485  11.270  0.4529  0.2028  0.2410
   85SAPS   C11 8022   2.014   6.241  11.077  0.1656 -0.7459  0.3946
   85SAPS  H11A 8023   2.123   6.249  11.055  0.3159  1.7971  1.6522
   85SAPS  H11B 8024   1.956   6.326  11.036 -0.2040 -0.9569  0.4804
   85SAPS     P 8025   1.841   6.107  10.921 -0.4562  0.1146  0.2244
   85SAPS   O13 8026   1.838   5.963  10.872  0.0848 -0.4276  0.6568
   85SAPS   O14 8027   1.715   6.146  10.982  0.2711  0.1263 -0.3490
   85SAPS   O12 8028   1.956   6.124  11.022 -0.7863  0.0663 -0.3774
   85SAPS   O11 8029   1.884   6.195  10.802  0.1284  0.1988 -0.0922
   85SAPS    C1 8030   2.016   6.200  10.755 -0.6496 -0.0633 -0.1733
   85SAPS    HA 8031   2.047   6.306  10.765  1.4989 -0.5945 -0.7148
   85SAPS    HB 8032   2.089   6.143  10.816  1.7489  0.4272 -2.4208
   85SAPS    C2 8033   2.021   6.145  10.607 -0.1878 -0.0174  0.2592
   85SAPS    HS 8034   2.127   6.145  10.571 -1.2686  2.2334 -3.4497
   85SAPS   O21 8035   1.944   6.243  10.531  0.1859  0.0866 -0.5225
   85SAPS   C21 8036   2.009   6.348  10.483  0.4940  0.4380 -0.0031
   85SAPS   O22 8037   2.123   6.379  10.511 -0.3361 -0.0155 -0.2922
   85SAPS   C22 8038   1.917   6.433  10.396  0.3060 -0.8167  0.0548
   85SAPS   H2R 8039   1.815   6.390  10.392  0.4260 -1.1821  0.7992
   85SAPS   H2S 8040   1.918   6.533  10.446 -1.7638 -1.5629  1.7066
   85SAPS    C3 8041   1.954   6.014  10.584  0.4799  0.3403 -1.1527
   85SAPS    HX 8042   1.846   6.026  10.607  0.8664  1.7898  0.0571
   85SAPS    HY 8043   1.992   5.945  10.662  2.2778  1.4585 -1.0073
   85SAPS   O31 8044   1.981   5.968  10.451 -0.1830 -0.7573  0.0467
   85SAPS   C31 8045   1.901   5.864  10.431 -0.2147  0.6160 -0.3821
   85SAPS   O32 8046   1.833   5.814  10.517  0.0188  0.5619 -0.3748
   85SAPS   C32 8047   1.904   5.822  10.288  0.6483  0.3768 -0.7636
   85SAPS   H2X 8048   1.894   5.906  10.216  0.2765  0.6474 -0.3968
   85SAPS   H2Y 8049   1.814   5.763  10.261  0.6752  0.8319 -1.8873
   85SAPS   C23 8050   1.971   6.458  10.253 -0.1673  0.0214 -0.2693
   85SAPS   H3R 8051   1.967   6.375  10.179 -2.3435  0.3467 -0.5624
   85SAPS   H3S 8052   2.076   6.494  10.242  0.4053 -1.8469 -1.6194
   85SAPS   C24 8053   1.878   6.559  10.188 -0.5275  1.1541 -0.4276
   85SAPS   H4R 8054   1.772   6.535  10.211 -0.4804  1.0893 -0.2795
   85SAPS   H4S 8055   1.878   6.543  10.078 -0.0755 -0.2794 -0.2321
   85SAPS   C25 8056   1.912   6.696  10.249  0.4039  0.2757  0.2539
   85SAPS   H5R 8057   1.869   6.706  10.350  2.4573 -2.1248  1.4770
   85SAPS   C26 8058   1.989   6.793  10.198 -0.0006 -0.3556 -0.2767
   85SAPS   H6R 8059   2.001   6.879  10.264 -0.4994 -0.8031  0.4162
   85SAPS   C27 8060   2.063   6.783  10.058 -0.3049 -0.0095 -0.0887
   85SAPS   H7R 8061   2.001   6.717   9.993 -0.1211  0.2114 -0.4897
   85SAPS   H7S 8062   2.169   6.752  10.069  0.4501  2.3179 -0.3227
   85SAPS   C28 8063   2.090   6.910   9.988 -0.3534 -0.9688  0.1143
   85SAPS   H8R 8064   2.125   6.993  10.051  1.1697 -0.0920 -1.8031
   85SAPS   C29 8065   2.068   6.947   9.861  0.2279  1.1086  0.2515
   85SAPS   H9R 8066   2.095   7.050   9.834  2.9517  0.2376 -0.6667
   85SAPS  C210 8067   2.017   6.863   9.749  0.1628 -0.2186  0.1429
   85SAPS  H10R 8068   1.983   6.768   9.794  0.9790  0.3444  2.0600
   85SAPS  H10S 8069   2.104   6.849   9.681 -1.3781  0.4680 -2.0964
   85SAPS  C211 8070   1.897   6.917   9.677  0.0899 -0.4643 -0.6482
   85SAPS  H11R 8071   1.808   6.924   9.741 -0.2760 -3.5095 -0.6881
   85SAPS  C212 8072   1.881   6.938   9.541  0.6607  0.0465 -0.5571
   85SAPS  H12R 8073   1.789   6.986   9.506  1.7827  2.6397 -0.1481
   85SAPS  C213 8074   1.993   6.909   9.439 -0.1416  0.9261 -1.3631
   85SAPS  H13R 8075   1.981   6.802   9.410 -0.2732 -0.1287  2.1985
   85SAPS  H13S 8076   2.098   6.921   9.474 -1.0629 -0.8241  2.4085
   85SAPS  C214 8077   1.972   6.983   9.319  0.1563  0.2132 -0.0395
   85SAPS  H14R 8078   1.938   7.083   9.349 -0.6063 -0.8612  3.0040
   85SAPS  C215 8079   1.999   6.952   9.188  0.0617  0.5659 -0.4102
   85SAPS  H15R 8080   1.974   7.022   9.107 -0.2875  0.1467 -0.6634
   85SAPS  C216 8081   2.058   6.827   9.121  0.4289 -0.1133  0.3345
   85SAPS  H16R 8082   2.047   6.731   9.175 -0.9477  0.3407  0.9206
   85SAPS  H16S 8083   2.168   6.831   9.103  0.5628 -1.0321  0.9236
   85SAPS  C217 8084   1.985   6.798   8.992  0.1551  0.1527  0.0274
   85SAPS  H17R 8085   1.875   6.806   9.005  0.2999  1.7677  0.3886
   85SAPS  H17S 8086   2.011   6.691   8.975  2.1684  0.6079  0.0407
   85SAPS  C218 8087   2.029   6.889   8.872 -0.0286  0.1048 -0.2981
   85SAPS  H18R 8088   2.139   6.884   8.855 -0.1575  0.2673 -1.2270
   85SAPS  H18S 8089   2.014   6.996   8.896 -0.7863  0.1025 -0.7555
   85SAPS  C219 8090   1.952   6.867   8.731  0.2051  0.4025  0.3397
   85SAPS  H19R 8091   1.853   6.917   8.734  0.4101  0.7935  0.7738
   85SAPS  H19S 8092   1.931   6.759   8.712 -3.3829  0.7216  1.7010
   85SAPS  C220 8093   2.027   6.932   8.618  0.1570  0.6269  0.0525
   85SAPS  H20R 8094   2.031   7.043   8.625  0.9864  0.5076  3.1880
   85SAPS  H20S 8095   1.989   6.895   8.521 -1.8242  2.6930 -0.0382
   85SAPS  H20T 8096   2.136   6.911   8.611  0.2326  1.4811 -2.2037
   85SAPS   C33 8097   2.043   5.749  10.263 -0.2795 -0.0947  0.1526
   85SAPS   H3X 8098   2.129   5.818  10.275  0.6069 -1.1960  0.3889
   85SAPS   H3Y 8099   2.041   5.731  10.153 -0.4339  1.3975 -0.1094
   85SAPS   C34 8100   2.047   5.612  10.341 -0.2024  0.7810 -0.0340
   85SAPS   H4X 8101   1.963   5.558  10.291 -1.4734  3.8006 -1.3993
   85SAPS   H4Y 8102   2.028   5.615  10.450 -1.7430 -1.0473 -0.1960
   85SAPS   C35 8103   2.176   5.534  10.314 -0.2901 -0.2482 -0.0981
   85SAPS   H5X 8104   2.160   5.441  10.374  0.6745  0.1066  0.7513
   85SAPS   H5Y 8105   2.266   5.590  10.346 -0.8815  0.5160  0.2508
   85SAPS   C36 8106   2.199   5.498  10.166 -0.2570  0.4500  0.3642
   85SAPS   H6X 8107   2.211   5.589  10.103  0.0619  0.2016  0.0593
   85SAPS   H6Y 8108   2.123   5.442  10.109 -1.0165  1.9074 -0.1094
   85SAPS   C37 8109   2.324   5.417  10.150  0.4264  0.0055 -0.5082
   85SAPS   H7X 8110   2.313   5.326  10.213  0.5495 -0.9423 -1.8086
   85SAPS   H7Y 8111   2.412   5.475  10.186 -1.1537  1.1252  1.7683
   85SAPS   C38 8112   2.342   5.377  10.001  0.4357 -0.2024  0.5543
   85SAPS   H8X 8113   2.242   5.343   9.970  1.6045 -1.9204 -1.6133
   85SAPS   H8Y 8114   2.405   5.286   9.993 -0.2857 -0.5224 -2.4898
   85SAPS   C39 8115   2.392   5.497   9.913 -0.1687 -0.0446 -0.0523
   85SAPS   H9X 8116   2.474   5.548   9.968 -0.8921  1.2388 -0.1307
   85SAPS   H9Y 8117   2.310   5.571   9.902 -0.6205  0.1300  3.4073
   85SAPS  C310 8118   2.451   5.456   9.773  0.1737  0.0720 -0.1076
   85SAPS  H10X 8119   2.377   5.385   9.730  0.4043 -0.3526  0.1941
   85SAPS  H10Y 8120   2.547   5.402   9.786  2.0365  1.5946 -5.1869
   85SAPS  C311 8121   2.481   5.575   9.681  0.4482  0.2004  0.3830
   85SAPS  H11X 8122   2.538   5.655   9.735  2.6768 -1.2993  0.3879
   85SAPS  H11Y 8123   2.383   5.617   9.651  1.2597  0.6365 -1.8575
   85SAPS  C312 8124   2.555   5.535   9.553  0.2305 -0.0376  0.6502
   85SAPS  H12X 8125   2.633   5.468   9.594  0.9322  1.7258  2.4091
   85SAPS  H12Y 8126   2.617   5.622   9.521  0.6153 -0.5017  0.1263
   85SAPS  C313 8127   2.474   5.469   9.449 -0.0562  0.3120 -0.4664
   85SAPS  H13X 8128   2.367   5.499   9.444 -0.2211 -0.2874 -0.7331
   85SAPS  H13Y 8129   2.464   5.359   9.465 -2.3178 -0.1672 -3.9955
   85SAPS  C314 8130   2.542   5.482   9.310  0.0634  0.0974 -0.3281
   85SAPS  H14X 8131   2.649   5.454   9.317 -0.2986 -1.4442 -0.6192
   85SAPS  H14Y 8132   2.527   5.585   9.272  0.1441  0.0300 -0.5443
   85SAPS  C315 8133   2.483   5.390   9.200  0.2974 -0.3467  0.2006
   85SAPS  H15X 8134   2.374   5.409   9.203  0.5556  1.4249 -0.1997
   85SAPS  H15Y 8135   2.494   5.284   9.231  2.6016 -0.2136  0.0007
   85SAPS  C316 8136   2.532   5.420   9.060 -0.2702  0.0725  0.0469
   85SAPS  H16X 8137   2.641   5.398   9.064 -0.4171 -0.7250 -0.0060
   85SAPS  H16Y 8138   2.523   5.530   9.046 -2.6001 -0.1797 -0.9878
   85SAPS  C317 8139   2.475   5.341   8.943  0.3230  0.2735  0.2175
   85SAPS  H17X 8140   2.485   5.231   8.944  0.6345  0.2877 -0.6011
   85SAPS  H17Y 8141   2.517   5.373   8.844  0.4017 -2.3951 -0.6826
   85SAPS  C318 8142   2.324   5.353   8.927 -0.0660  0.5644 -0.6689
   85SAPS  H18X 8143   2.292   5.459   8.918 -2.6350 -0.1480 -0.6501
   85SAPS  H18Y 8144   2.263   5.296   9.000  0.4848  0.4831 -0.2596
   85SAPS  H18Z 8145   2.294   5.301   8.833  0.6007 -0.8738 -0.1134
   86SAPS     N 8146   3.343   6.538  11.042  0.1391  0.1633  0.4215
   86SAPS   HN1 8147   3.409   6.618  11.050 -1.1684  1.3063  0.0902
   86SAPS   HN2 8148   3.302   6.537  10.946  4.3345  3.0921 -1.6918
   86SAPS   HN3 8149   3.267   6.545  11.112  0.3443 -1.5322  0.8546
   86SAPS   C12 8150   3.394   6.405  11.068 -0.4592  0.4171 -0.5325
   86SAPS  H12A 8151   3.454   6.400  11.158 -2.1126  0.3120  0.6025
   86SAPS   C13 8152   3.288   6.298  11.094 -0.3860 -0.0902  0.0166
   86SAPS  O13A 8153   3.167   6.319  11.074 -0.0527 -0.4278 -0.6202
   86SAPS  O13B 8154   3.332   6.184  11.133  0.4769 -0.0506 -0.3299
   86SAPS   C11 8155   3.464   6.350  10.942 -0.5490  0.4074  0.2886
   86SAPS  H11A 8156   3.397   6.352  10.853  1.8888 -0.3106 -1.6755
   86SAPS  H11B 8157   3.501   6.246  10.953 -0.3198  0.5525  0.8748
   86SAPS     P 8158   3.719   6.405  10.937 -0.2822  0.0863 -0.3870
   86SAPS   O13 8159   3.818   6.514  10.900  0.0012  0.4350  0.0406
   86SAPS   O14 8160   3.732   6.358  11.073  0.5609  0.0922 -0.1275
   86SAPS   O12 8161   3.568   6.441  10.908 -0.1607 -0.6690 -0.2208
   86SAPS   O11 8162   3.738   6.271  10.849 -0.2532  0.0048 -0.0366
   86SAPS    C1 8163   3.790   6.273  10.716 -0.0538 -0.5557  0.8916
   86SAPS    HA 8164   3.848   6.366  10.699 -1.6058  0.3640  0.4175
   86SAPS    HB 8165   3.861   6.187  10.712 -2.1810 -2.4365  1.3803
   86SAPS    C2 8166   3.671   6.278  10.608 -0.3145  0.3860 -0.0694
   86SAPS    HS 8167   3.713   6.277  10.505 -0.2261  0.5506 -0.0357
   86SAPS   O21 8168   3.571   6.378  10.630  0.6662 -0.7766 -0.1217
   86SAPS   C21 8169   3.615   6.494  10.582 -0.4088 -0.4680 -0.0881
   86SAPS   O22 8170   3.721   6.503  10.524  0.3158 -0.3817 -0.1253
   86SAPS   C22 8171   3.513   6.610  10.599 -0.2976  0.3106 -0.0038
   86SAPS   H2R 8172   3.425   6.584  10.537  0.7223 -1.8401 -0.6644
   86SAPS   H2S 8173   3.494   6.610  10.708 -0.9678 -1.3945 -0.0928
   86SAPS    C3 8174   3.609   6.138  10.622  0.4835  0.2488 -0.2942
   86SAPS    HX 8175   3.538   6.130  10.707 -0.0358 -0.1963 -0.7700
   86SAPS    HY 8176   3.691   6.064  10.635  0.7266  0.6063  0.2888
   86SAPS   O31 8177   3.536   6.114  10.503  0.3748  0.1527  0.1183
   86SAPS   C31 8178   3.413   6.068  10.511 -0.2397  0.7791  0.3703
   86SAPS   O32 8179   3.327   6.090  10.590  0.6314  0.1226 -0.5512
   86SAPS   C32 8180   3.392   5.977  10.384 -0.5207 -0.2483  0.1278
   86SAPS   H2X 8181   3.331   5.893  10.424  1.7632 -1.9565  0.2463
   86SAPS   H2Y 8182   3.496   5.949  10.357  0.0975  1.4736  0.5670
   86SAPS   C23 8183   3.569   6.738  10.547  0.2814  0.0897  0.4651
   86SAPS   H3R 8184   3.676   6.753  10.573  1.2105 -0.0201 -2.8150
   86SAPS   H3S 8185   3.516   6.824  10.594 -0.2178  1.1743 -1.9201
   86SAPS   C24 8186   3.550   6.760  10.391  0.6779  0.6649 -0.6835
   86SAPS   H4R 8187   3.559   6.868  10.367  3.3145  0.3371 -1.5103
   86SAPS   H4S 8188   3.444   6.733  10.372  0.3474  0.8768  0.7171
   86SAPS   C25 8189   3.634   6.685  10.288  0.5248  0.4346 -1.2247
   86SAPS   H5R 8190   3.740   6.714  10.289  0.7709 -0.4736 -0.7171
   86SAPS   C26 8191   3.585   6.593  10.200  0.0961  0.5461 -0.3859
   86SAPS   H6R 8192   3.665   6.559  10.132  1.3059  0.4728  1.0293
   86SAPS   C27 8193   3.444   6.541  10.177 -0.5189  0.6220  0.7674
   86SAPS   H7R 8194   3.393   6.636  10.150  0.9903  1.2046 -0.1421
   86SAPS   H7S 8195   3.397   6.498  10.268 -0.7567 -0.2007  0.2635
   86SAPS   C28 8196   3.444   6.431  10.069  0.4615 -0.9991 -0.5655
   86SAPS   H8R 8197   3.508   6.345  10.095  1.0159 -0.3120  0.4281
   86SAPS   C29 8198   3.388   6.435   9.949  0.5756 -0.0611  0.5478
   86SAPS   H9R 8199   3.381   6.338   9.898  0.8896 -0.0145  0.4202
   86SAPS  C210 8200   3.305   6.544   9.884  0.2014  0.1599  0.1130
   86SAPS  H10R 8201   3.382   6.594   9.821 -0.8373  1.9848  0.2069
   86SAPS  H10S 8202   3.282   6.627   9.955  2.2912  0.9360 -0.0439
   86SAPS  C211 8203   3.180   6.499   9.814  0.3003 -0.4910  0.1636
   86SAPS  H11R 8204   3.111   6.445   9.881 -0.4646 -0.7573 -0.8157
   86SAPS  C212 8205   3.153   6.510   9.684 -0.0317  0.4001  0.3777
   86SAPS  H12R 8206   3.053   6.480   9.650  1.2056 -2.5720 -0.9753
   86SAPS  C213 8207   3.247   6.566   9.577  0.3839  0.0906  0.4762
   86SAPS  H13R 8208   3.292   6.666   9.595 -1.0220  1.1477 -1.4839
   86SAPS  H13S 8209   3.184   6.595   9.491  0.5822  0.1966  0.3669
   86SAPS  C214 8210   3.363   6.474   9.544  0.5196 -0.3617  0.3405
   86SAPS  H14R 8211   3.403   6.419   9.631  0.2237 -1.8647 -0.4479
   86SAPS  C215 8212   3.422   6.463   9.428  0.1494  0.2808  0.3114
   86SAPS  H15R 8213   3.509   6.398   9.410 -0.8598 -0.4751 -2.2108
   86SAPS  C216 8214   3.389   6.547   9.308 -0.1401 -0.1182 -0.1773
   86SAPS  H16R 8215   3.480   6.525   9.248  2.0347  0.5824  2.6409
   86SAPS  H16S 8216   3.378   6.655   9.330  0.3613 -0.3910  1.6201
   86SAPS  C217 8217   3.277   6.517   9.204  0.5741 -0.1259  1.2918
   86SAPS  H17R 8218   3.185   6.569   9.236 -0.0935  0.2028 -0.9977
   86SAPS  H17S 8219   3.254   6.409   9.196  1.0976 -0.2374  1.2245
   86SAPS  C218 8220   3.290   6.590   9.074  0.0095  0.3345  0.6320
   86SAPS  H18R 8221   3.347   6.525   9.005 -0.2270  0.8831 -0.0978
   86SAPS  H18S 8222   3.344   6.686   9.092  0.6465 -0.2859  2.3004
   86SAPS  C219 8223   3.161   6.632   9.006 -0.2532  0.4533  0.2875
   86SAPS  H19R 8224   3.189   6.713   8.936 -0.8880  0.8977  0.5418
   86SAPS  H19S 8225   3.083   6.671   9.075 -0.6525 -0.1024  0.1587
   86SAPS  C220 8226   3.096   6.520   8.922  0.4097  0.3175  0.3822
   86SAPS  H20R 8227   3.038   6.446   8.981  0.3355 -1.2782 -1.5913
   86SAPS  H20S 8228   3.176   6.459   8.876 -0.9511 -0.0919 -1.5800
   86SAPS  H20T 8229   3.031   6.557   8.839  0.7604 -0.7356 -0.3816
   86SAPS   C33 8230   3.327   6.057  10.276 -0.0743  0.0000 -0.1806
   86SAPS   H3X 8231   3.377   6.153  10.251  1.5503 -0.8594 -0.3339
   86SAPS   H3Y 8232   3.225   6.089  10.307  1.1389  1.4109  2.7045
   86SAPS   C34 8233   3.323   5.978  10.149  0.2687 -0.3834 -0.4417
   86SAPS   H4X 8234   3.234   5.912  10.161 -1.2717  1.4858 -0.8911
   86SAPS   H4Y 8235   3.424   5.933  10.144  1.0187  1.0791  0.9117
   86SAPS   C35 8236   3.282   6.078  10.042  0.5175 -0.0681  1.3656
   86SAPS   H5X 8237   3.368   6.143  10.017  0.7236 -0.3833  1.2438
   86SAPS   H5Y 8238   3.198   6.142  10.075 -1.0686 -1.8252  0.9160
   86SAPS   C36 8239   3.247   6.003   9.919 -0.2379  0.1494  0.0530
   86SAPS   H6X 8240   3.142   5.966   9.914 -0.2082  0.1341 -0.6062
   86SAPS   H6Y 8241   3.310   5.911   9.915  0.7627  0.8175  0.3470
   86SAPS   C37 8242   3.260   6.084   9.785 -0.4496 -0.1476  0.0936
   86SAPS   H7X 8243   3.341   6.159   9.793 -0.2988 -0.2306 -0.6228
   86SAPS   H7Y 8244   3.163   6.139   9.783 -1.7051 -2.1383  1.7136
   86SAPS   C38 8245   3.279   6.001   9.661  0.0518 -0.3943 -0.2200
   86SAPS   H8X 8246   3.193   5.931   9.664  0.5579 -1.0211  2.0549
   86SAPS   H8Y 8247   3.372   5.942   9.675 -0.1929 -0.7426 -0.0332
   86SAPS   C39 8248   3.275   6.087   9.535  0.3127  0.3591  0.6573
   86SAPS   H9X 8249   3.369   6.144   9.522  0.5888 -0.3915 -0.8698
   86SAPS   H9Y 8250   3.193   6.162   9.539 -0.7445 -0.8190  2.0423
   86SAPS  C310 8251   3.247   6.018   9.404  0.0654 -0.8151 -0.0984
   86SAPS  H10X 8252   3.146   5.973   9.413 -0.8814  1.0800 -0.6558
   86SAPS  H10Y 8253   3.330   5.948   9.382  1.0129  0.4733 -0.7511
   86SAPS  C311 8254   3.251   6.125   9.290 -0.2282 -0.5040  0.0566
   86SAPS  H11X 8255   3.358   6.147   9.273 -0.2512 -0.6439 -0.2651
   86SAPS  H11Y 8256   3.198   6.215   9.329  2.5851  1.2626  0.0454
   86SAPS  C312 8257   3.200   6.052   9.166 -0.5731  0.0110  0.2229
   86SAPS  H12X 8258   3.089   6.045   9.162 -0.4805 -0.7715 -2.9971
   86SAPS  H12Y 8259   3.246   5.951   9.167 -0.5133  0.0184  1.8249
   86SAPS  C313 8260   3.228   6.127   9.035 -0.0433 -0.5618  0.3503
   86SAPS  H13X 8261   3.337   6.129   9.012 -0.4601  1.8289 -1.9970
   86SAPS  H13Y 8262   3.206   6.236   9.035 -2.7101 -1.0367  1.1076
   86SAPS  C314 8263   3.154   6.077   8.915 -0.7714 -0.6314  0.0057
   86SAPS  H14X 8264   3.046   6.099   8.928 -1.3482 -3.3310  0.4036
   86SAPS  H14Y 8265   3.184   5.970   8.907  0.0392 -0.4739  0.8580
   86SAPS  C315 8266   3.193   6.157   8.781 -0.7225 -0.7955 -0.0619
   86SAPS  H15X 8267   3.302   6.137   8.781 -0.2509  1.2765 -2.2737
   86SAPS  H15Y 8268   3.164   6.264   8.788  0.3609 -0.3235 -2.0415
   86SAPS  C316 8269   3.124   6.120   8.649 -0.3357 -0.0980 -0.1004
   86SAPS  H16X 8270   3.023   6.166   8.651 -1.8850 -3.3122  0.7882
   86SAPS  H16Y 8271   3.112   6.010   8.646 -4.0207  0.1941 -1.3715
   86SAPS  C317 8272   3.221   6.152   8.532  0.3342  0.9820  0.1820
   86SAPS  H17X 8273   3.310   6.088   8.553  1.3398  2.8065  1.7636
   86SAPS  H17Y 8274   3.256   6.256   8.515 -1.1225  1.6646  1.1928
   86SAPS  C318 8275   3.156   6.097   8.392  1.0377 -0.0524 -0.5319
   86SAPS  H18X 8276   3.209   6.150   8.310 -1.6893  0.4969 -2.0598
   86SAPS  H18Y 8277   3.051   6.132   8.378  1.4238  0.4469 -2.3406
   86SAPS  H18Z 8278   3.160   5.987   8.397 -0.5641 -0.1103  3.1589
   87SAPS     N 8279   2.858   1.769  10.975  0.3833  0.4691 -0.1953
   87SAPS   HN1 8280   2.894   1.752  10.879  0.8487 -0.0938  0.0706
   87SAPS   HN2 8281   2.822   1.676  11.004  1.9484 -0.1903 -0.2520
   87SAPS   HN3 8282   2.783   1.841  10.969 -0.1296 -0.0034  0.3881
   87SAPS   C12 8283   2.965   1.816  11.070 -0.3854  0.2904 -0.1917
   87SAPS  H12A 8284   2.983   1.922  11.061  2.0337 -0.1800 -1.5780
   87SAPS   C13 8285   2.926   1.798  11.218 -0.8625  0.1907  0.3275
   87SAPS  O13A 8286   2.804   1.772  11.248 -0.0393 -0.0177  0.3396
   87SAPS  O13B 8287   2.995   1.881  11.294  0.3101  0.1308  0.3455
   87SAPS   C11 8288   3.088   1.739  11.022  0.3089 -0.1944 -0.2504
   87SAPS  H11A 8289   3.058   1.633  11.013 -2.6674  0.4886  0.4122
   87SAPS  H11B 8290   3.176   1.750  11.088  0.0055 -0.0798  0.1363
   87SAPS     P 8291   3.254   1.717  10.831 -0.6697  0.0586  0.2876
   87SAPS   O13 8292   3.370   1.794  10.885 -0.7089 -0.8175 -0.5772
   87SAPS   O14 8293   3.244   1.575  10.856  0.4710  0.3129 -0.0313
   87SAPS   O12 8294   3.126   1.772  10.883  0.2935 -0.6337 -0.0991
   87SAPS   O11 8295   3.255   1.756  10.672  0.0505 -0.1350 -0.3471
   87SAPS    C1 8296   3.163   1.679  10.597 -0.0177  1.0670  1.2415
   87SAPS    HA 8297   3.085   1.622  10.652 -0.0080 -2.1505 -1.7547
   87SAPS    HB 8298   3.102   1.740  10.527  0.0487  0.0586  0.2830
   87SAPS    C2 8299   3.237   1.576  10.514  0.1158  0.6720  0.3018
   87SAPS    HS 8300   3.303   1.524  10.586 -0.4183  0.0374  0.3454
   87SAPS   O21 8301   3.305   1.653  10.410 -0.8010  0.3798  0.5207
   87SAPS   C21 8302   3.429   1.604  10.380  0.1715 -0.7232 -0.4857
   87SAPS   O22 8303   3.494   1.522  10.444  0.5669 -0.3352 -0.0675
   87SAPS   C22 8304   3.497   1.665  10.253 -0.1695 -0.1268 -0.1339
   87SAPS   H2R 8305   3.459   1.769  10.246 -0.2863 -0.1673 -0.1049
   87SAPS   H2S 8306   3.607   1.669  10.264 -0.1026  0.4389 -0.9441
   87SAPS    C3 8307   3.153   1.469  10.438  0.7569 -0.0524 -0.3923
   87SAPS    HX 8308   3.089   1.525  10.367  2.9117  2.3859 -0.5652
   87SAPS    HY 8309   3.094   1.412  10.513  0.1384 -1.2508 -1.7383
   87SAPS   O31 8310   3.249   1.375  10.373  0.1946 -0.0686 -0.5373
   87SAPS   C31 8311   3.181   1.288  10.295 -0.3500 -0.4912  0.4303
   87SAPS   O32 8312   3.062   1.291  10.276 -0.6471  0.2360  0.5345
   87SAPS   C32 8313   3.270   1.189  10.236 -0.0101  0.6754  0.1582
   87SAPS   H2X 8314   3.255   1.092  10.288 -1.2665  1.0288  0.4829
   87SAPS   H2Y 8315   3.378   1.211  10.253  0.8697 -1.7931 -1.5982
   87SAPS   C23 8316   3.441   1.604  10.117  0.3303  0.4903  0.2323
   87SAPS   H3R 8317   3.339   1.644  10.098 -0.0526  0.4792  2.0221
   87SAPS   H3S 8318   3.447   1.494  10.128 -1.1804  0.5268  1.7588
   87SAPS   C24 8319   3.523   1.641   9.995 -0.3350  0.3111  0.2519
   87SAPS   H4R 8320   3.474   1.589   9.910 -1.7565 -0.1819  1.3329
   87SAPS   H4S 8321   3.626   1.604  10.017  0.5690  2.4440 -0.1576
   87SAPS   C25 8322   3.519   1.787   9.961 -0.0249  0.2993  1.0458
   87SAPS   H5R 8323   3.525   1.850  10.051 -2.8627  1.0450  0.7825
   87SAPS   C26 8324   3.504   1.847   9.838  0.0567 -0.0955  0.1066
   87SAPS   H6R 8325   3.504   1.957   9.840  0.6390 -0.1016  0.4194
   87SAPS   C27 8326   3.489   1.779   9.702 -0.5266 -0.5819  0.0528
   87SAPS   H7R 8327   3.381   1.785   9.675 -0.2135 -0.4858 -1.2470
   87SAPS   H7S 8328   3.510   1.670   9.715 -0.0908 -0.4567  0.4051
   87SAPS   C28 8329   3.576   1.832   9.589  0.1909  0.5887  0.1763
   87SAPS   H8R 8330   3.685   1.836   9.607  0.2319  2.9752 -0.2307
   87SAPS   C29 8331   3.535   1.864   9.468 -0.2190  1.2344  0.1302
   87SAPS   H9R 8332   3.613   1.883   9.393 -0.2024  1.3304  0.1714
   87SAPS  C210 8333   3.394   1.862   9.420  0.2574 -0.6190  0.4900
   87SAPS  H10R 8334   3.348   1.761   9.424  0.3886 -0.6423  2.1672
   87SAPS  H10S 8335   3.395   1.880   9.310 -3.4342 -0.4009  0.3578
   87SAPS  C211 8336   3.313   1.972   9.492  0.3668  0.3359  0.3333
   87SAPS  H11R 8337   3.319   1.960   9.601  0.3484 -1.3122  0.1838
   87SAPS  C212 8338   3.226   2.055   9.439 -0.1942 -0.1458  0.2051
   87SAPS  H12R 8339   3.175   2.128   9.502  0.0255  0.4175 -0.2602
   87SAPS  C213 8340   3.197   2.065   9.290 -0.0421 -0.1798  0.0386
   87SAPS  H13R 8341   3.247   1.981   9.238 -2.8240 -2.3744  0.6359
   87SAPS  H13S 8342   3.247   2.159   9.258  0.2749  0.1128  1.3279
   87SAPS  C214 8343   3.061   2.071   9.228  0.4260  0.1628  0.2428
   87SAPS  H14R 8344   2.980   2.095   9.298 -0.2580  0.2331 -0.5494
   87SAPS  C215 8345   3.029   2.048   9.097 -0.4510 -0.0363  0.2620
   87SAPS  H15R 8346   2.925   2.059   9.062 -1.0156 -1.4243  1.4504
   87SAPS  C216 8347   3.118   2.015   8.977 -0.2454  0.1661 -0.4159
   87SAPS  H16R 8348   3.066   1.938   8.915  2.8518 -1.6582 -0.9207
   87SAPS  H16S 8349   3.209   1.967   9.019 -2.5136 -2.6698  1.7397
   87SAPS  C217 8350   3.150   2.136   8.892 -0.7904  0.1155  0.8571
   87SAPS  H17R 8351   3.238   2.108   8.831 -0.6721 -1.3718  1.6727
   87SAPS  H17S 8352   3.179   2.231   8.943 -1.1959  1.6758 -1.6523
   87SAPS  C218 8353   3.038   2.161   8.799 -1.1214  0.6259  0.8336
   87SAPS  H18R 8354   2.934   2.169   8.838 -1.2333 -2.1007  1.3308
   87SAPS  H18S 8355   3.028   2.064   8.746 -0.3393 -0.2638  2.2401
   87SAPS  C219 8356   3.059   2.270   8.706 -0.4830 -0.5697  0.2187
   87SAPS  H19R 8357   3.153   2.255   8.647  0.5076  0.2146  1.5435
   87SAPS  H19S 8358   3.071   2.362   8.766  0.4724 -1.6595  1.7515
   87SAPS  C220 8359   2.935   2.280   8.616  0.9820  0.1297  0.1295
   87SAPS  H20R 8360   2.855   2.313   8.686  1.1358 -0.3659  0.5431
   87SAPS  H20S 8361   2.903   2.181   8.577  0.2470  1.1921 -2.1416
   87SAPS  H20T 8362   2.946   2.353   8.533  0.2078  3.1659  2.5083
   87SAPS   C33 8363   3.234   1.169  10.082  0.5807 -0.3114 -0.1739
   87SAPS   H3X 8364   3.126   1.144  10.069  0.3945  0.8838 -1.2206
   87SAPS   H3Y 8365   3.278   1.079  10.034 -1.6392 -2.0209  0.8149
   87SAPS   C34 8366   3.263   1.293  10.001 -0.0318  0.1207  0.0235
   87SAPS   H4X 8367   3.369   1.326  10.003 -0.0359  0.2044 -0.9006
   87SAPS   H4Y 8368   3.201   1.380  10.033  0.5137 -0.0382  1.6363
   87SAPS   C35 8369   3.245   1.258   9.854  0.2035  0.0334  0.0720
   87SAPS   H5X 8370   3.142   1.256   9.814  0.7097  0.5872 -1.3205
   87SAPS   H5Y 8371   3.285   1.158   9.827  0.4004 -0.1513  1.0081
   87SAPS   C36 8372   3.317   1.355   9.751 -0.0309  0.0905  0.4801
   87SAPS   H6X 8373   3.425   1.330   9.754  0.3239  1.6133  1.4239
   87SAPS   H6Y 8374   3.308   1.461   9.784 -1.0991 -0.0487  0.6565
   87SAPS   C37 8375   3.270   1.336   9.604 -0.2765 -0.5520  0.4095
   87SAPS   H7X 8376   3.161   1.351   9.586  0.1733 -0.1552 -2.4058
   87SAPS   H7Y 8377   3.293   1.230   9.580  0.3582 -1.1910  3.4497
   87SAPS   C38 8378   3.338   1.430   9.507 -0.9878 -0.2982  0.2993
   87SAPS   H8X 8379   3.443   1.440   9.539 -1.0237 -0.7862  0.5649
   87SAPS   H8Y 8380   3.289   1.530   9.508  0.7226  0.5725 -0.0644
   87SAPS   C39 8381   3.352   1.384   9.366  0.1058 -0.8935  0.6562
   87SAPS   H9X 8382   3.249   1.356   9.336 -1.3711  2.7256  1.7958
   87SAPS   H9Y 8383   3.425   1.302   9.346  1.6675  0.3684  0.9464
   87SAPS  C310 8384   3.380   1.499   9.273  0.5226  0.4215 -0.1110
   87SAPS  H10X 8385   3.474   1.555   9.292  0.2800  0.4111  1.2124
   87SAPS  H10Y 8386   3.297   1.572   9.256  1.5303  1.1352 -2.4242
   87SAPS  C311 8387   3.392   1.455   9.131 -0.3577  0.1937 -0.1262
   87SAPS  H11X 8388   3.289   1.426   9.098 -2.2605  2.1254  3.5180
   87SAPS  H11Y 8389   3.459   1.367   9.123  0.4902  0.7132  1.0781
   87SAPS  C312 8390   3.456   1.567   9.041  0.5609 -0.0892 -0.1286
   87SAPS  H12X 8391   3.564   1.553   9.062  0.7429  0.1767 -0.8346
   87SAPS  H12Y 8392   3.424   1.670   9.069  1.8435  0.6700 -1.2923
   87SAPS  C313 8393   3.437   1.554   8.887  0.2077  0.0026 -0.2331
   87SAPS  H13X 8394   3.510   1.615   8.829 -0.1730  0.4837 -0.2090
   87SAPS  H13Y 8395   3.335   1.574   8.847  0.7711 -0.2918 -1.8828
   87SAPS  C314 8396   3.462   1.408   8.837  0.2535 -0.1533  0.5702
   87SAPS  H14X 8397   3.378   1.345   8.874 -2.4402  2.3856 -0.8796
   87SAPS  H14Y 8398   3.555   1.363   8.879 -0.0502 -1.9303 -0.5562
   87SAPS  C315 8399   3.493   1.413   8.687 -0.0119  0.3240  0.4588
   87SAPS  H15X 8400   3.548   1.322   8.654 -1.3842  0.5804 -2.9930
   87SAPS  H15Y 8401   3.563   1.499   8.675 -1.2306  1.0644 -2.0479
   87SAPS  C316 8402   3.374   1.436   8.594  0.3777  0.0371 -0.4689
   87SAPS  H16X 8403   3.325   1.533   8.617 -3.7506 -2.2554  1.5584
   87SAPS  H16Y 8404   3.306   1.349   8.608  0.0725  0.2918 -0.3687
   87SAPS  C317 8405   3.426   1.431   8.449  0.5110 -0.5542 -0.4452
   87SAPS  H17X 8406   3.516   1.367   8.431  0.9974 -0.5612  1.7404
   87SAPS  H17Y 8407   3.457   1.533   8.418 -0.1541 -0.5081 -0.9729
   87SAPS  C318 8408   3.315   1.398   8.349 -0.5738 -0.0585  0.6020
   87SAPS  H18X 8409   3.363   1.406   8.249 -0.8523 -1.5738  0.3213
   87SAPS  H18Y 8410   3.223   1.461   8.352 -1.3917 -0.9645 -2.2354
   87SAPS  H18Z 8411   3.288   1.291   8.362  1.6364 -0.9924 -1.6875
   88SAPS     N 8412   5.673   4.286  10.823  0.3291  0.0360 -0.5451
   88SAPS   HN1 8413   5.774   4.294  10.800  0.4261  2.2006  0.4308
   88SAPS   HN2 8414   5.652   4.191  10.859  1.5281 -0.6656 -1.6243
   88SAPS   HN3 8415   5.618   4.292  10.735 -0.4401 -2.2259 -0.2930
   88SAPS   C12 8416   5.630   4.408  10.899  0.3811 -0.0936  0.1274
   88SAPS  H12A 8417   5.525   4.426  10.884  0.4394 -0.5317 -0.9010
   88SAPS   C13 8418   5.650   4.405  11.053 -0.2549  0.0405 -0.5467
   88SAPS  O13A 8419   5.753   4.340  11.096  0.0881 -0.4623  0.2729
   88SAPS  O13B 8420   5.597   4.501  11.122 -0.0208 -0.0590  0.0024
   88SAPS   C11 8421   5.708   4.522  10.841 -0.7292 -0.5629  0.3179
   88SAPS  H11A 8422   5.685   4.623  10.881 -1.1055 -0.6434  0.3047
   88SAPS  H11B 8423   5.666   4.533  10.738 -0.8941 -1.4076  0.2859
   88SAPS     P 8424   5.961   4.593  10.873 -0.3972  0.0415 -0.3061
   88SAPS   O13 8425   5.978   4.580  11.024 -0.3827 -0.7900  1.1042
   88SAPS   O14 8426   6.085   4.565  10.798  0.3878  0.4100  0.1990
   88SAPS   O12 8427   5.849   4.495  10.825  0.3768 -0.0108  0.1603
   88SAPS   O11 8428   5.909   4.735  10.840 -0.2326  0.1567 -0.0385
   88SAPS    C1 8429   5.920   4.789  10.706  0.1551  0.3417 -0.5812
   88SAPS    HA 8430   6.010   4.754  10.651 -1.6993 -1.3502 -2.7014
   88SAPS    HB 8431   5.832   4.753  10.649  1.0339 -5.2050  1.0388
   88SAPS    C2 8432   5.920   4.943  10.692 -0.9914  0.1746 -0.1405
   88SAPS    HS 8433   5.848   4.981  10.768 -1.5343  1.2644 -1.1842
   88SAPS   O21 8434   5.882   4.982  10.560 -0.2227  0.0448 -0.0766
   88SAPS   C21 8435   5.829   5.106  10.550  0.4743 -0.1634  0.4375
   88SAPS   O22 8436   5.828   5.190  10.641  0.1583  0.4282 -0.3284
   88SAPS   C22 8437   5.783   5.124  10.410 -0.2254 -0.3040 -0.0010
   88SAPS   H2R 8438   5.871   5.160  10.353  0.8062 -1.6888  0.6342
   88SAPS   H2S 8439   5.756   5.025  10.367  2.6347 -0.1174 -2.5011
   88SAPS    C3 8440   6.063   4.995  10.721 -0.0004 -0.3868 -0.3166
   88SAPS    HX 8441   6.091   4.960  10.823 -2.5727 -0.2308  0.5140
   88SAPS    HY 8442   6.067   5.106  10.728 -0.6547 -0.2999 -1.1257
   88SAPS   O31 8443   6.164   4.943  10.630 -0.0777  0.1919 -0.2892
   88SAPS   C31 8444   6.196   5.015  10.528  0.3429 -0.2953 -0.3268
   88SAPS   O32 8445   6.156   5.131  10.503 -0.0434 -0.5585 -0.4835
   88SAPS   C32 8446   6.304   4.943  10.445  0.7216 -0.0012  0.7241
   88SAPS   H2X 8447   6.259   4.847  10.414 -0.9880  1.5038 -1.7707
   88SAPS   H2Y 8448   6.385   4.923  10.519  0.2937 -0.3867  1.0906
   88SAPS   C23 8449   5.686   5.241  10.388  0.0641  0.3829  0.1568
   88SAPS   H3R 8450   5.715   5.334  10.441  0.3027  0.9164 -0.8949
   88SAPS   H3S 8451   5.586   5.205  10.422 -0.7830  2.1445 -0.3268
   88SAPS   C24 8452   5.656   5.270  10.243  0.1936 -0.2396 -0.3493
   88SAPS   H4R 8453   5.566   5.336  10.250 -0.9645 -1.7256 -0.7559
   88SAPS   H4S 8454   5.631   5.177  10.188  0.2080 -0.3733 -0.1336
   88SAPS   C25 8455   5.764   5.350  10.180 -0.6595  0.4293  0.0301
   88SAPS   H5R 8456   5.847   5.393  10.238  0.2626 -0.4193 -0.6292
   88SAPS   C26 8457   5.756   5.387  10.051  0.0193 -0.1523 -0.3748
   88SAPS   H6R 8458   5.839   5.451  10.018 -0.3817  0.1439 -0.8265
   88SAPS   C27 8459   5.648   5.353   9.945  0.0036 -0.0804  0.9975
   88SAPS   H7R 8460   5.548   5.397   9.961 -0.3024 -0.4530  0.2058
   88SAPS   H7S 8461   5.627   5.244   9.934  2.4524 -0.5517  0.1651
   88SAPS   C28 8462   5.701   5.388   9.808 -0.8790  0.0968  0.1771
   88SAPS   H8R 8463   5.779   5.465   9.800 -0.2756 -0.2710  1.9671
   88SAPS   C29 8464   5.673   5.334   9.686  0.5236  0.2050 -0.1970
   88SAPS   H9R 8465   5.727   5.373   9.599  2.1243 -2.4821 -0.5374
   88SAPS  C210 8466   5.585   5.217   9.647 -0.2514  0.3283 -0.5532
   88SAPS  H10R 8467   5.487   5.253   9.610  0.4762 -0.5614 -3.6363
   88SAPS  H10S 8468   5.569   5.157   9.739  0.6813  0.1866 -0.4735
   88SAPS  C211 8469   5.655   5.131   9.537 -0.0512 -0.6946  0.5745
   88SAPS  H11R 8470   5.719   5.052   9.579  0.1350 -0.3003  1.0380
   88SAPS  C212 8471   5.646   5.149   9.404 -0.1652 -0.1928  0.5629
   88SAPS  H12R 8472   5.687   5.068   9.342 -2.1722 -1.3602  0.6729
   88SAPS  C213 8473   5.580   5.247   9.320 -0.8159  0.5586 -0.0438
   88SAPS  H13R 8474   5.606   5.345   9.366  1.3956 -1.4964  3.5253
   88SAPS  H13S 8475   5.471   5.249   9.339 -0.8479 -0.8158 -0.0362
   88SAPS  C214 8476   5.623   5.252   9.174  0.4874 -0.0820 -0.1108
   88SAPS  H14R 8477   5.726   5.216   9.161  1.0196  0.1164  2.9923
   88SAPS  C215 8478   5.546   5.287   9.068 -0.0793  0.1533 -0.4083
   88SAPS  H15R 8479   5.596   5.287   8.970  1.4481 -0.9334  0.3391
   88SAPS  C216 8480   5.405   5.341   9.065 -0.0544 -0.5069 -0.1690
   88SAPS  H16R 8481   5.409   5.437   9.121  0.2387 -1.3784  1.3775
   88SAPS  H16S 8482   5.337   5.270   9.117  0.8817 -0.9819  0.4400
   88SAPS  C217 8483   5.342   5.384   8.927 -0.2382  0.1978 -0.8704
   88SAPS  H17R 8484   5.419   5.444   8.874  2.0215 -0.0629  1.8648
   88SAPS  H17S 8485   5.251   5.447   8.929 -0.7732 -0.5726  0.5896
   88SAPS  C218 8486   5.299   5.256   8.851 -0.3259  1.2183  0.5317
   88SAPS  H18R 8487   5.214   5.222   8.915 -0.2456  0.9193  0.4805
   88SAPS  H18S 8488   5.376   5.176   8.854 -1.2835  0.2037 -0.7556
   88SAPS  C219 8489   5.258   5.280   8.709  0.0964 -0.5674 -0.2675
   88SAPS  H19R 8490   5.351   5.317   8.661  0.4764  0.0428  0.9119
   88SAPS  H19S 8491   5.191   5.368   8.707  0.8380  0.1569  2.5432
   88SAPS  C220 8492   5.201   5.161   8.645 -0.0828  0.6959  0.1716
   88SAPS  H20R 8493   5.102   5.134   8.686  0.9176 -1.9425  1.1012
   88SAPS  H20S 8494   5.260   5.068   8.664  0.0280  0.0759 -2.6852
   88SAPS  H20T 8495   5.177   5.169   8.536 -1.0012 -2.0096  0.0819
   88SAPS   C33 8496   6.346   5.025  10.323 -0.5113  0.2980 -0.0437
   88SAPS   H3X 8497   6.375   5.131  10.335 -1.8107  0.5400  1.2372
   88SAPS   H3Y 8498   6.254   5.026  10.261 -1.9179  1.6998  1.9656
   88SAPS   C34 8499   6.452   4.958  10.243  0.3145  0.1623 -0.2360
   88SAPS   H4X 8500   6.442   4.995  10.139 -2.0142  0.1309 -0.0737
   88SAPS   H4Y 8501   6.446   4.847  10.237 -0.6890  0.1693  0.3483
   88SAPS   C35 8502   6.596   4.981  10.293  0.4667 -0.0891  1.2001
   88SAPS   H5X 8503   6.597   4.980  10.404  0.7926 -0.1448  1.1968
   88SAPS   H5Y 8504   6.635   5.079  10.258 -2.7779  0.6180 -0.7979
   88SAPS   C36 8505   6.691   4.872  10.242  0.1110 -0.1972  0.5444
   88SAPS   H6X 8506   6.653   4.779  10.291  1.1832 -0.0393  1.7488
   88SAPS   H6Y 8507   6.792   4.889  10.286 -0.8813 -0.2370  3.0203
   88SAPS   C37 8508   6.692   4.852  10.091 -0.6913 -0.3672  0.3835
   88SAPS   H7X 8509   6.650   4.947  10.051 -1.1310 -1.1544 -1.0838
   88SAPS   H7Y 8510   6.618   4.775  10.063 -1.3420 -0.0829  1.2444
   88SAPS   C38 8511   6.825   4.816  10.032 -0.0043  0.5073 -0.3535
   88SAPS   H8X 8512   6.865   4.729  10.088  1.1576  1.6922  0.7450
   88SAPS   H8Y 8513   6.913   4.880  10.057 -0.0344  0.5916 -0.4646
   88SAPS   C39 8514   6.829   4.798   9.878  0.3283  0.4856  0.0766
   88SAPS   H9X 8515   6.875   4.889   9.835  0.0866  0.0966 -1.0527
   88SAPS   H9Y 8516   6.732   4.777   9.828  1.1625  1.4516 -2.0905
   88SAPS  C310 8517   6.929   4.681   9.855  0.9860  0.6682 -0.1174
   88SAPS  H10X 8518   6.896   4.593   9.914 -2.5205  0.6606 -1.7942
   88SAPS  H10Y 8519   7.028   4.703   9.900  0.8818  0.1334  0.3771
   88SAPS  C311 8520   6.950   4.637   9.708 -0.0569  0.9895  0.6392
   88SAPS  H11X 8521   6.986   4.728   9.654  0.4413  1.0732  1.1055
   88SAPS  H11Y 8522   6.865   4.596   9.650  1.6408  0.2210 -1.4347
   88SAPS  C312 8523   7.066   4.532   9.707 -0.2106  0.3677 -0.1814
   88SAPS  H12X 8524   7.147   4.557   9.779  2.4359 -0.2671 -2.7251
   88SAPS  H12Y 8525   7.107   4.519   9.604 -0.9268 -4.3913 -0.1016
   88SAPS  C313 8526   7.001   4.397   9.754 -0.5039 -0.5673 -0.5538
   88SAPS  H13X 8527   6.915   4.374   9.687 -1.7229  2.9967 -0.4006
   88SAPS  H13Y 8528   6.955   4.411   9.855  0.8730  2.2385 -0.2418
   88SAPS  C314 8529   7.098   4.280   9.736 -0.0002  0.2787  0.2788
   88SAPS  H14X 8530   7.195   4.309   9.783  0.3890 -0.8980  0.2219
   88SAPS  H14Y 8531   7.108   4.273   9.625 -2.2519  0.0131  0.0469
   88SAPS  C315 8532   7.036   4.149   9.788  0.0042 -0.3033  0.0073
   88SAPS  H15X 8533   7.077   4.062   9.733  1.5089  0.3451  0.0474
   88SAPS  H15Y 8534   6.932   4.153   9.748  0.6119  1.5967 -1.5537
   88SAPS  C316 8535   7.042   4.133   9.942  0.4924 -0.7389 -0.4846
   88SAPS  H16X 8536   6.995   4.224   9.984 -1.9407 -0.6378 -3.1537
   88SAPS  H16Y 8537   7.150   4.131   9.966  0.2418 -0.2799  0.7500
   88SAPS  C317 8538   6.970   4.008   9.999  0.0328 -0.1760  0.5345
   88SAPS  H17X 8539   6.866   4.009   9.959  1.3979  0.4385 -3.4630
   88SAPS  H17Y 8540   6.966   4.017  10.109 -1.1620 -2.3420  0.7354
   88SAPS  C318 8541   7.011   3.865   9.939 -0.2758 -0.4565 -0.5005
   88SAPS  H18X 8542   7.010   3.857   9.828  1.6588 -1.8172 -0.4806
   88SAPS  H18Y 8543   6.934   3.792   9.970  0.8169 -0.6452  2.0389
   88SAPS  H18Z 8544   7.114   3.832   9.965 -0.0463  0.6550  0.0598
   89SAPS     N 8545   6.091   6.549  10.871  0.3020  0.1552  0.6322
   89SAPS   HN1 8546   6.189   6.574  10.848  0.5324 -2.6551 -2.1324
   89SAPS   HN2 8547   6.080   6.446  10.876  0.7171  0.0261 -0.6502
   89SAPS   HN3 8548   6.043   6.560  10.779  2.3748 -3.8329 -1.1490
   89SAPS   C12 8549   6.026   6.623  10.984  0.4986  0.3798 -0.3634
   89SAPS  H12A 8550   5.925   6.587  10.998  1.1166 -1.6459 -0.7151
   89SAPS   C13 8551   6.098   6.597  11.124  0.3666 -0.5260  0.6241
   89SAPS  O13A 8552   6.202   6.530  11.126 -0.3650  0.0419 -0.7361
   89SAPS  O13B 8553   6.052   6.650  11.229  0.0344 -0.5683 -0.0652
   89SAPS   C11 8554   6.037   6.774  10.950  0.6539  0.1690  0.3800
   89SAPS  H11A 8555   6.143   6.804  10.966  0.9676 -0.3046 -0.6881
   89SAPS  H11B 8556   5.966   6.832  11.012 -1.4427 -3.2341  1.3488
   89SAPS     P 8557   5.979   6.935  10.750  0.2944 -0.5172  0.4830
   89SAPS   O13 8558   5.852   6.991  10.801  0.3122  0.0368  0.0773
   89SAPS   O14 8559   6.104   7.003  10.791 -0.2750  0.2672  0.2240
   89SAPS   O12 8560   5.995   6.790  10.811 -0.3171  0.3199 -0.0478
   89SAPS   O11 8561   5.993   6.936  10.593 -0.1111  0.9615  0.1803
   89SAPS    C1 8562   6.083   6.847  10.528 -0.4661  0.0585 -0.1129
   89SAPS    HA 8563   6.128   6.767  10.591  1.5644  1.6831  0.6309
   89SAPS    HB 8564   6.025   6.784  10.458  0.8848 -0.5883 -0.6902
   89SAPS    C2 8565   6.199   6.925  10.458  0.2548  0.5071  0.1436
   89SAPS    HS 8566   6.236   7.007  10.524  0.7372  1.2929 -1.0586
   89SAPS   O21 8567   6.147   6.994  10.339 -0.2294  0.6460  0.2313
   89SAPS   C21 8568   6.225   7.087  10.291 -0.1843 -0.2629  0.6374
   89SAPS   O22 8569   6.335   7.112  10.326 -0.0205  0.2596 -1.5706
   89SAPS   C22 8570   6.156   7.154  10.171  0.4939  0.1276  0.5279
   89SAPS   H2R 8571   6.067   7.199  10.220  0.0969 -1.7939  1.6849
   89SAPS   H2S 8572   6.229   7.226  10.128  1.9403 -1.0644  0.9027
   89SAPS    C3 8573   6.319   6.829  10.429  0.1034 -0.4476 -0.1976
   89SAPS    HX 8574   6.337   6.771  10.522  0.1362 -0.5041 -0.2387
   89SAPS    HY 8575   6.412   6.880  10.395 -0.1749 -1.4230 -2.6930
   89SAPS   O31 8576   6.292   6.731  10.323 -0.1939 -0.2163 -0.2267
   89SAPS   C31 8577   6.354   6.621  10.325  0.5872  0.3193  0.2851
   89SAPS   O32 8578   6.430   6.586  10.419  0.3307  0.2744  0.4168
   89SAPS   C32 8579   6.319   6.541  10.202  0.4488 -0.4432  0.0974
   89SAPS   H2X 8580   6.212   6.548  10.173  0.6464 -1.8343 -1.1157
   89SAPS   H2Y 8581   6.328   6.436  10.240  0.1525 -0.5880 -0.2322
   89SAPS   C23 8582   6.110   7.055  10.058  0.2732 -0.2106 -0.2809
   89SAPS   H3R 8583   6.051   7.102   9.976 -1.9255 -1.0242  0.7422
   89SAPS   H3S 8584   6.045   6.970  10.087  0.4256 -0.4078 -0.5181
   89SAPS   C24 8585   6.231   7.002   9.984  0.2500 -0.7128  0.2303
   89SAPS   H4R 8586   6.304   6.954  10.053 -0.3578 -1.0685  0.6379
   89SAPS   H4S 8587   6.276   7.092   9.936 -2.7517  1.3776  1.0110
   89SAPS   C25 8588   6.184   6.890   9.892 -0.1903 -0.2080 -0.3737
   89SAPS   H5R 8589   6.148   6.795   9.936  0.2144 -0.0157  0.3854
   89SAPS   C26 8590   6.223   6.862   9.768  0.3111  0.1569 -0.1860
   89SAPS   H6R 8591   6.153   6.788   9.726 -0.5865  1.0203 -0.2549
   89SAPS   C27 8592   6.314   6.939   9.669 -0.2683 -0.3048  0.2474
   89SAPS   H7R 8593   6.394   6.997   9.720  1.1390 -1.9123 -0.0748
   89SAPS   H7S 8594   6.263   7.021   9.613  1.6366  0.6482 -0.1780
   89SAPS   C28 8595   6.402   6.848   9.582 -0.1549  0.3027  0.2193
   89SAPS   H8R 8596   6.477   6.787   9.632 -0.6223 -1.8950 -1.6086
   89SAPS   C29 8597   6.383   6.831   9.447  0.2030  0.3124  0.7930
   89SAPS   H9R 8598   6.448   6.764   9.389  1.1325  1.7842  0.0765
   89SAPS  C210 8599   6.288   6.898   9.350 -0.0634 -0.3094 -0.3808
   89SAPS  H10R 8600   6.340   6.992   9.322 -0.1187  0.2409  1.2746
   89SAPS  H10S 8601   6.193   6.930   9.398 -0.6213  1.3859 -2.4494
   89SAPS  C211 8602   6.253   6.813   9.235 -0.2578  0.0062 -0.3585
   89SAPS  H11R 8603   6.185   6.728   9.250  1.7911 -1.8966 -1.3205
   89SAPS  C212 8604   6.305   6.823   9.108  0.2040  0.5468 -1.2877
   89SAPS  H12R 8605   6.267   6.751   9.034  0.5036  0.8886 -1.7814
   89SAPS  C213 8606   6.400   6.929   9.064  0.1915  0.4502 -0.2350
   89SAPS  H13R 8607   6.484   6.896   8.999 -0.2420  0.8649 -1.0217
   89SAPS  H13S 8608   6.448   6.980   9.150 -0.1816  1.5284 -0.6551
   89SAPS  C214 8609   6.325   7.035   8.992  0.7335  0.3976 -0.5547
   89SAPS  H14R 8610   6.257   7.097   9.053  0.8569  1.6758 -1.6885
   89SAPS  C215 8611   6.330   7.066   8.859  0.5482 -0.1304  0.9922
   89SAPS  H15R 8612   6.274   7.153   8.822 -2.5726 -1.7476  1.5763
   89SAPS  C216 8613   6.395   6.990   8.740  0.1409 -0.2320 -0.8406
   89SAPS  H16R 8614   6.319   6.982   8.660 -0.4639 -0.2429 -0.2677
   89SAPS  H16S 8615   6.423   6.885   8.763  1.2405  0.5910  2.1792
   89SAPS  C217 8616   6.516   7.062   8.674  0.2437  0.5808 -0.7544
   89SAPS  H17R 8617   6.601   7.043   8.741 -0.4824  2.9851  1.0084
   89SAPS  H17S 8618   6.498   7.171   8.659 -2.2302  0.6706  1.9076
   89SAPS  C218 8619   6.549   6.998   8.538 -0.3155 -0.5720  0.3857
   89SAPS  H18R 8620   6.464   6.947   8.487  1.8684 -2.5137 -1.5604
   89SAPS  H18S 8621   6.622   6.917   8.559  1.5204  0.5544 -1.2530
   89SAPS  C219 8622   6.627   7.091   8.444 -0.4751  0.9912  0.2588
   89SAPS  H19R 8623   6.725   7.121   8.487 -0.7026  1.3268  0.5521
   89SAPS  H19S 8624   6.590   7.194   8.427 -0.3156  0.6386 -2.7776
   89SAPS  C220 8625   6.671   7.023   8.318 -0.3866 -0.2712  0.6644
   89SAPS  H20R 8626   6.743   6.943   8.346  1.1951  0.4991 -1.0035
   89SAPS  H20S 8627   6.728   7.091   8.252 -0.2155 -0.1207  0.9662
   89SAPS  H20T 8628   6.587   6.973   8.265 -1.5470 -0.1407  2.3047
   89SAPS   C33 8629   6.404   6.572  10.080 -0.5594  0.2191  0.0864
   89SAPS   H3X 8630   6.510   6.584  10.112 -0.7427  1.1096  0.3687
   89SAPS   H3Y 8631   6.369   6.670  10.042 -1.5466 -0.3734 -0.6002
   89SAPS   C34 8632   6.401   6.459   9.972 -1.2262  0.3827  0.5035
   89SAPS   H4X 8633   6.296   6.438   9.946 -1.4319  1.2973  0.5412
   89SAPS   H4Y 8634   6.446   6.368  10.018 -0.7658  0.9719  1.2526
   89SAPS   C35 8635   6.501   6.504   9.852  0.6707  0.0247 -0.1651
   89SAPS   H5X 8636   6.595   6.529   9.907  0.5993 -0.8957  0.4024
   89SAPS   H5Y 8637   6.471   6.601   9.809  0.5138  1.0757  2.1644
   89SAPS   C36 8638   6.509   6.386   9.765 -0.2597  0.2074 -0.1956
   89SAPS   H6X 8639   6.411   6.334   9.757  0.5635 -1.1747 -1.7981
   89SAPS   H6Y 8640   6.586   6.314   9.801 -0.4403 -0.6278 -1.4199
   89SAPS   C37 8641   6.537   6.408   9.618  0.3811 -0.2214 -0.1767
   89SAPS   H7X 8642   6.457   6.475   9.579 -1.8610 -1.8514  1.3142
   89SAPS   H7Y 8643   6.534   6.308   9.571  0.8987 -1.4390  2.1943
   89SAPS   C38 8644   6.672   6.482   9.584  0.3996  0.7066  0.4659
   89SAPS   H8X 8645   6.757   6.410   9.586  0.3225  0.5505 -0.9557
   89SAPS   H8Y 8646   6.700   6.568   9.649 -0.0322  1.5487 -0.4425
   89SAPS   C39 8647   6.649   6.525   9.444 -0.0990  0.5034 -0.2397
   89SAPS   H9X 8648   6.558   6.588   9.445 -1.6249 -1.5990  1.2239
   89SAPS   H9Y 8649   6.625   6.438   9.378  1.2425  1.1780 -1.6873
   89SAPS  C310 8650   6.758   6.603   9.379 -0.3613  0.5768 -1.1062
   89SAPS  H10X 8651   6.848   6.557   9.424 -1.0073  1.6059  1.4136
   89SAPS  H10Y 8652   6.773   6.705   9.421  0.3911 -0.4640  1.3032
   89SAPS  C311 8653   6.756   6.608   9.226 -0.4205  0.2407  0.0348
   89SAPS  H11X 8654   6.654   6.632   9.188 -0.1646  1.6271  0.1575
   89SAPS  H11Y 8655   6.788   6.511   9.183 -2.5360 -0.7858  0.6152
   89SAPS  C312 8656   6.854   6.717   9.173  0.1358  0.3849 -0.4573
   89SAPS  H12X 8657   6.953   6.677   9.204 -0.9815 -1.4319  1.0388
   89SAPS  H12Y 8658   6.844   6.810   9.234  0.8192  0.4190 -0.3943
   89SAPS  C313 8659   6.837   6.750   9.022 -0.0482 -0.4611  0.2245
   89SAPS  H13X 8660   6.733   6.781   8.997  0.2515 -0.2576 -0.8274
   89SAPS  H13Y 8661   6.849   6.653   8.970 -2.0343 -1.8741  2.2253
   89SAPS  C314 8662   6.939   6.852   8.970 -0.0760 -0.3733 -0.1600
   89SAPS  H14X 8663   7.046   6.820   8.973  0.3155  0.9514  0.5302
   89SAPS  H14Y 8664   6.933   6.952   9.018 -1.4353 -0.1872 -0.6941
   89SAPS  C315 8665   6.921   6.874   8.817 -0.5476  0.4901  0.0694
   89SAPS  H15X 8666   6.820   6.903   8.783 -0.4501  1.9342  0.9311
   89SAPS  H15Y 8667   6.940   6.773   8.774  0.5382  1.0594 -0.8408
   89SAPS  C316 8668   7.014   6.985   8.762 -0.2068  0.5364 -0.5418
   89SAPS  H16X 8669   7.119   6.982   8.798 -0.6186  0.7457  0.7293
   89SAPS  H16Y 8670   6.980   7.080   8.806 -1.3344 -0.4318  0.7689
   89SAPS  C317 8671   7.008   7.000   8.610  0.2744  0.4280  0.4509
   89SAPS  H17X 8672   6.907   7.024   8.569  0.4010  1.1210  0.5339
   89SAPS  H17Y 8673   7.030   6.903   8.561 -2.2046  0.5523 -1.0885
   89SAPS  C318 8674   7.089   7.118   8.558  0.2532 -0.6253  0.0301
   89SAPS  H18X 8675   7.106   7.191   8.641  3.2980 -1.7588  0.5006
   89SAPS  H18Y 8676   7.042   7.181   8.480 -0.7568 -1.9442 -0.4594
   89SAPS  H18Z 8677   7.188   7.079   8.527 -0.6187 -2.1247 -1.0236
   90SAPS     N 8678   1.696   6.640  10.853  0.3923  0.2575  0.0385
   90SAPS   HN1 8679   1.715   6.595  10.945  0.2572  0.1351  0.0071
   90SAPS   HN2 8680   1.664   6.569  10.784 -0.1392  1.9119 -1.4923
   90SAPS   HN3 8681   1.788   6.675  10.818  0.8246  1.7677  2.4564
   90SAPS   C12 8682   1.593   6.749  10.852 -0.9306 -0.6399  0.4079
   90SAPS  H12A 8683   1.504   6.690  10.871 -1.3948 -0.0110  0.2290
   90SAPS   C13 8684   1.592   6.849  10.970 -0.4355 -0.7466 -1.3138
   90SAPS  O13A 8685   1.685   6.835  11.053 -0.0051 -0.5288 -0.1898
   90SAPS  O13B 8686   1.512   6.949  10.971  0.5801  0.4112 -0.5912
   90SAPS   C11 8687   1.600   6.828  10.717  0.8168  0.1381 -0.7796
   90SAPS  H11A 8688   1.681   6.903  10.730  0.3898  0.5901 -0.6636
   90SAPS  H11B 8689   1.507   6.889  10.714  1.5198  1.4856  1.5695
   90SAPS     P 8690   1.524   6.641  10.535  0.0356  0.0277 -0.3631
   90SAPS   O13 8691   1.617   6.524  10.504  0.3268 -0.4229 -0.7322
   90SAPS   O14 8692   1.395   6.623  10.615 -0.2899  0.8866  0.3031
   90SAPS   O12 8693   1.616   6.740  10.601 -0.2810 -1.2826  0.0598
   90SAPS   O11 8694   1.489   6.717  10.397 -0.1310  0.3463 -0.3204
   90SAPS    C1 8695   1.585   6.760  10.298  0.4803  0.1444 -0.1813
   90SAPS    HA 8696   1.631   6.858  10.324  1.0920 -0.3428  0.6331
   90SAPS    HB 8697   1.660   6.679  10.289  0.8401  0.5940 -1.4550
   90SAPS    C2 8698   1.513   6.764  10.159 -0.4069  0.5526 -0.3079
   90SAPS    HS 8699   1.431   6.689  10.165  1.1173 -1.2076 -0.5165
   90SAPS   O21 8700   1.610   6.722  10.054  0.2546 -0.0140 -0.1445
   90SAPS   C21 8701   1.553   6.636   9.969 -0.1787 -0.5108  0.0206
   90SAPS   O22 8702   1.435   6.602   9.975 -0.0950 -0.4742  0.8641
   90SAPS   C22 8703   1.652   6.590   9.859  0.1617 -0.3129  0.6382
   90SAPS   H2R 8704   1.708   6.681   9.829 -3.5456  2.4677  1.5116
   90SAPS   H2S 8705   1.711   6.516   9.917 -0.0245  0.0985  1.3561
   90SAPS    C3 8706   1.467   6.907  10.131  0.8654  0.2701  0.2856
   90SAPS    HX 8707   1.391   6.940  10.205  1.1343  1.2046  0.1596
   90SAPS    HY 8708   1.409   6.897  10.037  1.6433 -0.4937 -0.1289
   90SAPS   O31 8709   1.579   6.990  10.129 -0.4982 -0.3949  0.1421
   90SAPS   C31 8710   1.635   7.021  10.014 -0.4769 -0.6398 -0.1930
   90SAPS   O32 8711   1.610   6.971   9.904  0.1491 -0.6740  0.0807
   90SAPS   C32 8712   1.722   7.145  10.043  0.1649 -0.1013 -0.5471
   90SAPS   H2X 8713   1.810   7.114  10.103  0.8879 -0.7317 -1.8923
   90SAPS   H2Y 8714   1.674   7.225  10.104  2.2571  0.5822  0.3059
   90SAPS   C23 8715   1.567   6.541   9.740  0.5304  0.4670  0.0209
   90SAPS   H3R 8716   1.474   6.486   9.767  0.3542  0.9565  0.4345
   90SAPS   H3S 8717   1.627   6.464   9.687  0.2000  0.4853 -0.3821
   90SAPS   C24 8718   1.528   6.651   9.634  0.3910 -0.1977  0.4963
   90SAPS   H4R 8719   1.508   6.744   9.690 -1.7394  1.1331 -2.2344
   90SAPS   H4S 8720   1.434   6.617   9.585  0.0213 -1.7290  2.1790
   90SAPS   C25 8721   1.637   6.681   9.530 -0.8117  0.0630  0.0699
   90SAPS   H5R 8722   1.736   6.639   9.555 -1.7676 -1.3226  1.7982
   90SAPS   C26 8723   1.626   6.730   9.402 -0.5921  0.4317  0.0309
   90SAPS   H6R 8724   1.716   6.750   9.342  1.3210  0.4845  2.7370
   90SAPS   C27 8725   1.494   6.765   9.333 -0.1365  0.3249 -0.4550
   90SAPS   H7R 8726   1.402   6.765   9.395 -0.7514  0.5348 -1.3425
   90SAPS   H7S 8727   1.472   6.682   9.262  0.6119 -1.4799  1.3186
   90SAPS   C28 8728   1.508   6.891   9.253  0.8382 -0.9343 -0.1274
   90SAPS   H8R 8729   1.521   6.976   9.322 -1.3373 -1.9139  1.6048
   90SAPS   C29 8730   1.521   6.898   9.122 -0.7718  0.4116  0.5640
   90SAPS   H9R 8731   1.534   6.998   9.078  0.7635 -0.8577 -2.0873
   90SAPS  C210 8732   1.523   6.781   9.023 -0.2485  0.1781  0.1734
   90SAPS  H10R 8733   1.579   6.699   9.073 -0.8740  1.1197  2.5791
   90SAPS  H10S 8734   1.573   6.811   8.928 -1.1257 -0.9893 -0.6861
   90SAPS  C211 8735   1.385   6.732   8.972 -0.1743 -0.2888  0.3644
   90SAPS  H11R 8736   1.326   6.822   8.950  0.4740 -0.1071 -0.7161
   90SAPS  C212 8737   1.335   6.606   8.972  0.4324 -0.0875 -0.5362
   90SAPS  H12R 8738   1.237   6.582   8.929  0.8608 -1.2234 -0.9256
   90SAPS  C213 8739   1.416   6.493   9.035 -0.0756  0.0577 -0.0280
   90SAPS  H13R 8740   1.422   6.515   9.143  0.6070 -2.1218  0.4173
   90SAPS  H13S 8741   1.515   6.493   8.985  0.2767 -0.0638  0.6713
   90SAPS  C214 8742   1.344   6.372   9.010 -0.0263  0.8951 -0.6982
   90SAPS  H14R 8743   1.234   6.370   9.005 -0.1150 -0.0061  0.9694
   90SAPS  C215 8744   1.401   6.249   8.990  0.1633 -0.4331  0.1155
   90SAPS  H15R 8745   1.338   6.163   8.962  0.5133 -0.8455  0.5912
   90SAPS  C216 8746   1.549   6.210   8.984  0.3881  0.5706  0.0396
   90SAPS  H16R 8747   1.563   6.107   9.025  0.0444  0.5884  0.2136
   90SAPS  H16S 8748   1.610   6.274   9.050  0.9579  1.3271 -1.2045
   90SAPS  C217 8749   1.613   6.200   8.841 -0.2360  0.2933 -0.7471
   90SAPS  H17R 8750   1.545   6.142   8.774  0.9307  0.9820 -2.5963
   90SAPS  H17S 8751   1.711   6.149   8.854 -0.7735 -0.9205 -1.2751
   90SAPS  C218 8752   1.642   6.335   8.773  0.4148  0.6021  0.4814
   90SAPS  H18R 8753   1.699   6.399   8.844 -0.9935  1.2420  1.0721
   90SAPS  H18S 8754   1.548   6.387   8.744 -1.3217 -2.8918 -0.7542
   90SAPS  C219 8755   1.738   6.319   8.648  0.6941 -0.0033  0.0596
   90SAPS  H19R 8756   1.841   6.288   8.676  0.8999  0.7169  0.1126
   90SAPS  H19S 8757   1.739   6.427   8.623  0.6101  0.3168  1.3959
   90SAPS  C220 8758   1.676   6.231   8.536 -0.6925 -0.1841 -0.0840
   90SAPS  H20R 8759   1.693   6.279   8.437 -4.3707 -1.8130 -1.6781
   90SAPS  H20S 8760   1.565   6.231   8.537 -0.7024 -1.3592  1.1717
   90SAPS  H20T 8761   1.722   6.130   8.531 -0.3662  0.0077 -2.1460
   90SAPS   C33 8762   1.789   7.202   9.917 -0.3358  0.3699 -0.3272
   90SAPS   H3X 8763   1.727   7.229   9.829 -0.0494  0.7734 -0.4057
   90SAPS   H3Y 8764   1.857   7.125   9.874  0.3501  0.5811  0.3724
   90SAPS   C34 8765   1.850   7.336   9.942 -0.5812 -0.8170 -0.1542
   90SAPS   H4X 8766   1.932   7.323  10.016 -0.3463 -0.5652 -0.3687
   90SAPS   H4Y 8767   1.775   7.400   9.992 -1.4822  0.7929 -3.3060
   90SAPS   C35 8768   1.890   7.421   9.813  0.3364  0.5980 -1.0232
   90SAPS   H5X 8769   1.943   7.514   9.841 -0.0380  0.7203 -0.7242
   90SAPS   H5Y 8770   1.792   7.452   9.772  1.2210  4.7382 -0.3813
   90SAPS   C36 8771   1.982   7.336   9.724 -0.4245  0.3587  0.2730
   90SAPS   H6X 8772   1.925   7.245   9.693 -1.5355  0.8581  0.8034
   90SAPS   H6Y 8773   2.060   7.291   9.788 -1.7652  0.2300  1.8892
   90SAPS   C37 8774   2.049   7.392   9.596 -0.3372  0.3245  0.6184
   90SAPS   H7X 8775   2.092   7.492   9.617 -0.5287  1.0853 -2.1786
   90SAPS   H7Y 8776   1.975   7.400   9.512 -0.3442  1.8524  0.7551
   90SAPS   C38 8777   2.150   7.295   9.536  0.2715  0.2439  0.0662
   90SAPS   H8X 8778   2.118   7.193   9.566 -2.2278  0.6539 -0.9771
   90SAPS   H8Y 8779   2.243   7.315   9.594 -0.7305 -0.1898  1.8633
   90SAPS   C39 8780   2.172   7.300   9.383 -0.4837 -0.9627 -0.1515
   90SAPS   H9X 8781   2.204   7.402   9.354 -0.3443  0.2623  3.7233
   90SAPS   H9Y 8782   2.073   7.281   9.337  0.2780  1.1633 -2.9621
   90SAPS  C310 8783   2.276   7.199   9.331  0.0411 -0.5720 -0.2493
   90SAPS  H10X 8784   2.249   7.097   9.366  2.6910 -0.6460  1.8998
   90SAPS  H10Y 8785   2.381   7.215   9.365 -0.3851 -0.8884  1.2824
   90SAPS  C311 8786   2.283   7.199   9.183  0.6982  0.1158  0.6979
   90SAPS  H11X 8787   2.298   7.304   9.149  2.0584  0.3136  1.7941
   90SAPS  H11Y 8788   2.189   7.155   9.144 -0.5001  0.7856  2.6705
   90SAPS  C312 8789   2.402   7.116   9.135  0.4861  0.0105 -0.4104
   90SAPS  H12X 8790   2.402   7.022   9.194 -0.1256 -0.3551 -0.9825
   90SAPS  H12Y 8791   2.495   7.172   9.157 -1.2780  2.5973  1.0718
   90SAPS  C313 8792   2.381   7.085   8.988 -0.4532  0.0010  0.4000
   90SAPS  H13X 8793   2.403   7.173   8.924 -1.1734  0.6836  1.0604
   90SAPS  H13Y 8794   2.273   7.062   8.975 -0.7161 -1.0092  3.4254
   90SAPS  C314 8795   2.450   6.961   8.932 -0.3250 -0.4689  0.1164
   90SAPS  H14X 8796   2.411   6.922   8.835 -1.0929 -0.1224  0.2785
   90SAPS  H14Y 8797   2.412   6.893   9.011 -0.5048  1.0106  1.3490
   90SAPS  C315 8798   2.608   6.961   8.946  0.4400 -0.3794 -0.2035
   90SAPS  H15X 8799   2.635   7.001   9.046 -2.7882  1.9454 -0.1120
   90SAPS  H15Y 8800   2.650   7.038   8.878  0.9315  1.4662  2.0651
   90SAPS  C316 8801   2.672   6.820   8.937 -0.1509  0.1726 -0.0960
   90SAPS  H16X 8802   2.619   6.770   8.853 -0.2226 -0.2536  0.2010
   90SAPS  H16Y 8803   2.655   6.761   9.030 -1.9341  1.0833  0.1848
   90SAPS  C317 8804   2.817   6.830   8.907 -0.1787 -0.2602 -0.5944
   90SAPS  H17X 8805   2.861   6.730   8.925  1.2289  0.4282 -0.1263
   90SAPS  H17Y 8806   2.859   6.904   8.979 -1.7999 -0.6749  0.8578
   90SAPS  C318 8807   2.845   6.872   8.769 -0.1700  0.2019 -0.4581
   90SAPS  H18X 8808   2.790   6.964   8.739 -2.8395 -1.0764  0.2605
   90SAPS  H18Y 8809   2.814   6.796   8.694  1.2431 -0.5217 -0.3437
   90SAPS  H18Z 8810   2.951   6.902   8.749  1.0196 -2.1558  1.7947
   91SAPS     N 8811   5.416   6.482   6.006  0.4354  0.1178 -0.6631
   91SAPS   HN1 8812   5.475   6.566   6.023 -0.4873  1.0730 -1.9784
   91SAPS   HN2 8813   5.442   6.452   5.910 -0.4298  0.2214 -0.9382
   91SAPS   HN3 8814   5.323   6.527   5.993 -0.1342 -1.0988 -0.9616
   91SAPS   C12 8815   5.422   6.380   6.110  0.7484 -0.6395 -0.7332
   91SAPS  H12A 8816   5.377   6.429   6.196 -0.2798 -0.7660 -1.1850
   91SAPS   C13 8817   5.316   6.265   6.084  0.5492  0.7532 -0.1527
   91SAPS  O13A 8818   5.249   6.263   5.983  0.6220 -0.1119  0.1354
   91SAPS  O13B 8819   5.303   6.182   6.184  0.5036  0.7485  0.2287
   91SAPS   C11 8820   5.571   6.324   6.118 -0.0855 -0.4239  0.3568
   91SAPS  H11A 8821   5.582   6.261   6.027  1.7530  0.8681 -0.3715
   91SAPS  H11B 8822   5.592   6.250   6.198  1.5065 -1.3516 -0.8574
   91SAPS     P 8823   5.677   6.528   6.241 -0.1459 -0.4117  0.1545
   91SAPS   O13 8824   5.811   6.585   6.238  0.0866  0.1788 -0.2613
   91SAPS   O14 8825   5.563   6.619   6.211  0.0921 -0.1163  0.0787
   91SAPS   O12 8826   5.671   6.422   6.121 -0.1503 -0.3035 -0.4948
   91SAPS   O11 8827   5.651   6.435   6.371 -0.2364 -0.3228 -0.4840
   91SAPS    C1 8828   5.758   6.349   6.421 -0.4360 -0.4657 -0.5068
   91SAPS    HA 8829   5.711   6.271   6.484  0.8013  0.6095  1.8593
   91SAPS    HB 8830   5.830   6.307   6.347  0.7696  1.5118 -0.5177
   91SAPS    C2 8831   5.850   6.417   6.525 -0.2510  0.0167 -0.0639
   91SAPS    HS 8832   5.896   6.499   6.466 -0.8036  0.9520  0.7587
   91SAPS   O21 8833   5.939   6.320   6.571  0.1227  0.2350 -0.1501
   91SAPS   C21 8834   6.038   6.360   6.647 -0.0437 -0.7045  0.1237
   91SAPS   O22 8835   6.084   6.474   6.647 -0.1405 -0.2642 -0.0681
   91SAPS   C22 8836   6.081   6.252   6.747 -0.6107  0.3833 -0.2008
   91SAPS   H2R 8837   6.025   6.161   6.718 -1.0314  0.8519 -0.9032
   91SAPS   H2S 8838   6.191   6.241   6.755 -0.7387  0.5082  2.1629
   91SAPS    C3 8839   5.754   6.485   6.637  0.1722  0.3151  0.3023
   91SAPS    HX 8840   5.688   6.404   6.676 -1.3207  0.8336 -1.0446
   91SAPS    HY 8841   5.678   6.555   6.596  0.3274 -0.5504 -1.5772
   91SAPS   O31 8842   5.820   6.536   6.750  0.2056 -0.2099  0.0872
   91SAPS   C31 8843   5.856   6.665   6.731 -0.7317  0.0870  0.0500
   91SAPS   O32 8844   5.840   6.731   6.632  0.6051 -0.1172  0.3402
   91SAPS   C32 8845   5.942   6.718   6.850  0.4684  0.3390 -0.2385
   91SAPS   H2X 8846   5.934   6.829   6.850 -4.1333  0.3031 -3.5493
   91SAPS   H2Y 8847   6.049   6.691   6.834  1.3384  2.8881  0.7383
   91SAPS   C23 8848   6.039   6.286   6.891  0.0702 -0.3982 -0.1523
   91SAPS   H3R 8849   5.935   6.327   6.893  0.6346  1.0864 -0.4033
   91SAPS   H3S 8850   6.098   6.375   6.922  2.0850 -1.3618 -1.0670
   91SAPS   C24 8851   6.043   6.168   6.998 -0.0856 -0.3966  0.7006
   91SAPS   H4R 8852   5.989   6.082   6.952  1.8284 -0.8184 -0.9027
   91SAPS   H4S 8853   5.985   6.194   7.089  0.3758 -3.4291  1.9632
   91SAPS   C25 8854   6.186   6.133   7.028  0.2794 -0.1440 -0.4165
   91SAPS   H5R 8855   6.236   6.093   6.938  0.3622 -0.5042 -0.2137
   91SAPS   C26 8856   6.260   6.157   7.141  0.2456  0.1899  0.0608
   91SAPS   H6R 8857   6.363   6.121   7.148  0.6139  1.4617  2.0241
   91SAPS   C27 8858   6.214   6.221   7.271  0.2537  0.0963  0.0393
   91SAPS   H7R 8859   6.163   6.317   7.248  0.3669 -0.5119 -3.4072
   91SAPS   H7S 8860   6.311   6.244   7.321  1.2660  1.3464 -2.3134
   91SAPS   C28 8861   6.135   6.135   7.362 -0.3803 -0.4910 -0.2164
   91SAPS   H8R 8862   6.107   6.034   7.328 -0.9589 -0.6430  0.6832
   91SAPS   C29 8863   6.137   6.152   7.501  0.1596  0.7093  0.4153
   91SAPS   H9R 8864   6.065   6.090   7.557  0.4247  1.7691  1.9743
   91SAPS  C210 8865   6.198   6.261   7.583 -0.4699  0.3618  0.4351
   91SAPS  H10R 8866   6.243   6.344   7.525  2.5500 -0.9027  0.7634
   91SAPS  H10S 8867   6.282   6.205   7.629 -0.7217 -0.1784  0.2473
   91SAPS  C211 8868   6.099   6.326   7.679 -0.3629 -0.4096 -0.3773
   91SAPS  H11R 8869   6.020   6.385   7.629 -0.0634 -0.2439 -0.6653
   91SAPS  C212 8870   6.097   6.325   7.814  0.0680  0.1420  0.3112
   91SAPS  H12R 8871   6.006   6.357   7.866 -0.7051 -1.6991  0.1654
   91SAPS  C213 8872   6.195   6.243   7.898  0.3672  0.2561 -0.4284
   91SAPS  H13R 8873   6.213   6.287   7.998 -2.6584 -1.3821  0.9706
   91SAPS  H13S 8874   6.292   6.240   7.844  0.5502 -1.0883 -0.0518
   91SAPS  C214 8875   6.163   6.094   7.916 -0.6270 -0.6420 -0.2044
   91SAPS  H14R 8876   6.155   6.032   7.826 -0.5981  1.1566 -1.4913
   91SAPS  C215 8877   6.141   6.026   8.037 -0.5604  0.2019  0.1008
   91SAPS  H15R 8878   6.123   5.918   8.028  1.5389 -0.0658 -1.8548
   91SAPS  C216 8879   6.152   6.095   8.169 -0.4699  0.3356 -0.0818
   91SAPS  H16R 8880   6.119   6.200   8.160 -1.8958  0.0228  1.0150
   91SAPS  H16S 8881   6.258   6.079   8.200 -1.0947 -2.0291  1.0992
   91SAPS  C217 8882   6.066   6.045   8.277  0.2959  0.3001  0.6107
   91SAPS  H17R 8883   5.959   6.059   8.249  0.5557 -0.7465 -1.0212
   91SAPS  H17S 8884   6.075   6.113   8.365  1.0867 -1.4819  1.9740
   91SAPS  C218 8885   6.105   5.908   8.330 -0.4563  0.0897  0.0867
   91SAPS  H18R 8886   6.216   5.900   8.336 -0.2546  1.8689 -0.5263
   91SAPS  H18S 8887   6.074   5.824   8.266  4.2411 -1.4721 -0.5755
   91SAPS  C219 8888   6.044   5.890   8.471  0.3647  0.0429 -0.5983
   91SAPS  H19R 8889   6.063   5.980   8.533 -1.9907 -0.4729  0.9714
   91SAPS  H19S 8890   6.087   5.804   8.525  1.2619  0.7184 -0.2179
   91SAPS  C220 8891   5.895   5.876   8.467 -0.4975  0.3204 -0.0311
   91SAPS  H20R 8892   5.857   5.895   8.569  1.1195 -0.8359  0.8362
   91SAPS  H20S 8893   5.858   5.771   8.459 -2.5297  0.8561  1.4922
   91SAPS  H20T 8894   5.845   5.936   8.388  1.1022  1.3366 -0.3075
   91SAPS   C33 8895   5.905   6.665   6.989  0.1895 -0.4308 -0.3732
   91SAPS   H3X 8896   5.919   6.555   6.996  3.5122 -0.0184  2.9292
   91SAPS   H3Y 8897   5.800   6.699   7.002  0.6558  0.7525  0.4662
   91SAPS   C34 8898   5.988   6.741   7.091  0.0078 -0.2863  0.3474
   91SAPS   H4X 8899   5.987   6.850   7.067 -2.3441 -0.0747  1.0887
   91SAPS   H4Y 8900   6.094   6.710   7.081  0.3494  1.3409 -2.6403
   91SAPS   C35 8901   5.957   6.713   7.236 -0.0413 -1.0758 -0.5571
   91SAPS   H5X 8902   5.945   6.605   7.259 -1.1417 -0.4280  2.3648
   91SAPS   H5Y 8903   5.857   6.752   7.266 -0.1416 -0.7586 -1.2837
   91SAPS   C36 8904   6.060   6.773   7.330 -0.2149 -0.4015 -0.1743
   91SAPS   H6X 8905   6.073   6.883   7.323 -0.6229 -0.2835  0.6969
   91SAPS   H6Y 8906   6.163   6.736   7.311  0.8806  0.6618  2.9810
   91SAPS   C37 8907   6.036   6.763   7.477 -0.1716 -0.2911 -0.6011
   91SAPS   H7X 8908   6.037   6.654   7.499 -1.2378  0.0893  1.7891
   91SAPS   H7Y 8909   5.935   6.803   7.500  0.5756  0.9025  0.7655
   91SAPS   C38 8910   6.126   6.842   7.570 -0.1186 -0.0657  0.3379
   91SAPS   H8X 8911   6.116   6.950   7.545 -3.4653 -0.4933 -0.6803
   91SAPS   H8Y 8912   6.228   6.804   7.544 -0.6333 -1.4561  0.2358
   91SAPS   C39 8913   6.099   6.821   7.722 -0.3999  0.2268  0.5174
   91SAPS   H9X 8914   6.109   6.714   7.748 -0.7493  0.0950  0.1095
   91SAPS   H9Y 8915   5.996   6.849   7.754 -0.7577  1.2013 -1.3060
   91SAPS  C310 8916   6.206   6.891   7.817  0.0572 -0.6518  0.0918
   91SAPS  H10X 8917   6.214   6.999   7.796  2.1858  0.0198  3.5482
   91SAPS  H10Y 8918   6.305   6.841   7.809  0.3377 -0.5222  2.2001
   91SAPS  C311 8919   6.183   6.879   7.964 -0.6501 -0.4903 -0.5786
   91SAPS  H11X 8920   6.173   6.774   7.999 -5.0316  0.8989  3.3135
   91SAPS  H11Y 8921   6.094   6.929   8.007 -0.7967 -0.8823 -0.4301
   91SAPS  C312 8922   6.301   6.940   8.046  0.0655 -0.1150 -0.1529
   91SAPS  H12X 8923   6.309   7.048   8.018  2.4810 -0.1210  0.2349
   91SAPS  H12Y 8924   6.401   6.897   8.024  0.6005 -0.1051  2.0257
   91SAPS  C313 8925   6.295   6.948   8.199 -0.3259 -0.2056  0.7164
   91SAPS  H13X 8926   6.347   7.036   8.243  2.3322 -1.9725  1.3563
   91SAPS  H13Y 8927   6.356   6.861   8.233  0.9693  0.3309 -0.1393
   91SAPS  C314 8928   6.155   6.948   8.266  0.3784  1.0647 -0.1247
   91SAPS  H14X 8929   6.115   6.850   8.232  1.1883  0.4568  0.6276
   91SAPS  H14Y 8930   6.095   7.032   8.226  0.3035  0.7281 -0.7284
   91SAPS  C315 8931   6.155   6.960   8.419  0.3946 -0.6176 -0.4791
   91SAPS  H15X 8932   6.255   6.935   8.461 -0.1080 -1.2745  0.3528
   91SAPS  H15Y 8933   6.084   6.888   8.464 -0.5621  0.0852 -0.8220
   91SAPS  C316 8934   6.108   7.101   8.468  0.1257  0.4850  0.6285
   91SAPS  H16X 8935   6.094   7.120   8.576 -1.7732  0.6037  0.4122
   91SAPS  H16Y 8936   6.013   7.130   8.417 -1.0513 -0.0699  2.3837
   91SAPS  C317 8937   6.219   7.203   8.432 -0.7490 -0.0100  1.0653
   91SAPS  H17X 8938   6.210   7.225   8.323  0.0100  0.8904  1.1684
   91SAPS  H17Y 8939   6.316   7.156   8.456 -1.2338 -0.6236  1.8569
   91SAPS  C318 8940   6.218   7.337   8.498  0.4804 -0.5135  0.0537
   91SAPS  H18X 8941   6.278   7.406   8.435  1.0747 -0.5381  0.5873
   91SAPS  H18Y 8942   6.253   7.338   8.603 -0.6636 -1.9969  0.4979
   91SAPS  H18Z 8943   6.114   7.376   8.502  0.0595 -1.5737 -0.2069
   92SAPS     N 8944   3.592   4.836   6.249 -0.2817  0.3993 -0.2351
   92SAPS   HN1 8945   3.556   4.809   6.343 -1.8433  0.6830 -0.7264
   92SAPS   HN2 8946   3.637   4.929   6.259  0.6758 -0.0485 -0.2331
   92SAPS   HN3 8947   3.508   4.837   6.188 -0.9430  0.6891  0.6648
   92SAPS   C12 8948   3.705   4.740   6.202 -0.5980  0.1123 -0.3120
   92SAPS  H12A 8949   3.649   4.652   6.177 -0.2632  0.0168 -0.7347
   92SAPS   C13 8950   3.766   4.785   6.066 -0.7753  0.7799  0.2276
   92SAPS  O13A 8951   3.709   4.880   6.007 -0.1399  0.3413 -0.3181
   92SAPS  O13B 8952   3.841   4.711   5.992 -0.0857  0.0584  0.2015
   92SAPS   C11 8953   3.820   4.714   6.312  0.4315 -0.7057 -0.1663
   92SAPS  H11A 8954   3.902   4.658   6.263  1.0646 -0.1683  0.2786
   92SAPS  H11B 8955   3.769   4.650   6.387 -1.1418 -0.6617 -1.1347
   92SAPS     P 8956   3.840   4.872   6.527  0.2608  0.1858 -0.0170
   92SAPS   O13 8957   3.931   4.988   6.560 -0.0430 -0.1570 -0.0270
   92SAPS   O14 8958   3.694   4.883   6.528  0.2796  0.5233  0.1919
   92SAPS   O12 8959   3.872   4.834   6.374 -1.0537 -0.3428  0.2864
   92SAPS   O11 8960   3.898   4.750   6.609 -0.3892 -0.2122  0.0996
   92SAPS    C1 8961   4.032   4.706   6.596  0.3409  0.1177  0.4762
   92SAPS    HA 8962   4.046   4.676   6.490 -1.3473  2.5635 -0.5266
   92SAPS    HB 8963   4.106   4.788   6.600  0.1728  0.4788 -2.2189
   92SAPS    C2 8964   4.056   4.586   6.685  0.6810 -0.5400 -0.0002
   92SAPS    HS 8965   3.980   4.515   6.649 -1.3631  1.3904  0.3004
   92SAPS   O21 8966   4.043   4.631   6.825 -0.1607  0.7590  0.2186
   92SAPS   C21 8967   3.948   4.555   6.891  0.3905 -0.0817  0.4399
   92SAPS   O22 8968   3.884   4.464   6.843  0.3503 -0.4674  0.0532
   92SAPS   C22 8969   3.955   4.594   7.036  0.5523  0.3511 -0.1324
   92SAPS   H2R 8970   4.030   4.534   7.093 -1.3386 -2.5107 -0.4405
   92SAPS   H2S 8971   3.977   4.703   7.030 -0.8817  0.7522  1.1846
   92SAPS    C3 8972   4.188   4.515   6.656 -0.0151  0.3554 -0.3787
   92SAPS    HX 8973   4.269   4.590   6.662  2.4001 -2.1050 -0.6307
   92SAPS    HY 8974   4.185   4.486   6.549 -0.2065  2.4867 -1.0081
   92SAPS   O31 8975   4.217   4.406   6.747  0.3356  0.2944 -0.5729
   92SAPS   C31 8976   4.332   4.345   6.719 -0.1754  0.3910 -0.3852
   92SAPS   O32 8977   4.421   4.373   6.637  0.6041 -0.1379  0.4130
   92SAPS   C32 8978   4.340   4.216   6.804  0.0735 -0.3552  0.1670
   92SAPS   H2X 8979   4.445   4.181   6.802  0.4127  0.6736 -0.9203
   92SAPS   H2Y 8980   4.291   4.139   6.741  0.3299 -0.2514 -0.1589
   92SAPS   C23 8981   3.812   4.584   7.104 -0.7130 -0.2047  0.6722
   92SAPS   H3R 8982   3.775   4.480   7.092  0.8459 -0.7549  0.4136
   92SAPS   H3S 8983   3.753   4.659   7.047  0.2702  1.7768  2.1393
   92SAPS   C24 8984   3.802   4.644   7.242  0.1680 -0.5567 -0.5970
   92SAPS   H4R 8985   3.867   4.596   7.319 -1.0135 -0.5893  0.4090
   92SAPS   H4S 8986   3.695   4.636   7.271  0.6353  3.8914  3.7560
   92SAPS   C25 8987   3.842   4.791   7.249 -0.0984  0.3848  0.1254
   92SAPS   H5R 8988   3.795   4.861   7.178  0.6994  1.5323  0.6965
   92SAPS   C26 8989   3.931   4.853   7.323  0.0381  0.3720 -0.2403
   92SAPS   H6R 8990   3.963   4.954   7.292  2.0911  0.0942  0.8296
   92SAPS   C27 8991   4.017   4.790   7.430 -0.2501 -0.2107 -0.0030
   92SAPS   H7R 8992   4.066   4.697   7.396  0.1721 -0.8187  2.1249
   92SAPS   H7S 8993   3.955   4.749   7.512  0.7065 -0.7996  0.4396
   92SAPS   C28 8994   4.129   4.883   7.478 -0.2312  0.3155 -0.1397
   92SAPS   H8R 8995   4.204   4.921   7.408  1.7020 -2.4644  0.2631
   92SAPS   C29 8996   4.163   4.894   7.609 -0.0360  0.3720  0.5213
   92SAPS   H9R 8997   4.245   4.963   7.634  0.7438 -0.5837  0.6454
   92SAPS  C210 8998   4.088   4.837   7.724 -0.3506 -0.4693  0.4595
   92SAPS  H10R 8999   4.073   4.727   7.717  1.2738 -0.6983  0.1568
   92SAPS  H10S 9000   3.986   4.880   7.718 -0.0596  0.5365  2.1846
   92SAPS  C211 9001   4.159   4.858   7.857  0.0747  0.1166 -0.2145
   92SAPS  H11R 9002   4.131   4.947   7.916 -1.7511  0.8557 -2.0396
   92SAPS  C212 9003   4.244   4.770   7.908 -0.1589  0.6739 -0.6080
   92SAPS  H12R 9004   4.276   4.773   8.014 -0.6062 -1.7292 -0.3557
   92SAPS  C213 9005   4.282   4.631   7.845 -0.3821 -0.5044 -0.1126
   92SAPS  H13R 9006   4.390   4.617   7.828  0.3515  2.1481  1.5826
   92SAPS  H13S 9007   4.233   4.626   7.746  1.2160 -1.4263 -0.8751
   92SAPS  C214 9008   4.234   4.518   7.938  0.6997 -0.1641  0.3992
   92SAPS  H14R 9009   4.133   4.486   7.910  0.6660  0.9324 -0.8266
   92SAPS  C215 9010   4.306   4.440   8.020 -0.0788  0.1786 -0.2678
   92SAPS  H15R 9011   4.255   4.369   8.087  0.5696 -0.2203 -0.1862
   92SAPS  C216 9012   4.455   4.442   8.035 -1.3446  0.4744 -0.5955
   92SAPS  H16R 9013   4.509   4.462   7.940  0.8147  0.2596  0.5089
   92SAPS  H16S 9014   4.472   4.339   8.074  0.5346  0.3138 -1.6875
   92SAPS  C217 9015   4.504   4.537   8.138 -0.4449 -0.3180  0.5297
   92SAPS  H17R 9016   4.448   4.632   8.126  1.0998  0.7107  1.1717
   92SAPS  H17S 9017   4.612   4.558   8.124 -0.5703  1.1866  1.5507
   92SAPS  C218 9018   4.479   4.493   8.283 -0.2664 -0.1402 -0.3702
   92SAPS  H18R 9019   4.386   4.433   8.294 -1.1355  1.1059 -0.7453
   92SAPS  H18S 9020   4.481   4.586   8.344  3.5733  1.2129 -2.2303
   92SAPS  C219 9021   4.596   4.418   8.342 -0.5353  0.3010 -0.3347
   92SAPS  H19R 9022   4.687   4.481   8.355 -0.2658  0.0423 -0.8952
   92SAPS  H19S 9023   4.624   4.338   8.269  0.2359  0.6222 -0.3986
   92SAPS  C220 9024   4.559   4.329   8.467 -0.2131 -0.3331 -0.5650
   92SAPS  H20R 9025   4.532   4.400   8.549 -1.0595  1.3129 -2.1923
   92SAPS  H20S 9026   4.649   4.272   8.497  0.1427  0.7789  0.5947
   92SAPS  H20T 9027   4.478   4.257   8.442 -0.1520 -0.2516 -0.9954
   92SAPS   C33 9028   4.291   4.234   6.952  0.0013 -0.0528  0.3448
   92SAPS   H3X 9029   4.298   4.131   6.994  2.2709  0.3073  0.9942
   92SAPS   H3Y 9030   4.186   4.265   6.970 -0.4872 -0.6087 -1.3792
   92SAPS   C34 9031   4.391   4.314   7.034  0.4996 -0.0578 -0.0284
   92SAPS   H4X 9032   4.381   4.420   7.001  0.2009  0.6944  2.2866
   92SAPS   H4Y 9033   4.496   4.285   7.012  0.3644 -1.0334  0.5565
   92SAPS   C35 9034   4.364   4.304   7.183 -0.0612 -0.2276  0.1353
   92SAPS   H5X 9035   4.385   4.201   7.219  1.1240 -0.5906 -1.4651
   92SAPS   H5Y 9036   4.259   4.333   7.203  0.7474  2.2187  1.1961
   92SAPS   C36 9037   4.454   4.398   7.263  0.1311 -0.3060 -0.4113
   92SAPS   H6X 9038   4.449   4.506   7.241  0.3431  0.5765  3.2593
   92SAPS   H6Y 9039   4.553   4.366   7.224 -1.0127 -1.8539 -2.2542
   92SAPS   C37 9040   4.440   4.377   7.412 -0.6715 -0.3050 -0.9477
   92SAPS   H7X 9041   4.333   4.354   7.434  0.0231 -1.0196  2.2863
   92SAPS   H7Y 9042   4.466   4.467   7.472 -2.1905 -0.2630 -0.2848
   92SAPS   C38 9043   4.527   4.263   7.474  0.0742  0.2784 -0.3466
   92SAPS   H8X 9044   4.633   4.282   7.447  0.2301  1.2761  0.8805
   92SAPS   H8Y 9045   4.502   4.165   7.430 -0.3625  0.2335 -0.0086
   92SAPS   C39 9046   4.521   4.241   7.634 -0.0637 -0.3603  0.0735
   92SAPS   H9X 9047   4.552   4.337   7.681 -1.9396  0.5314 -0.3793
   92SAPS   H9Y 9048   4.600   4.166   7.654 -1.2533 -1.6169  0.2101
   92SAPS  C310 9049   4.387   4.196   7.685  0.3465 -0.1297 -0.0165
   92SAPS  H10X 9050   4.328   4.131   7.617 -0.3503  0.9661 -0.4872
   92SAPS  H10Y 9051   4.318   4.283   7.680 -1.2664 -0.9134  4.1554
   92SAPS  C311 9052   4.393   4.132   7.819 -0.4395  0.1462  0.1818
   92SAPS  H11X 9053   4.451   4.192   7.892 -1.8276 -2.2287  3.5061
   92SAPS  H11Y 9054   4.445   4.034   7.807  0.0965  0.5835 -1.2684
   92SAPS  C312 9055   4.264   4.117   7.899  0.4338 -0.4183  1.2295
   92SAPS  H12X 9056   4.199   4.044   7.846 -1.7247  1.5046  1.0864
   92SAPS  H12Y 9057   4.192   4.201   7.899 -0.1095 -0.8684  0.4047
   92SAPS  C313 9058   4.297   4.063   8.033 -0.4282 -0.2808  0.0384
   92SAPS  H13X 9059   4.373   4.128   8.081 -2.2004  0.3566  2.1423
   92SAPS  H13Y 9060   4.360   3.974   8.014 -0.3532 -0.2838  0.3065
   92SAPS  C314 9061   4.181   4.057   8.131  0.2900  0.5334 -1.3744
   92SAPS  H14X 9062   4.117   3.967   8.121  1.5716 -0.4928 -0.6080
   92SAPS  H14Y 9063   4.126   4.154   8.128  0.7731  0.8125 -1.3940
   92SAPS  C315 9064   4.238   4.034   8.277  0.4825 -0.4659  0.4104
   92SAPS  H15X 9065   4.304   4.123   8.280  0.4943 -0.4455 -0.2752
   92SAPS  H15Y 9066   4.288   3.935   8.277 -1.3746 -1.6910 -4.4100
   92SAPS  C316 9067   4.134   4.044   8.386 -0.6722 -0.7660 -0.2893
   92SAPS  H16X 9068   4.065   3.957   8.375 -2.3240  0.5117 -0.4125
   92SAPS  H16Y 9069   4.065   4.131   8.384 -0.3977 -0.3357  3.1907
   92SAPS  C317 9070   4.187   4.051   8.527 -0.5898 -0.0487  0.2610
   92SAPS  H17X 9071   4.242   4.147   8.529  2.0436 -1.4550 -0.3756
   92SAPS  H17Y 9072   4.257   3.966   8.539  1.2730  1.6127  1.6922
   92SAPS  C318 9073   4.090   4.042   8.638  0.6914  0.3812  0.2259
   92SAPS  H18X 9074   4.025   3.953   8.629  0.2213  0.4743  2.1554
   92SAPS  H18Y 9075   4.023   4.131   8.640  1.7552  1.2176 -0.5374
   92SAPS  H18Z 9076   4.144   4.032   8.734  1.7725  0.6931 -0.3400
   93SAPS     N 9077   5.732   4.224   6.437  0.1139  0.4376  0.2059
   93SAPS   HN1 9078   5.778   4.244   6.528 -0.2764  2.0632  0.0733
   93SAPS   HN2 9079   5.640   4.177   6.444  0.1252  0.1359 -1.3408
   93SAPS   HN3 9080   5.786   4.148   6.390 -2.4781 -2.2118  1.2256
   93SAPS   C12 9081   5.722   4.345   6.350 -0.0099  0.1419 -0.1380
   93SAPS  H12A 9082   5.822   4.369   6.317 -0.6958  2.6644 -0.5535
   93SAPS   C13 9083   5.628   4.341   6.235  0.4343  0.2745  0.5134
   93SAPS  O13A 9084   5.549   4.240   6.220  0.2334  0.1314  0.3399
   93SAPS  O13B 9085   5.625   4.441   6.155  0.1477  0.5292  0.2966
   93SAPS   C11 9086   5.682   4.469   6.447 -0.3286  0.0806 -0.4552
   93SAPS  H11A 9087   5.590   4.437   6.499  1.4633 -0.7979  2.4203
   93SAPS  H11B 9088   5.673   4.559   6.382  2.1515  0.1438 -0.8327
   93SAPS     P 9089   5.864   4.618   6.545 -0.0989  0.2665 -0.2168
   93SAPS   O13 9090   5.935   4.631   6.418 -0.2697 -0.2166 -0.3610
   93SAPS   O14 9091   5.769   4.721   6.587  0.5076  0.0256  0.1411
   93SAPS   O12 9092   5.790   4.476   6.546  0.3447 -0.7737 -0.1555
   93SAPS   O11 9093   5.968   4.607   6.661 -0.3478  0.0315 -0.1569
   93SAPS    C1 9094   5.933   4.538   6.780  0.5996  0.3336 -0.1511
   93SAPS    HA 9095   5.857   4.459   6.765  1.2506 -0.2181 -0.6432
   93SAPS    HB 9096   6.019   4.475   6.812  0.6160  0.5144  0.1626
   93SAPS    C2 9097   5.864   4.636   6.884  0.1275  0.4342  0.8580
   93SAPS    HS 9098   5.797   4.704   6.827 -0.1332  1.3726  2.2346
   93SAPS   O21 9099   5.962   4.709   6.954  0.0012  0.1343  0.2005
   93SAPS   C21 9100   5.931   4.827   6.995  0.3982 -0.2834 -0.5254
   93SAPS   O22 9101   5.850   4.909   6.954  0.9247  0.1681  0.1123
   93SAPS   C22 9102   6.025   4.857   7.109 -0.4348  0.1483  0.3246
   93SAPS   H2R 9103   6.025   4.771   7.179  5.6125  1.4419  2.5141
   93SAPS   H2S 9104   6.128   4.855   7.069 -0.0871 -1.6001  1.2118
   93SAPS    C3 9105   5.773   4.556   6.980  0.6947 -0.6474  0.0606
   93SAPS    HX 9106   5.837   4.486   7.039 -0.4083  0.0990  2.2706
   93SAPS    HY 9107   5.701   4.494   6.922 -1.6776  2.1824 -0.2619
   93SAPS   O31 9108   5.698   4.632   7.081  0.0084  0.3781 -0.2019
   93SAPS   C31 9109   5.582   4.677   7.045 -0.4052 -0.4189 -0.3264
   93SAPS   O32 9110   5.533   4.667   6.930  0.2179  0.3051 -0.5174
   93SAPS   C32 9111   5.525   4.760   7.162 -0.2565  0.2946  0.5645
   93SAPS   H2X 9112   5.574   4.860   7.157  0.7890 -0.2392 -0.8644
   93SAPS   H2Y 9113   5.549   4.706   7.256 -1.8364 -0.5394  0.5189
   93SAPS   C23 9114   6.011   4.999   7.165  0.1688  0.5933 -0.8157
   93SAPS   H3R 9115   5.914   5.006   7.219  0.2252  0.5805 -0.7126
   93SAPS   H3S 9116   6.005   5.070   7.079 -1.1332  0.6283 -0.7187
   93SAPS   C24 9117   6.134   5.029   7.245 -0.5036 -0.5099 -0.1760
   93SAPS   H4R 9118   6.227   5.013   7.187 -0.7672 -0.0118 -0.7457
   93SAPS   H4S 9119   6.142   4.960   7.332 -0.6493 -2.4603 -1.6501
   93SAPS   C25 9120   6.144   5.182   7.281 -0.1369  0.0562  0.2240
   93SAPS   H5R 9121   6.136   5.250   7.195  1.2875  2.5186  1.8908
   93SAPS   C26 9122   6.157   5.232   7.406 -0.9705  0.7692 -0.1390
   93SAPS   H6R 9123   6.137   5.339   7.420  0.2768  0.8143  1.7144
   93SAPS   C27 9124   6.174   5.150   7.537 -0.4513 -0.6340  0.4163
   93SAPS   H7R 9125   6.276   5.107   7.527 -0.1596  0.1954 -0.2548
   93SAPS   H7S 9126   6.110   5.059   7.539 -0.5951 -0.5218  1.1246
   93SAPS   C28 9127   6.160   5.235   7.661 -0.0515 -0.6022  0.4943
   93SAPS   H8R 9128   6.174   5.341   7.635  0.9795 -0.8822 -0.1523
   93SAPS   C29 9129   6.147   5.196   7.791 -0.4404  0.5620 -0.3837
   93SAPS   H9R 9130   6.144   5.272   7.870 -2.4157 -0.5822  0.7046
   93SAPS  C210 9131   6.152   5.050   7.840  0.0876  0.0538 -0.1623
   93SAPS  H10R 9132   6.120   4.980   7.759  0.5667 -0.3644  0.0056
   93SAPS  H10S 9133   6.076   5.039   7.921 -0.0668  1.6197 -0.0623
   93SAPS  C211 9134   6.292   5.012   7.881  0.0638 -0.7678 -0.3984
   93SAPS  H11R 9135   6.369   5.065   7.823 -0.8570  1.6593  0.4808
   93SAPS  C212 9136   6.321   4.930   7.983  0.0125  0.3004 -0.3579
   93SAPS  H12R 9137   6.421   4.888   8.002 -1.1507 -2.2063  0.5832
   93SAPS  C213 9138   6.222   4.865   8.067  0.4249 -0.4169 -0.4546
   93SAPS  H13R 9139   6.268   4.767   8.092 -0.0236 -0.3147  0.8554
   93SAPS  H13S 9140   6.132   4.845   8.005 -0.5001  2.0292 -0.0280
   93SAPS  C214 9141   6.202   4.961   8.190  0.2411 -0.3483  0.7214
   93SAPS  H14R 9142   6.143   5.049   8.160  2.3527  0.5949 -0.9441
   93SAPS  C215 9143   6.261   4.950   8.310  0.6622  0.8137 -0.0655
   93SAPS  H15R 9144   6.223   5.024   8.382 -0.9389  0.5145 -0.5686
   93SAPS  C216 9145   6.357   4.840   8.350  0.4183 -0.5407  0.3779
   93SAPS  H16R 9146   6.328   4.756   8.284 -3.8381  1.6121 -0.8715
   93SAPS  H16S 9147   6.326   4.813   8.453 -0.8328  0.8243  0.3978
   93SAPS  C217 9148   6.499   4.895   8.341 -0.6602 -0.1116  0.0395
   93SAPS  H17R 9149   6.513   4.993   8.391  3.3535 -0.8686  0.7526
   93SAPS  H17S 9150   6.536   4.913   8.238 -0.8268  0.8662  0.1365
   93SAPS  C218 9151   6.592   4.799   8.414 -0.1593 -0.1362  0.3045
   93SAPS  H18R 9152   6.693   4.846   8.412 -0.2874  0.1620 -1.8028
   93SAPS  H18S 9153   6.603   4.702   8.360  0.1985  0.9729 -1.7007
   93SAPS  C219 9154   6.570   4.771   8.562 -0.2919  0.0514 -0.2215
   93SAPS  H19R 9155   6.465   4.738   8.578 -0.6734  1.0903 -0.5017
   93SAPS  H19S 9156   6.580   4.860   8.627 -1.9500  1.0300 -1.2429
   93SAPS  C220 9157   6.665   4.661   8.608  0.2628  0.5339 -0.0020
   93SAPS  H20R 9158   6.618   4.564   8.581 -0.4939  0.9695 -0.2925
   93SAPS  H20S 9159   6.665   4.654   8.719 -1.4111 -1.2213 -0.0686
   93SAPS  H20T 9160   6.763   4.675   8.559  0.2909 -1.9027 -0.7466
   93SAPS   C33 9161   5.373   4.782   7.143  0.7415  0.1048  0.1650
   93SAPS   H3X 9162   5.317   4.691   7.171 -0.8237  1.1806  0.7098
   93SAPS   H3Y 9163   5.349   4.822   7.042  2.9674 -0.1112 -0.5005
   93SAPS   C34 9164   5.330   4.890   7.248  0.6827 -0.5617 -0.0242
   93SAPS   H4X 9165   5.222   4.906   7.229  0.8730 -0.6837 -1.3392
   93SAPS   H4Y 9166   5.379   4.987   7.224 -1.8260  0.4462 -1.4572
   93SAPS   C35 9167   5.355   4.850   7.392 -0.1096  0.4218 -0.0886
   93SAPS   H5X 9168   5.464   4.848   7.412  0.1030  0.0030 -1.2011
   93SAPS   H5Y 9169   5.315   4.747   7.406 -1.0601  0.9954  1.7703
   93SAPS   C36 9170   5.296   4.932   7.506 -0.7868  0.2300 -0.3766
   93SAPS   H6X 9171   5.190   4.959   7.487 -0.6878  1.1994  0.3271
   93SAPS   H6Y 9172   5.353   5.027   7.509  0.1067 -0.2887 -0.6326
   93SAPS   C37 9173   5.319   4.856   7.646  0.7051  0.2244  1.0913
   93SAPS   H7X 9174   5.424   4.821   7.638  0.2386 -1.2478  1.0962
   93SAPS   H7Y 9175   5.253   4.766   7.642  1.8186 -0.5628 -0.6621
   93SAPS   C38 9176   5.300   4.953   7.764  0.0851  0.2967  0.5100
   93SAPS   H8X 9177   5.193   4.983   7.761 -0.2120 -0.6334  1.3217
   93SAPS   H8Y 9178   5.369   5.039   7.753  1.9130 -1.2460 -0.8845
   93SAPS   C39 9179   5.330   4.884   7.902 -0.3538  0.4393  1.2859
   93SAPS   H9X 9180   5.434   4.847   7.891 -0.9981 -1.2082  0.4585
   93SAPS   H9Y 9181   5.263   4.796   7.904  0.4321 -0.2788 -0.7088
   93SAPS  C310 9182   5.307   4.968   8.024 -1.1462 -0.3422 -0.1498
   93SAPS  H10X 9183   5.199   4.979   8.049 -1.5265  0.7058 -2.0397
   93SAPS  H10Y 9184   5.338   5.070   7.991 -0.2870  0.0399  1.7048
   93SAPS  C311 9185   5.393   4.932   8.145  0.3861 -0.2285 -0.0580
   93SAPS  H11X 9186   5.494   4.930   8.100  0.8486 -1.3230  0.9621
   93SAPS  H11Y 9187   5.371   4.833   8.191  0.5815 -0.5332 -0.6087
   93SAPS  C312 9188   5.396   5.033   8.263  0.0132 -0.0618  0.3786
   93SAPS  H12X 9189   5.307   5.056   8.325 -0.3937  0.1991 -0.2968
   93SAPS  H12Y 9190   5.426   5.127   8.213 -3.5842  1.6631  1.1329
   93SAPS  C313 9191   5.510   4.993   8.363  0.4027 -0.4213  0.0733
   93SAPS  H13X 9192   5.598   4.956   8.306 -0.2545  0.1560 -1.3701
   93SAPS  H13Y 9193   5.474   4.913   8.432  0.2895 -1.4941 -1.1931
   93SAPS  C314 9194   5.554   5.118   8.453 -0.2426  0.0887  0.0433
   93SAPS  H14X 9195   5.451   5.144   8.487 -0.8675 -1.4543 -0.5551
   93SAPS  H14Y 9196   5.605   5.193   8.390 -1.0999 -1.5697 -2.7806
   93SAPS  C315 9197   5.646   5.081   8.567  0.9330  0.8609  0.1400
   93SAPS  H15X 9198   5.735   5.029   8.525 -0.0799 -1.2520  0.4645
   93SAPS  H15Y 9199   5.603   5.002   8.631  2.8784 -0.9088 -0.6175
   93SAPS  C316 9200   5.703   5.201   8.655  0.0274  0.1061  0.5389
   93SAPS  H16X 9201   5.620   5.266   8.690  0.6013  1.5671 -0.7306
   93SAPS  H16Y 9202   5.770   5.263   8.592 -1.4780  2.5735  1.2261
   93SAPS  C317 9203   5.776   5.133   8.778  0.2685  0.2919 -0.1636
   93SAPS  H17X 9204   5.827   5.044   8.735  0.7872 -0.0201  1.0707
   93SAPS  H17Y 9205   5.702   5.083   8.843  1.0178 -0.2515  0.2840
   93SAPS  C318 9206   5.884   5.221   8.852 -0.4527 -0.2116  0.3795
   93SAPS  H18X 9207   5.927   5.155   8.930 -0.3779  0.3575  0.8367
   93SAPS  H18Y 9208   5.837   5.309   8.902  1.7988  0.6820  1.0234
   93SAPS  H18Z 9209   5.964   5.266   8.789  0.1194  0.2886  1.4337
   94SAPS     N 9210   6.205   1.361   6.010  0.6574 -0.2417  0.3614
   94SAPS   HN1 9211   6.291   1.400   5.968 -0.1480 -0.4204 -1.5334
   94SAPS   HN2 9212   6.227   1.365   6.112  0.1536 -0.1944  0.4734
   94SAPS   HN3 9213   6.194   1.264   5.975 -0.6132 -1.2897  3.3232
   94SAPS   C12 9214   6.088   1.446   5.976  0.1491 -0.0775  0.3619
   94SAPS  H12A 9215   6.002   1.416   6.035  0.6977  1.9312  2.3307
   94SAPS   C13 9216   6.115   1.590   6.030  0.3516 -0.5774  0.6797
   94SAPS  O13A 9217   6.232   1.639   6.018  0.0685  0.8973 -0.4963
   94SAPS  O13B 9218   6.017   1.666   6.031 -0.1621 -0.7758  0.2624
   94SAPS   C11 9219   6.072   1.457   5.822 -0.2062 -0.2707 -0.0178
   94SAPS  H11A 9220   6.157   1.514   5.777 -1.4854 -0.5795 -3.0951
   94SAPS  H11B 9221   5.983   1.521   5.802  0.2360  0.4778  0.3635
   94SAPS     P 9222   5.922   1.264   5.727  0.2693 -0.2638  0.0611
   94SAPS   O13 9223   5.846   1.339   5.624 -0.2647 -0.1181 -0.0228
   94SAPS   O14 9224   5.951   1.120   5.712 -0.2113  0.5346 -0.1176
   94SAPS   O12 9225   6.054   1.335   5.759 -0.0821 -0.0165  0.7775
   94SAPS   O11 9226   5.846   1.283   5.866 -0.0596  0.2625 -0.3429
   94SAPS    C1 9227   5.712   1.322   5.885 -0.0481 -0.9650  0.0219
   94SAPS    HA 9228   5.719   1.430   5.912 -0.4730 -1.3446  1.7483
   94SAPS    HB 9229   5.647   1.320   5.795 -0.4357  2.1811  0.1161
   94SAPS    C2 9230   5.636   1.228   5.979 -0.2420  0.1400  0.4332
   94SAPS    HS 9231   5.528   1.255   5.982 -0.1885  0.2332  1.7858
   94SAPS   O21 9232   5.707   1.237   6.103  0.4153 -0.1913 -0.2261
   94SAPS   C21 9233   5.673   1.343   6.181  0.7997 -0.4139 -0.3656
   94SAPS   O22 9234   5.570   1.408   6.168 -0.1220 -0.6059 -0.5349
   94SAPS   C22 9235   5.787   1.375   6.289 -0.4292  0.2146 -0.0026
   94SAPS   H2R 9236   5.839   1.283   6.322 -0.1921  0.2742 -0.2016
   94SAPS   H2S 9237   5.849   1.438   6.221 -0.9732  0.5028 -0.2433
   94SAPS    C3 9238   5.635   1.085   5.921 -0.1356  0.5289 -0.2482
   94SAPS    HX 9239   5.739   1.057   5.894 -0.5871 -0.3832 -1.1336
   94SAPS    HY 9240   5.575   1.074   5.828 -0.4380 -0.2624  0.0357
   94SAPS   O31 9241   5.568   1.003   6.009  0.1017  0.2675  0.0191
   94SAPS   C31 9242   5.646   0.925   6.087  0.5069 -0.1683  0.2602
   94SAPS   O32 9243   5.767   0.922   6.084  0.1638  0.2962 -0.3126
   94SAPS   C32 9244   5.554   0.848   6.184  0.4628 -0.9314 -0.3824
   94SAPS   H2X 9245   5.617   0.770   6.233 -0.6839 -1.6188  0.0473
   94SAPS   H2Y 9246   5.485   0.793   6.116 -0.4614 -0.0037 -0.2216
   94SAPS   C23 9247   5.741   1.447   6.412  0.1185  0.1528  0.2080
   94SAPS   H3R 9248   5.662   1.394   6.469  0.8303 -0.0827  0.9923
   94SAPS   H3S 9249   5.700   1.543   6.373 -1.0954 -0.3853  0.1219
   94SAPS   C24 9250   5.852   1.473   6.511 -0.3147  0.9240 -0.3123
   94SAPS   H4R 9251   5.828   1.565   6.568  1.3679  1.8185 -0.9924
   94SAPS   H4S 9252   5.938   1.503   6.447  1.7990 -0.8732  1.4871
   94SAPS   C25 9253   5.885   1.350   6.601 -0.9062 -0.3500  0.4217
   94SAPS   H5R 9254   5.952   1.277   6.552  1.5906  1.5172  0.8616
   94SAPS   C26 9255   5.838   1.332   6.722 -0.0915  0.9294 -0.4697
   94SAPS   H6R 9256   5.839   1.232   6.768 -0.0692  1.3592  0.4799
   94SAPS   C27 9257   5.745   1.419   6.793 -0.2578 -0.0178 -0.4485
   94SAPS   H7R 9258   5.639   1.402   6.764 -0.0378 -1.6700 -0.4065
   94SAPS   H7S 9259   5.758   1.528   6.777  1.5127 -0.0926  0.2608
   94SAPS   C28 9260   5.738   1.408   6.945 -0.6185 -0.0921 -0.9010
   94SAPS   H8R 9261   5.836   1.383   6.987 -0.7303 -1.8836 -1.6136
   94SAPS   C29 9262   5.629   1.425   7.026 -0.1096  0.6157  0.0770
   94SAPS   H9R 9263   5.640   1.395   7.131 -0.1910  0.4827  0.0471
   94SAPS  C210 9264   5.493   1.451   6.969 -0.4130 -0.0906  0.4002
   94SAPS  H10R 9265   5.468   1.385   6.883 -2.0561  0.4273  0.4413
   94SAPS  H10S 9266   5.487   1.553   6.925 -1.4774 -0.0557  0.5828
   94SAPS  C211 9267   5.373   1.442   7.058 -0.2873  0.5453 -0.2580
   94SAPS  H11R 9268   5.308   1.362   7.019  1.9314 -1.2281 -0.5033
   94SAPS  C212 9269   5.342   1.504   7.173  0.3824 -0.0340  0.0615
   94SAPS  H12R 9270   5.254   1.456   7.218  0.5981 -1.4449 -0.9137
   94SAPS  C213 9271   5.431   1.598   7.246  0.2285  0.3615 -0.6580
   94SAPS  H13R 9272   5.376   1.692   7.266 -0.3882  0.4030 -2.4015
   94SAPS  H13S 9273   5.512   1.636   7.179  1.4794  0.0409  0.6239
   94SAPS  C214 9274   5.503   1.524   7.359  0.1833  0.8520  0.3724
   94SAPS  H14R 9275   5.608   1.501   7.337 -0.4490 -0.7316 -1.2226
   94SAPS  C215 9276   5.446   1.478   7.479 -0.6487  0.3293 -0.4023
   94SAPS  H15R 9277   5.503   1.416   7.549  0.5319  2.6156  0.7526
   94SAPS  C216 9278   5.302   1.508   7.520 -0.1380 -0.0080  0.3643
   94SAPS  H16R 9279   5.245   1.413   7.504 -1.9673  1.4763 -2.9196
   94SAPS  H16S 9280   5.244   1.578   7.456  2.5996  3.3606  1.3085
   94SAPS  C217 9281   5.272   1.551   7.660 -0.1165 -0.3208  0.4902
   94SAPS  H17R 9282   5.170   1.594   7.674 -0.0445  0.2851 -0.7877
   94SAPS  H17S 9283   5.354   1.621   7.685 -0.1545 -0.7014  1.7592
   94SAPS  C218 9284   5.290   1.427   7.752 -0.4049 -0.5943 -0.2925
   94SAPS  H18R 9285   5.392   1.384   7.738 -0.1241 -0.5775  1.4359
   94SAPS  H18S 9286   5.214   1.354   7.717 -1.4105  0.0443  0.4949
   94SAPS  C219 9287   5.275   1.472   7.905  0.5149  0.5086 -0.1891
   94SAPS  H19R 9288   5.178   1.526   7.911  0.6232  0.8035 -0.9497
   94SAPS  H19S 9289   5.352   1.542   7.942  1.3125 -0.6483  0.4208
   94SAPS  C220 9290   5.281   1.349   7.998  0.1720  0.3114  0.6592
   94SAPS  H20R 9291   5.203   1.276   7.968  0.5801 -0.1169  0.6192
   94SAPS  H20S 9292   5.272   1.374   8.105  1.5140 -0.0548  0.8784
   94SAPS  H20T 9293   5.381   1.301   7.999  0.4106  0.7431 -0.5656
   94SAPS   C33 9294   5.489   0.941   6.286  0.6101  0.2249  0.7741
   94SAPS   H3X 9295   5.409   0.874   6.324  0.6656  0.0657  0.6117
   94SAPS   H3Y 9296   5.439   1.030   6.243 -1.1666 -1.1152 -0.0898
   94SAPS   C34 9297   5.574   0.983   6.404  0.0011  1.1472 -0.4286
   94SAPS   H4X 9298   5.632   1.069   6.364  1.2499 -0.3252 -1.9449
   94SAPS   H4Y 9299   5.646   0.901   6.423  1.1896  2.6599  2.1947
   94SAPS   C35 9300   5.498   1.010   6.529 -0.2033 -0.7052 -0.7456
   94SAPS   H5X 9301   5.437   0.922   6.557 -0.9081  0.0932  0.3017
   94SAPS   H5Y 9302   5.437   1.101   6.512 -0.3005  0.1387  3.2684
   94SAPS   C36 9303   5.586   1.046   6.652  0.6895  0.1184 -0.5611
   94SAPS   H6X 9304   5.604   1.156   6.654 -1.2214  0.4546  0.0008
   94SAPS   H6Y 9305   5.685   1.002   6.629  1.4831  1.6160 -0.1225
   94SAPS   C37 9306   5.542   0.982   6.781 -0.3015  0.2319  0.1979
   94SAPS   H7X 9307   5.533   0.871   6.775 -2.0790  0.3684 -0.5062
   94SAPS   H7Y 9308   5.442   1.016   6.815 -0.3681  0.3219 -0.0902
   94SAPS   C38 9309   5.637   1.025   6.889  0.1864 -0.1027  0.5926
   94SAPS   H8X 9310   5.647   1.135   6.892  1.0976 -0.1374 -0.5108
   94SAPS   H8Y 9311   5.740   0.991   6.867  1.7703  2.4217  3.4500
   94SAPS   C39 9312   5.595   0.976   7.032  0.4732 -0.4467 -0.4542
   94SAPS   H9X 9313   5.619   0.868   7.032  2.3842 -0.1103 -2.8047
   94SAPS   H9Y 9314   5.485   0.988   7.046  0.4063 -1.3290 -0.1790
   94SAPS  C310 9315   5.684   1.054   7.134  0.1628  0.8343  0.5955
   94SAPS  H10X 9316   5.658   1.161   7.121 -1.0167  0.3772 -1.0348
   94SAPS  H10Y 9317   5.785   1.043   7.090 -0.4737 -1.8404 -0.3696
   94SAPS  C311 9318   5.681   1.000   7.279 -0.0768  0.0956  1.2845
   94SAPS  H11X 9319   5.786   1.012   7.311  0.4900 -0.1690 -0.4003
   94SAPS  H11Y 9320   5.647   0.894   7.276  3.2318 -1.0493 -0.2955
   94SAPS  C312 9321   5.596   1.092   7.368  0.0119 -0.5715  0.3930
   94SAPS  H12X 9322   5.498   1.105   7.316 -0.5338 -0.7146  1.3581
   94SAPS  H12Y 9323   5.648   1.190   7.373 -3.0913  1.1808  0.9501
   94SAPS  C313 9324   5.578   1.038   7.507  0.6026 -0.1166  0.4978
   94SAPS  H13X 9325   5.678   1.050   7.555  1.5151 -1.0915 -1.0761
   94SAPS  H13Y 9326   5.555   0.929   7.509 -1.4202  0.2923  1.5321
   94SAPS  C314 9327   5.471   1.121   7.586  0.0678 -0.2636 -0.3421
   94SAPS  H14X 9328   5.375   1.105   7.533  0.6202  0.9466 -1.7863
   94SAPS  H14Y 9329   5.479   1.230   7.569  0.0498 -0.4464 -1.6525
   94SAPS  C315 9330   5.481   1.089   7.734  0.2112 -0.4102  0.3331
   94SAPS  H15X 9331   5.454   0.982   7.747 -0.0074 -0.4072 -0.1196
   94SAPS  H15Y 9332   5.397   1.149   7.774  0.1369 -0.0280 -0.3871
   94SAPS  C316 9333   5.609   1.137   7.808  0.9293  0.3746  0.5112
   94SAPS  H16X 9334   5.593   1.244   7.834 -0.1063  0.8802 -1.9397
   94SAPS  H16Y 9335   5.696   1.135   7.739  1.3864 -0.5190  1.0833
   94SAPS  C317 9336   5.650   1.057   7.928 -0.0163  0.2467  0.2928
   94SAPS  H17X 9337   5.755   1.072   7.961  0.1275 -1.9787  1.0578
   94SAPS  H17Y 9338   5.639   0.946   7.929 -1.8424  0.3616  2.2301
   94SAPS  C318 9339   5.579   1.105   8.057 -0.2634  0.0989 -1.0112
   94SAPS  H18X 9340   5.579   1.214   8.078  0.2574 -0.2791  1.1179
   94SAPS  H18Y 9341   5.624   1.042   8.137 -2.0535 -0.1830 -0.1645
   94SAPS  H18Z 9342   5.474   1.068   8.045  0.3368 -1.6679 -1.1274
   95SAPS     N 9343   0.790   4.165   6.249 -0.0829  0.0954 -0.1624
   95SAPS   HN1 9344   0.753   4.087   6.307  1.5201 -1.4799 -1.1706
   95SAPS   HN2 9345   0.808   4.246   6.312  0.0173 -0.0633  0.0187
   95SAPS   HN3 9346   0.715   4.187   6.181  1.6473  0.0203 -2.1953
   95SAPS   C12 9347   0.917   4.134   6.167  0.1452 -0.0890 -0.6578
   95SAPS  H12A 9348   0.878   4.082   6.081  0.3822  0.0403 -0.8463
   95SAPS   C13 9349   0.988   4.265   6.120  0.2357  0.3935  0.5799
   95SAPS  O13A 9350   0.931   4.377   6.119  0.6352 -0.2650  0.3210
   95SAPS  O13B 9351   1.097   4.247   6.064 -0.4556 -0.4018 -0.1700
   95SAPS   C11 9352   1.010   4.057   6.262 -0.2636 -0.3456 -0.4990
   95SAPS  H11A 9353   1.018   4.120   6.353  1.2179 -0.0479 -0.8134
   95SAPS  H11B 9354   1.108   4.041   6.212 -0.6381 -2.5107 -0.6204
   95SAPS     P 9355   0.970   3.797   6.214  0.5767  0.0913 -0.5225
   95SAPS   O13 9356   0.837   3.730   6.192 -0.5065 -0.8731 -0.0140
   95SAPS   O14 9357   1.056   3.845   6.105  0.1013  0.2599  0.3350
   95SAPS   O12 9358   0.952   3.930   6.303  0.0456  0.1486 -0.4501
   95SAPS   O11 9359   1.062   3.707   6.309 -0.1276  0.1539  0.4465
   95SAPS    C1 9360   1.152   3.760   6.401  0.1848 -0.4417  0.4725
   95SAPS    HA 9361   1.256   3.733   6.374  0.9481  3.3122 -0.9512
   95SAPS    HB 9362   1.172   3.868   6.391 -0.6285 -0.3610 -0.5132
   95SAPS    C2 9363   1.109   3.728   6.545  0.7184 -0.2916  0.1377
   95SAPS    HS 9364   1.187   3.758   6.618 -1.1064  2.4372  1.1155
   95SAPS   O21 9365   1.079   3.588   6.571  0.0104  0.0633  0.3098
   95SAPS   C21 9366   1.176   3.507   6.569 -0.1371  0.2882  0.1057
   95SAPS   O22 9367   1.292   3.538   6.569 -0.3339  0.0801  0.5953
   95SAPS   C22 9368   1.117   3.368   6.593  0.5117  0.0768 -0.1478
   95SAPS   H2R 9369   1.015   3.375   6.636 -0.1172  1.4125 -1.7766
   95SAPS   H2S 9370   1.106   3.311   6.498 -0.1243  0.9982 -0.6436
   95SAPS    C3 9371   0.982   3.816   6.583  0.0681  0.7004 -0.2805
   95SAPS    HX 9372   0.906   3.764   6.521  0.2888  0.6905 -0.5419
   95SAPS    HY 9373   1.002   3.920   6.550 -1.6979  0.8628 -0.9926
   95SAPS   O31 9374   0.955   3.798   6.725  0.4494  0.0741  0.3920
   95SAPS   C31 9375   0.828   3.837   6.753 -0.3679  0.2183  0.4038
   95SAPS   O32 9376   0.758   3.883   6.669  0.6258  0.0969  0.0526
   95SAPS   C32 9377   0.786   3.791   6.897  0.0191 -0.5039 -0.3382
   95SAPS   H2X 9378   0.872   3.813   6.964  0.2573  1.2352 -1.1736
   95SAPS   H2Y 9379   0.778   3.681   6.882 -2.4966 -0.2494 -1.3528
   95SAPS   C23 9380   1.203   3.283   6.694 -0.0845  0.4436  0.1930
   95SAPS   H3R 9381   1.303   3.284   6.645  0.4080 -1.5830  1.0515
   95SAPS   H3S 9382   1.175   3.176   6.689  0.1255  0.3853  0.2340
   95SAPS   C24 9383   1.244   3.339   6.831  0.1991  0.1162  0.5734
   95SAPS   H4R 9384   1.240   3.450   6.832  1.3205  0.1606  1.7633
   95SAPS   H4S 9385   1.347   3.313   6.863 -0.7092 -1.5163  2.3309
   95SAPS   C25 9386   1.139   3.281   6.917  0.1669 -0.5659 -0.2635
   95SAPS   H5R 9387   1.041   3.281   6.869 -0.4132  2.4094  0.6897
   95SAPS   C26 9388   1.159   3.237   7.044 -0.4089  0.0039 -0.0281
   95SAPS   H6R 9389   1.078   3.189   7.100  0.6844  0.2215  1.7928
   95SAPS   C27 9390   1.290   3.244   7.118  0.0949 -0.2930  0.4784
   95SAPS   H7R 9391   1.372   3.290   7.059  0.4797  1.8636  2.5538
   95SAPS   H7S 9392   1.324   3.144   7.154 -0.6009 -0.9281 -0.5809
   95SAPS   C28 9393   1.268   3.336   7.238 -0.2347 -0.4927 -0.6588
   95SAPS   H8R 9394   1.253   3.440   7.203  1.9185  0.1311  0.0757
   95SAPS   C29 9395   1.289   3.309   7.366 -0.1200  0.2514  0.4230
   95SAPS   H9R 9396   1.285   3.391   7.439 -1.4548  0.1201  0.5233
   95SAPS  C210 9397   1.334   3.173   7.423 -0.0037  0.6031 -0.2164
   95SAPS  H10R 9398   1.443   3.160   7.404  0.2286 -0.5101  1.5731
   95SAPS  H10S 9399   1.293   3.083   7.372 -2.0737 -0.1769  2.5619
   95SAPS  C211 9400   1.320   3.161   7.575  0.1940  0.1426  0.2602
   95SAPS  H11R 9401   1.394   3.215   7.635 -2.6962  1.0135  3.4049
   95SAPS  C212 9402   1.227   3.102   7.650 -0.0998 -0.1466 -0.0179
   95SAPS  H12R 9403   1.241   3.102   7.759  2.2962  0.0229 -0.2657
   95SAPS  C213 9404   1.112   3.015   7.599 -0.1863  0.0000 -0.0213
   95SAPS  H13R 9405   1.123   2.968   7.499 -0.3002  1.6491 -0.8408
   95SAPS  H13S 9406   1.027   3.084   7.579 -0.7948 -1.0449 -1.1459
   95SAPS  C214 9407   1.054   2.911   7.685  0.0983  0.1948  0.1185
   95SAPS  H14R 9408   0.946   2.922   7.700  0.1753  1.7989 -0.3794
   95SAPS  C215 9409   1.120   2.809   7.743 -0.1016 -0.8289 -0.0957
   95SAPS  H15R 9410   1.064   2.735   7.802 -0.3429 -0.6057 -0.0422
   95SAPS  C216 9411   1.270   2.773   7.734  0.4927  0.3705 -0.2521
   95SAPS  H16R 9412   1.327   2.848   7.675 -0.3040  1.6920  0.6263
   95SAPS  H16S 9413   1.286   2.675   7.682  0.4742  0.0226  0.3928
   95SAPS  C217 9414   1.341   2.758   7.875 -0.1407  0.0428 -0.7365
   95SAPS  H17R 9415   1.349   2.861   7.917 -0.1509  1.4582 -3.9192
   95SAPS  H17S 9416   1.445   2.725   7.857 -0.2052 -0.0510 -0.9455
   95SAPS  C218 9417   1.276   2.657   7.983 -0.1749 -0.0313 -0.1816
   95SAPS  H18R 9418   1.254   2.557   7.941  1.1086  0.5018 -2.2758
   95SAPS  H18S 9419   1.176   2.698   8.009 -0.4284 -1.1966  0.7897
   95SAPS  C219 9420   1.360   2.626   8.110 -0.3345  0.3375 -0.4016
   95SAPS  H19R 9421   1.378   2.727   8.153 -0.4846  0.3062 -0.2619
   95SAPS  H19S 9422   1.455   2.582   8.074  0.2417  1.3892 -0.1975
   95SAPS  C220 9423   1.293   2.539   8.211 -0.3398 -0.0532 -0.3424
   95SAPS  H20R 9424   1.263   2.439   8.174 -0.9531  0.1332 -0.3667
   95SAPS  H20S 9425   1.205   2.578   8.266  0.0794 -0.1001  0.3722
   95SAPS  H20T 9426   1.369   2.528   8.292 -0.1137 -1.1724 -0.6978
   95SAPS   C33 9427   0.651   3.845   6.942  0.5220  0.0304 -0.8426
   95SAPS   H3X 9428   0.568   3.832   6.870 -2.6464  0.8070  2.3880
   95SAPS   H3Y 9429   0.660   3.952   6.971  1.3449 -0.1128 -0.5235
   95SAPS   C34 9430   0.618   3.777   7.073 -0.0012  0.1847  0.6546
   95SAPS   H4X 9431   0.680   3.828   7.151  1.0232 -0.0815  0.0260
   95SAPS   H4Y 9432   0.662   3.675   7.064  0.1245  0.3670 -1.1668
   95SAPS   C35 9433   0.472   3.762   7.114 -0.3339 -0.2728  0.2852
   95SAPS   H5X 9434   0.422   3.693   7.044  1.4689 -1.4327  0.0591
   95SAPS   H5Y 9435   0.419   3.859   7.119  1.8769  1.0752 -1.0520
   95SAPS   C36 9436   0.463   3.689   7.251 -0.3540 -0.1844 -0.2708
   95SAPS   H6X 9437   0.564   3.646   7.270 -0.9100 -0.4119  2.5543
   95SAPS   H6Y 9438   0.386   3.612   7.234 -0.0762 -0.1706 -1.7389
   95SAPS   C37 9439   0.417   3.786   7.362  0.4910 -0.2275 -0.7826
   95SAPS   H7X 9440   0.331   3.842   7.320 -1.4002 -2.0118  0.4568
   95SAPS   H7Y 9441   0.507   3.848   7.382  0.3102  0.0574 -0.8598
   95SAPS   C38 9442   0.393   3.714   7.495 -0.6955  0.4129 -0.3451
   95SAPS   H8X 9443   0.482   3.648   7.506 -0.3430  0.5184 -2.3043
   95SAPS   H8Y 9444   0.302   3.650   7.492 -0.0089 -0.5438 -2.4888
   95SAPS   C39 9445   0.386   3.813   7.617 -0.2114  0.5954  0.0807
   95SAPS   H9X 9446   0.311   3.895   7.617  0.3409  1.1771  2.3447
   95SAPS   H9Y 9447   0.479   3.873   7.604  0.7279 -0.4261  1.7461
   95SAPS  C310 9448   0.388   3.724   7.747  0.0401 -0.1867 -0.0335
   95SAPS  H10X 9449   0.469   3.651   7.728  1.7691  1.7798 -0.6258
   95SAPS  H10Y 9450   0.289   3.674   7.760 -0.9778  2.1418  2.1032
   95SAPS  C311 9451   0.430   3.814   7.867  0.5075 -0.5488 -0.0557
   95SAPS  H11X 9452   0.357   3.892   7.898 -1.4573 -1.9403 -0.9856
   95SAPS  H11Y 9453   0.520   3.867   7.830 -0.7141  2.3252  0.7500
   95SAPS  C312 9454   0.461   3.728   7.997 -0.2786 -0.1059 -0.0282
   95SAPS  H12X 9455   0.457   3.797   8.084  0.9713  1.2147 -0.9575
   95SAPS  H12Y 9456   0.568   3.700   7.982  0.5609  1.8931  1.5890
   95SAPS  C313 9457   0.359   3.620   8.039 -0.2440 -0.4756  0.1083
   95SAPS  H13X 9458   0.340   3.559   7.948 -0.2953  1.2705 -1.1034
   95SAPS  H13Y 9459   0.262   3.669   8.064  0.1262  1.0734 -1.3285
   95SAPS  C314 9460   0.408   3.524   8.147  0.1876 -0.5184 -0.2115
   95SAPS  H14X 9461   0.512   3.491   8.124  0.3078 -0.3948  0.1467
   95SAPS  H14Y 9462   0.347   3.432   8.139 -0.4212 -0.4646  2.7396
   95SAPS  C315 9463   0.383   3.556   8.295  0.0389  0.0615  0.0533
   95SAPS  H15X 9464   0.405   3.465   8.355 -3.6926 -0.8822  0.2348
   95SAPS  H15Y 9465   0.272   3.566   8.292 -0.2124 -2.1685 -0.0183
   95SAPS  C316 9466   0.448   3.682   8.359  0.5901 -0.0031  0.3160
   95SAPS  H16X 9467   0.401   3.705   8.457 -2.5795 -2.5308 -0.4556
   95SAPS  H16Y 9468   0.414   3.769   8.299  2.0762  1.8721  2.0467
   95SAPS  C317 9469   0.602   3.676   8.369 -0.0671  0.7194 -0.1378
   95SAPS  H17X 9470   0.655   3.768   8.335  0.4004  0.6791  0.4716
   95SAPS  H17Y 9471   0.636   3.598   8.298  1.1030 -0.0358  1.2004
   95SAPS  C318 9472   0.653   3.641   8.509  0.3885 -0.2827 -0.2246
   95SAPS  H18X 9473   0.764   3.639   8.519  0.1922 -1.3667  2.2938
   95SAPS  H18Y 9474   0.611   3.543   8.539  2.3669 -0.8965  0.7293
   95SAPS  H18Z 9475   0.623   3.713   8.588  2.0585  0.1897  0.0193
   96SAPS     N 9476   2.767   5.928   6.617  0.2460  0.0154  0.0983
   96SAPS   HN1 9477   2.718   5.839   6.593  1.0709 -0.5577  0.4772
   96SAPS   HN2 9478   2.846   5.907   6.681 -0.9771 -1.2888  1.2913
   96SAPS   HN3 9479   2.699   5.995   6.658 -0.6003 -0.1590 -0.9826
   96SAPS   C12 9480   2.821   5.984   6.490  0.4469  0.4321  0.3039
   96SAPS  H12A 9481   2.862   6.082   6.506 -0.1545  0.7556 -0.0863
   96SAPS   C13 9482   2.923   5.890   6.427  0.6974 -0.3652 -0.4123
   96SAPS  O13A 9483   2.936   5.771   6.467  0.9012  0.5431 -0.2098
   96SAPS  O13B 9484   2.968   5.925   6.314  0.0413  0.0834 -0.1069
   96SAPS   C11 9485   2.709   6.004   6.385 -0.0108 -0.7797  0.1389
   96SAPS  H11A 9486   2.683   5.901   6.352  0.2931 -0.4697 -1.1412
   96SAPS  H11B 9487   2.752   6.066   6.303  1.8309 -2.2244 -0.0457
   96SAPS     P 9488   2.560   6.222   6.402 -0.3177  0.0484  0.4386
   96SAPS   O13 9489   2.671   6.292   6.333  0.1489 -0.5048 -0.1049
   96SAPS   O14 9490   2.426   6.207   6.342 -0.0713 -0.4251 -0.3591
   96SAPS   O12 9491   2.597   6.073   6.441  0.5111  0.9497 -0.7022
   96SAPS   O11 9492   2.549   6.289   6.544  0.5452 -0.2000 -0.4121
   96SAPS    C1 9493   2.421   6.334   6.591  0.1772 -0.1194 -0.1084
   96SAPS    HA 9494   2.443   6.396   6.680  0.9356  0.7248 -0.8678
   96SAPS    HB 9495   2.359   6.394   6.521 -1.3769 -0.5441  0.8634
   96SAPS    C2 9496   2.321   6.216   6.633  0.0252  0.1456 -0.1009
   96SAPS    HS 9497   2.291   6.168   6.537  1.7732 -0.5323 -0.3563
   96SAPS   O21 9498   2.223   6.296   6.693  0.0243 -0.4218 -0.3991
   96SAPS   C21 9499   2.129   6.230   6.766  0.1439 -0.2258 -0.2354
   96SAPS   O22 9500   2.068   6.128   6.725 -0.3822 -0.6242 -0.0101
   96SAPS   C22 9501   2.084   6.317   6.887  0.3781 -0.3083 -0.0127
   96SAPS   H2R 9502   2.093   6.425   6.860  2.2435 -0.4150  0.0760
   96SAPS   H2S 9503   1.975   6.303   6.906  0.5882 -1.7153  0.2585
   96SAPS    C3 9504   2.381   6.097   6.710  0.1932  0.7838 -0.0504
   96SAPS    HX 9505   2.456   6.053   6.640  1.0838  1.9962  0.1179
   96SAPS    HY 9506   2.305   6.017   6.727 -1.5136  2.3167 -0.1569
   96SAPS   O31 9507   2.429   6.144   6.840 -0.5343 -0.4903 -0.4196
   96SAPS   C31 9508   2.495   6.047   6.913  0.2378  0.3644 -0.5328
   96SAPS   O32 9509   2.501   5.929   6.879  0.4499 -0.6285 -0.3681
   96SAPS   C32 9510   2.544   6.107   7.041 -0.7341 -0.5496 -0.3515
   96SAPS   H2X 9511   2.494   6.056   7.126  1.7342 -2.6150 -0.0096
   96SAPS   H2Y 9512   2.523   6.216   7.034 -1.6351 -0.8122 -2.3746
   96SAPS   C23 9513   2.166   6.271   7.002 -0.6320 -0.9378  0.0458
   96SAPS   H3R 9514   2.143   6.343   7.084  0.4721 -0.2074 -0.2632
   96SAPS   H3S 9515   2.275   6.268   6.982 -0.8496 -1.9755 -1.0867
   96SAPS   C24 9516   2.126   6.125   7.056  0.1393 -0.2758 -1.3502
   96SAPS   H4R 9517   2.159   6.057   6.974 -2.5704 -2.1049 -1.0353
   96SAPS   H4S 9518   2.017   6.113   7.073  0.5850 -0.4936  1.9300
   96SAPS   C25 9519   2.198   6.103   7.188 -0.6298  0.0435 -0.2366
   96SAPS   H5R 9520   2.297   6.152   7.189 -1.4056  1.6928 -0.6458
   96SAPS   C26 9521   2.163   6.023   7.298  0.2382 -0.3863  0.9028
   96SAPS   H6R 9522   2.223   6.025   7.389  1.2877  1.2035  0.2014
   96SAPS   C27 9523   2.045   5.942   7.321  0.2479  0.1240 -0.2453
   96SAPS   H7R 9524   1.960   5.988   7.265  0.3322  0.2662 -0.2575
   96SAPS   H7S 9525   2.010   5.943   7.426  0.0367 -1.1916 -0.2907
   96SAPS   C28 9526   2.054   5.808   7.274  0.1570 -0.8090 -0.2894
   96SAPS   H8R 9527   2.037   5.803   7.165  1.3806  0.4744 -0.5630
   96SAPS   C29 9528   2.066   5.692   7.341  0.4273  0.1099 -0.0365
   96SAPS   H9R 9529   2.062   5.598   7.284  0.9053 -1.4659  2.3899
   96SAPS  C210 9530   2.074   5.674   7.493  0.4005 -0.2962  0.2114
   96SAPS  H10R 9531   2.136   5.758   7.531  1.8315 -1.2357  0.0570
   96SAPS  H10S 9532   2.134   5.587   7.527  0.7183 -0.3889 -0.5722
   96SAPS  C211 9533   1.946   5.659   7.560  0.3935  0.2058 -0.9501
   96SAPS  H11R 9534   1.859   5.646   7.494 -1.1030  1.4252  0.6781
   96SAPS  C212 9535   1.919   5.674   7.688  0.1390 -0.1421 -0.0890
   96SAPS  H12R 9536   1.818   5.664   7.729  0.7456 -1.4523  1.1768
   96SAPS  C213 9537   2.018   5.696   7.799  0.3811  0.3222 -0.8389
   96SAPS  H13R 9538   2.007   5.798   7.839 -1.1106  0.3005 -1.1287
   96SAPS  H13S 9539   2.121   5.689   7.758  0.4175  1.7522 -1.0079
   96SAPS  C214 9540   1.993   5.584   7.898  0.0952 -0.1492 -0.1383
   96SAPS  H14R 9541   2.046   5.492   7.868 -1.4296 -0.6098 -1.5516
   96SAPS  C215 9542   1.930   5.576   8.016  1.0129 -0.6881 -0.0325
   96SAPS  H15R 9543   1.923   5.485   8.078  1.7602  0.4543  1.8171
   96SAPS  C216 9544   1.856   5.685   8.074 -0.1199  0.2718  0.8480
   96SAPS  H16R 9545   1.751   5.656   8.057  0.2598 -0.3567 -0.5361
   96SAPS  H16S 9546   1.891   5.781   8.030 -0.4511  0.6786  1.4461
   96SAPS  C217 9547   1.884   5.706   8.225  0.0094  0.0958  0.1015
   96SAPS  H17R 9548   1.853   5.808   8.257  0.1839 -0.1027  0.9195
   96SAPS  H17S 9549   1.994   5.705   8.239  0.0521 -1.0712 -0.2444
   96SAPS  C218 9550   1.834   5.601   8.326 -0.1233  0.3336  0.4911
   96SAPS  H18R 9551   1.894   5.508   8.315  0.8275  0.8551  1.1404
   96SAPS  H18S 9552   1.731   5.566   8.302  0.3333 -0.7826  0.0879
   96SAPS  C219 9553   1.833   5.648   8.466  0.0657 -0.4438  0.7054
   96SAPS  H19R 9554   1.783   5.561   8.515 -1.6009 -0.9449 -1.7044
   96SAPS  H19S 9555   1.766   5.736   8.472  1.2217  0.6806 -1.6463
   96SAPS  C220 9556   1.959   5.681   8.536  0.3171 -0.7592 -0.0764
   96SAPS  H20R 9557   2.004   5.766   8.479 -0.5200 -0.4837 -0.3553
   96SAPS  H20S 9558   2.031   5.597   8.543  0.0131 -1.1317 -1.2328
   96SAPS  H20T 9559   1.923   5.702   8.639 -0.2918  0.9313 -0.5979
   96SAPS   C33 9560   2.697   6.093   7.077  0.1441 -0.0378 -0.7308
   96SAPS   H3X 9561   2.757   6.144   6.999 -1.2576 -1.1274 -2.6155
   96SAPS   H3Y 9562   2.717   5.983   7.077 -1.4128 -0.3435 -0.7234
   96SAPS   C34 9563   2.714   6.157   7.214 -0.3228  0.2100 -0.8985
   96SAPS   H4X 9564   2.686   6.264   7.222  1.3698  0.7345 -1.5817
   96SAPS   H4Y 9565   2.824   6.149   7.216 -0.4387 -2.7605  1.5131
   96SAPS   C35 9566   2.650   6.078   7.334  0.2795 -0.8233  0.3384
   96SAPS   H5X 9567   2.672   5.970   7.320 -0.5471 -1.0807  0.9863
   96SAPS   H5Y 9568   2.539   6.084   7.334  0.1882 -2.1530  0.2290
   96SAPS   C36 9569   2.697   6.127   7.472 -0.0067  0.1335  0.1374
   96SAPS   H6X 9570   2.643   6.222   7.492  0.0368  0.3563 -0.7430
   96SAPS   H6Y 9571   2.807   6.141   7.459 -0.2874  0.3645 -2.9489
   96SAPS   C37 9572   2.680   6.021   7.582  0.4270 -0.1860  0.1226
   96SAPS   H7X 9573   2.774   6.020   7.641 -0.7164 -0.6912  2.0588
   96SAPS   H7Y 9574   2.661   5.925   7.530 -0.1532  0.0115 -0.0459
   96SAPS   C38 9575   2.558   6.060   7.672 -0.4763 -0.6453 -0.1460
   96SAPS   H8X 9576   2.464   6.026   7.625 -2.1447  0.0571  2.4777
   96SAPS   H8Y 9577   2.560   6.170   7.687 -1.1406 -0.4611 -1.2891
   96SAPS   C39 9578   2.583   5.996   7.812 -0.3349  0.3861  0.2536
   96SAPS   H9X 9579   2.686   6.028   7.837  0.0511  0.4699 -1.3584
   96SAPS   H9Y 9580   2.593   5.886   7.804 -4.3353 -0.0531 -0.7573
   96SAPS  C310 9581   2.466   6.021   7.909 -0.3661  0.4084  0.3023
   96SAPS  H10X 9582   2.379   5.983   7.852  1.4276 -0.6202 -1.8843
   96SAPS  H10Y 9583   2.458   6.130   7.925  1.1118  0.6480 -0.4562
   96SAPS  C311 9584   2.479   5.945   8.043  0.4292  0.3404  0.4292
   96SAPS  H11X 9585   2.586   5.949   8.074  0.4682 -1.1433  0.6044
   96SAPS  H11Y 9586   2.470   5.836   8.023 -3.3967  0.6268 -0.0496
   96SAPS  C312 9587   2.378   5.978   8.150 -0.0968 -0.0031  0.5194
   96SAPS  H12X 9588   2.276   5.974   8.106 -0.1593 -1.9356  0.7690
   96SAPS  H12Y 9589   2.397   6.082   8.185 -2.6205  0.8111 -0.2394
   96SAPS  C313 9590   2.392   5.870   8.261 -0.1317 -0.4112 -0.5243
   96SAPS  H13X 9591   2.499   5.851   8.287  0.3549  0.3337 -1.8499
   96SAPS  H13Y 9592   2.355   5.772   8.224  0.2822 -0.0484 -1.9543
   96SAPS  C314 9593   2.321   5.887   8.400  0.3595 -0.2540  0.2495
   96SAPS  H14X 9594   2.216   5.904   8.369  0.6020  0.2225 -0.3220
   96SAPS  H14Y 9595   2.339   5.990   8.435 -1.4721  1.0724 -2.3794
   96SAPS  C315 9596   2.336   5.782   8.504 -0.0101  0.2482 -0.3771
   96SAPS  H15X 9597   2.446   5.780   8.521 -0.0861  1.3263  0.3185
   96SAPS  H15Y 9598   2.310   5.680   8.469 -1.1376  0.1962  0.5505
   96SAPS  C316 9599   2.267   5.804   8.646  0.1415  0.5696 -0.5503
   96SAPS  H16X 9600   2.158   5.810   8.625 -0.3624 -0.8912  1.3373
   96SAPS  H16Y 9601   2.298   5.900   8.691 -0.9904  1.2256 -1.1436
   96SAPS  C317 9602   2.299   5.696   8.754 -0.0405 -0.5472  0.4637
   96SAPS  H17X 9603   2.310   5.597   8.705  1.2529  0.2315 -0.9219
   96SAPS  H17Y 9604   2.214   5.693   8.825 -2.6297 -0.2124 -2.4159
   96SAPS  C318 9605   2.433   5.722   8.824  0.5924 -0.8973 -0.2424
   96SAPS  H18X 9606   2.452   5.831   8.811 -1.7554 -0.4547 -0.5031
   96SAPS  H18Y 9607   2.518   5.676   8.770  0.5555  0.7004 -1.7773
   96SAPS  H18Z 9608   2.418   5.700   8.932  0.1666  1.3693  0.2283
   97SAPS     N 9609   2.381   3.958   6.426  0.2863 -0.0866 -0.2298
   97SAPS   HN1 9610   2.417   4.033   6.490 -3.1724  1.8926 -0.3290
   97SAPS   HN2 9611   2.323   3.901   6.491  1.6499 -0.9843  0.2485
   97SAPS   HN3 9612   2.453   3.893   6.390 -1.6539 -2.5934  0.1215
   97SAPS   C12 9613   2.287   4.009   6.322 -0.3836 -0.1475 -0.5207
   97SAPS  H12A 9614   2.363   4.043   6.253  1.5510  2.2962  2.5356
   97SAPS   C13 9615   2.198   3.908   6.260  0.1785  0.1659 -0.0424
   97SAPS  O13A 9616   2.207   3.784   6.287 -0.1898  0.5749 -0.1551
   97SAPS  O13B 9617   2.121   3.941   6.165 -0.3687 -0.4102 -0.6791
   97SAPS   C11 9618   2.218   4.140   6.361 -0.5832 -0.3734 -0.2861
   97SAPS  H11A 9619   2.134   4.119   6.430 -0.7610  1.6589  0.1639
   97SAPS  H11B 9620   2.169   4.195   6.277 -1.9500  1.1738  1.4595
   97SAPS     P 9621   2.392   4.337   6.348 -0.1025  0.2567  0.7915
   97SAPS   O13 9622   2.477   4.261   6.253 -0.6254  0.5605  0.0608
   97SAPS   O14 9623   2.306   4.439   6.287 -0.0022 -0.0460  0.0200
   97SAPS   O12 9624   2.300   4.236   6.433  0.2470 -0.1542  0.5675
   97SAPS   O11 9625   2.482   4.404   6.455 -0.1941 -0.0338 -0.4214
   97SAPS    C1 9626   2.424   4.432   6.584  0.8979  0.3432  0.2552
   97SAPS    HA 9627   2.336   4.500   6.582 -0.8284 -1.8102 -0.3715
   97SAPS    HB 9628   2.383   4.339   6.629  0.6726 -0.6872 -1.9670
   97SAPS    C2 9629   2.536   4.500   6.682  0.3229 -0.3013  0.5443
   97SAPS    HS 9630   2.589   4.574   6.618  3.1841 -1.4102  1.4400
   97SAPS   O21 9631   2.637   4.404   6.711 -0.3454  0.0804 -0.8877
   97SAPS   C21 9632   2.754   4.449   6.746 -0.5761 -0.0983 -0.3921
   97SAPS   O22 9633   2.781   4.565   6.773  0.0106  0.0287 -0.0032
   97SAPS   C22 9634   2.849   4.334   6.748 -0.4124  0.0786  0.0171
   97SAPS   H2R 9635   2.793   4.249   6.792 -0.6200 -0.9715 -2.1338
   97SAPS   H2S 9636   2.869   4.303   6.643  0.4097  0.9386 -0.0971
   97SAPS    C3 9637   2.467   4.564   6.811 -0.5086 -0.0906 -0.4522
   97SAPS    HX 9638   2.401   4.641   6.764 -0.1140 -0.4883 -1.7011
   97SAPS    HY 9639   2.539   4.627   6.867  0.5288 -2.2176  0.7174
   97SAPS   O31 9640   2.424   4.463   6.902 -0.0023 -1.0912 -0.0871
   97SAPS   C31 9641   2.293   4.448   6.909 -0.2559 -1.6203  0.3413
   97SAPS   O32 9642   2.217   4.516   6.839  0.1669 -0.0101 -0.4766
   97SAPS   C32 9643   2.252   4.348   7.021 -0.2641 -0.3247  0.0855
   97SAPS   H2X 9644   2.302   4.393   7.109 -0.5121  0.0019  0.0614
   97SAPS   H2Y 9645   2.303   4.255   6.988 -0.4655  0.3739 -2.4445
   97SAPS   C23 9646   2.984   4.357   6.827  0.1561  0.1350  0.2012
   97SAPS   H3R 9647   3.037   4.446   6.789  1.9083 -1.4114 -1.1818
   97SAPS   H3S 9648   3.051   4.271   6.805  1.0154  0.2282  2.2588
   97SAPS   C24 9649   2.970   4.374   6.980 -0.0246 -0.0646 -0.2452
   97SAPS   H4R 9650   2.889   4.444   7.011  0.2179 -0.4314  1.2820
   97SAPS   H4S 9651   3.069   4.407   7.020  0.2590 -0.3946 -0.6665
   97SAPS   C25 9652   2.944   4.238   7.037  0.2811  0.1757 -0.6313
   97SAPS   H5R 9653   3.022   4.164   7.016  0.9870  1.0981 -1.3597
   97SAPS   C26 9654   2.837   4.196   7.101  0.0692  0.4085 -0.0371
   97SAPS   H6R 9655   2.839   4.094   7.143 -2.3175  0.4185  0.2429
   97SAPS   C27 9656   2.719   4.283   7.144 -0.4486  0.7945 -0.2947
   97SAPS   H7R 9657   2.715   4.387   7.107  1.1816  0.6696 -0.9166
   97SAPS   H7S 9658   2.723   4.296   7.254 -0.1626  0.1722 -0.2257
   97SAPS   C28 9659   2.597   4.212   7.105  0.6117 -0.1500 -0.5264
   97SAPS   H8R 9660   2.592   4.204   6.996  1.0477 -0.6183 -0.5154
   97SAPS   C29 9661   2.503   4.157   7.186  0.2176 -0.4683  0.5646
   97SAPS   H9R 9662   2.417   4.104   7.141  1.6441 -3.0460  0.6634
   97SAPS  C210 9663   2.504   4.162   7.338  0.2254 -0.4258 -0.3189
   97SAPS  H10R 9664   2.400   4.177   7.374  0.4148  0.7224 -0.2092
   97SAPS  H10S 9665   2.549   4.256   7.377 -1.7494  0.8291 -0.9074
   97SAPS  C211 9666   2.559   4.040   7.403  0.5563 -0.3300  0.1639
   97SAPS  H11R 9667   2.589   3.954   7.341 -1.9071 -2.8045  2.0905
   97SAPS  C212 9668   2.562   4.032   7.538  0.0269 -0.0664 -0.8904
   97SAPS  H12R 9669   2.627   3.955   7.582 -0.6795 -0.0490  0.2202
   97SAPS  C213 9670   2.512   4.141   7.634  0.6385  0.5578  0.0406
   97SAPS  H13R 9671   2.421   4.192   7.595  0.9882  0.0367 -1.5230
   97SAPS  H13S 9672   2.594   4.213   7.657  1.7328 -0.7752  0.4265
   97SAPS  C214 9673   2.468   4.085   7.767  0.2046  0.1276  0.1479
   97SAPS  H14R 9674   2.372   4.031   7.759  0.8814 -1.1295  0.1800
   97SAPS  C215 9675   2.522   4.111   7.891  0.1066  0.0224  0.0496
   97SAPS  H15R 9676   2.489   4.061   7.983 -1.1045  0.9364  0.1460
   97SAPS  C216 9677   2.639   4.197   7.925 -0.5142  0.3752 -0.1399
   97SAPS  H16R 9678   2.681   4.237   7.831 -0.1733  0.3731  0.0106
   97SAPS  H16S 9679   2.719   4.132   7.966  0.2753 -0.7079 -3.1539
   97SAPS  C217 9680   2.606   4.314   8.018  0.7164 -0.7173  0.3930
   97SAPS  H17R 9681   2.561   4.273   8.111  0.8530  0.1748  0.8627
   97SAPS  H17S 9682   2.521   4.365   7.968  1.3668  0.5586  0.5738
   97SAPS  C218 9683   2.719   4.407   8.044 -0.0677  0.3179  0.2190
   97SAPS  H18R 9684   2.721   4.480   7.961 -0.1662  0.2703  0.1740
   97SAPS  H18S 9685   2.816   4.353   8.043  0.5895  1.4235  1.4253
   97SAPS  C219 9686   2.722   4.483   8.180  0.3959 -0.0973 -0.7558
   97SAPS  H19R 9687   2.826   4.513   8.207  0.1445 -0.5889  0.8841
   97SAPS  H19S 9688   2.680   4.424   8.264  1.3435  2.9444  2.0887
   97SAPS  C220 9689   2.646   4.617   8.176  1.5454 -0.1688 -0.3823
   97SAPS  H20R 9690   2.688   4.686   8.100  2.2585  0.3545  0.4542
   97SAPS  H20S 9691   2.648   4.657   8.280  0.8980 -2.9267  0.7897
   97SAPS  H20T 9692   2.538   4.607   8.150  0.6990  0.1438  2.6073
   97SAPS   C33 9693   2.102   4.325   7.020  0.5688 -0.2666  0.0365
   97SAPS   H3X 9694   2.073   4.291   6.919  1.0339 -1.5257  0.3063
   97SAPS   H3Y 9695   2.030   4.404   7.049 -0.9782 -1.2808 -0.9248
   97SAPS   C34 9696   2.061   4.208   7.114  0.4207 -0.2070  0.3228
   97SAPS   H4X 9697   2.101   4.123   7.054  1.7665  0.9670 -0.5071
   97SAPS   H4Y 9698   1.950   4.199   7.118  0.1260  2.0975 -1.0657
   97SAPS   C35 9699   2.116   4.231   7.257  0.1523  0.5226 -0.6833
   97SAPS   H5X 9700   2.081   4.330   7.294 -2.2021 -0.2353 -0.6788
   97SAPS   H5Y 9701   2.227   4.234   7.261  0.2355 -1.7949  0.5688
   97SAPS   C36 9702   2.050   4.130   7.358 -0.1330 -0.0563  0.1882
   97SAPS   H6X 9703   2.111   4.037   7.344 -0.5706 -0.3201  0.0009
   97SAPS   H6Y 9704   1.941   4.113   7.346 -0.2197 -0.2497  1.1855
   97SAPS   C37 9705   2.070   4.174   7.499 -0.6136  0.4672  0.0316
   97SAPS   H7X 9706   2.017   4.270   7.516 -1.4872  0.1242 -0.6592
   97SAPS   H7Y 9707   2.180   4.184   7.513 -0.2680 -0.2628 -1.8067
   97SAPS   C38 9708   2.024   4.076   7.605  0.4449 -0.3749  0.4989
   97SAPS   H8X 9709   2.077   4.101   7.700 -0.5064  0.7427  0.7622
   97SAPS   H8Y 9710   2.061   3.975   7.577  2.7190  0.4491  0.3088
   97SAPS   C39 9711   1.868   4.080   7.622 -0.3269  0.1818  0.4083
   97SAPS   H9X 9712   1.816   4.020   7.545  2.8691  0.1832 -1.9370
   97SAPS   H9Y 9713   1.840   4.187   7.630 -0.1225  0.3383 -0.9002
   97SAPS  C310 9714   1.829   4.018   7.759  0.7886 -0.1192  0.1363
   97SAPS  H10X 9715   1.857   3.911   7.764 -1.5186 -0.7297  1.9090
   97SAPS  H10Y 9716   1.718   4.026   7.771  0.6784 -0.7637 -0.3924
   97SAPS  C311 9717   1.895   4.080   7.877 -0.6395 -0.1749 -0.0734
   97SAPS  H11X 9718   1.908   4.189   7.856  5.4823 -0.2838  1.3113
   97SAPS  H11Y 9719   1.994   4.031   7.885  0.1254  1.1159 -1.1311
   97SAPS  C312 9720   1.822   4.062   8.008 -0.3413 -0.0048 -0.2567
   97SAPS  H12X 9721   1.718   4.100   8.018  0.4175  1.7772  1.5251
   97SAPS  H12Y 9722   1.886   4.114   8.082  0.8988 -0.6512 -0.8575
   97SAPS  C313 9723   1.820   3.916   8.065 -0.2172  0.0308  0.7845
   97SAPS  H13X 9724   1.926   3.881   8.058  0.1414  1.3104 -0.5514
   97SAPS  H13Y 9725   1.757   3.866   7.989  1.2231  0.3265 -0.6740
   97SAPS  C314 9726   1.783   3.909   8.213  0.2705  0.3785  0.2887
   97SAPS  H14X 9727   1.691   3.964   8.242 -0.4262 -1.0980  0.9739
   97SAPS  H14Y 9728   1.851   3.975   8.272  0.2980  1.1751 -0.6100
   97SAPS  C315 9729   1.796   3.772   8.278  0.1330 -0.2132 -0.1022
   97SAPS  H15X 9730   1.800   3.773   8.389  1.5978  2.9243 -0.0692
   97SAPS  H15Y 9731   1.901   3.744   8.259  1.2936  4.1197 -1.1654
   97SAPS  C316 9732   1.692   3.667   8.239 -0.5085 -0.2219 -1.0166
   97SAPS  H16X 9733   1.705   3.647   8.131  1.9297 -1.4556 -0.5712
   97SAPS  H16Y 9734   1.584   3.689   8.254 -0.2775 -0.3028  1.1258
   97SAPS  C317 9735   1.709   3.533   8.316 -0.0040  0.2169 -0.2985
   97SAPS  H17X 9736   1.615   3.479   8.290  0.4249  0.0058 -1.5148
   97SAPS  H17Y 9737   1.717   3.550   8.425 -1.3435 -0.5736 -0.0566
   97SAPS  C318 9738   1.828   3.447   8.268  0.4402  0.1592 -0.0337
   97SAPS  H18X 9739   1.856   3.371   8.344  3.3079  0.6212 -0.5465
   97SAPS  H18Y 9740   1.918   3.507   8.245  0.5342  0.1756  0.3748
   97SAPS  H18Z 9741   1.805   3.392   8.174 -0.6149 -2.8155  1.8139
   98SAPS     N 9742   0.396   4.353   5.965 -0.1084  0.9405 -0.9882
   98SAPS   HN1 9743   0.303   4.395   5.948 -1.2775 -1.9605 -2.5846
   98SAPS   HN2 9744   0.459   4.400   6.033 -0.6191  0.2338 -0.0044
   98SAPS   HN3 9745   0.450   4.350   5.876 -1.2827 -0.6451 -1.7022
   98SAPS   C12 9746   0.374   4.212   6.006 -0.3999 -0.3818 -0.2513
   98SAPS  H12A 9747   0.329   4.159   5.924  0.0216  1.9329 -2.0721
   98SAPS   C13 9748   0.499   4.134   6.043 -0.1121 -0.0928 -0.5154
   98SAPS  O13A 9749   0.612   4.185   6.044  0.3024  0.6265  0.9064
   98SAPS  O13B 9750   0.486   4.012   6.077  0.4397  0.4198 -0.4424
   98SAPS   C11 9751   0.270   4.206   6.119 -0.3777  0.2087 -0.7174
   98SAPS  H11A 9752   0.307   4.271   6.201  0.9510  2.2319 -2.8107
   98SAPS  H11B 9753   0.257   4.104   6.162 -0.9504  0.3940 -0.4349
   98SAPS     P 9754   0.067   4.370   6.133 -0.0230 -0.0074 -0.7207
   98SAPS   O13 9755   0.121   4.495   6.082  0.4480 -0.1358  0.6162
   98SAPS   O14 9756  -0.075   4.341   6.122 -0.0252  0.1509  0.5078
   98SAPS   O12 9757   0.145   4.252   6.066 -0.3288 -0.0178 -0.2906
   98SAPS   O11 9758   0.096   4.348   6.286 -0.5906 -1.0389  0.0603
   98SAPS    C1 9759   0.162   4.445   6.367  0.0817  0.4649 -1.4014
   98SAPS    HA 9760   0.272   4.426   6.361 -0.1708 -3.5964  1.9956
   98SAPS    HB 9761   0.137   4.550   6.343 -3.4933  0.7302  2.3347
   98SAPS    C2 9762   0.121   4.430   6.514  0.0578  0.1180 -0.3196
   98SAPS    HS 9763   0.174   4.505   6.576  0.3812  0.4349 -0.9699
   98SAPS   O21 9764   0.136   4.296   6.567  0.4008  0.5375  0.2029
   98SAPS   C21 9765   0.256   4.264   6.596 -0.2326  0.1688  0.8962
   98SAPS   O22 9766   0.357   4.332   6.585  0.5291  0.4755 -0.1987
   98SAPS   C22 9767   0.255   4.117   6.642 -0.1585 -0.4017 -0.1161
   98SAPS   H2R 9768   0.241   4.052   6.553 -0.1517  1.4297 -1.4915
   98SAPS   H2S 9769   0.359   4.091   6.670 -0.9071 -2.4633  0.9941
   98SAPS    C3 9770  -0.026   4.466   6.533 -0.2153 -0.3504 -0.2665
   98SAPS    HX 9771  -0.081   4.379   6.490  1.3521 -0.9339 -1.1703
   98SAPS    HY 9772  -0.052   4.556   6.473  0.0917  0.4921  0.8310
   98SAPS   O31 9773  -0.062   4.493   6.675 -0.5723  0.0936  0.5123
   98SAPS   C31 9774  -0.083   4.618   6.708  0.0864  0.3701 -1.0218
   98SAPS   O32 9775  -0.078   4.716   6.641  0.0841  0.8692  0.9174
   98SAPS   C32 9776  -0.114   4.624   6.852  0.3820 -0.0616 -0.0673
   98SAPS   H2X 9777  -0.213   4.579   6.877  1.6738 -2.8511  0.3523
   98SAPS   H2Y 9778  -0.112   4.734   6.867 -0.0465 -0.2844  1.9796
   98SAPS   C23 9779   0.151   4.095   6.762  0.2299  0.5791 -0.2308
   98SAPS   H3R 9780   0.137   3.987   6.781  0.1967  0.8102  1.1761
   98SAPS   H3S 9781   0.050   4.131   6.732 -0.0797  1.7817  1.9884
   98SAPS   C24 9782   0.167   4.173   6.896 -0.8068 -0.5393 -0.5533
   98SAPS   H4R 9783   0.076   4.165   6.961 -0.2765  0.9703  0.4389
   98SAPS   H4S 9784   0.181   4.282   6.879 -2.3104 -0.3794 -0.9020
   98SAPS   C25 9785   0.290   4.118   6.960  0.3671 -0.6938 -0.8912
   98SAPS   H5R 9786   0.352   4.061   6.890  1.3375 -0.6554 -0.0793
   98SAPS   C26 9787   0.321   4.127   7.092 -0.2273 -0.9986  0.3019
   98SAPS   H6R 9788   0.410   4.075   7.129 -0.1646 -0.9492  0.2209
   98SAPS   C27 9789   0.238   4.195   7.203 -0.1822 -0.6052 -0.1864
   98SAPS   H7R 9790   0.143   4.241   7.168 -0.1959 -1.0007 -0.6762
   98SAPS   H7S 9791   0.304   4.276   7.243  2.0179 -1.9840 -0.8382
   98SAPS   C28 9792   0.207   4.092   7.304 -0.5827 -0.4616  0.1795
   98SAPS   H8R 9793   0.162   4.002   7.261 -1.9262 -0.7434  2.0434
   98SAPS   C29 9794   0.214   4.089   7.436 -0.5967 -0.1677  0.6355
   98SAPS   H9R 9795   0.191   4.003   7.499 -1.8885  0.5052  1.1159
   98SAPS  C210 9796   0.257   4.207   7.523  0.3086  0.0604 -0.4750
   98SAPS  H10R 9797   0.191   4.215   7.611  1.1472 -1.1392  0.2981
   98SAPS  H10S 9798   0.239   4.302   7.469 -1.6029 -0.3010 -0.5588
   98SAPS  C211 9799   0.400   4.210   7.574  0.0302 -0.3154  0.8691
   98SAPS  H11R 9800   0.475   4.185   7.496 -0.9399  0.1533 -0.2501
   98SAPS  C212 9801   0.435   4.236   7.707  0.1602  0.0816  0.6308
   98SAPS  H12R 9802   0.540   4.255   7.734  0.2535 -2.2056  2.1264
   98SAPS  C213 9803   0.340   4.268   7.820  0.0648 -0.6179 -0.7472
   98SAPS  H13R 9804   0.269   4.350   7.796  1.3822  1.2920  1.2999
   98SAPS  H13S 9805   0.396   4.316   7.904 -1.1017 -0.8073  0.1671
   98SAPS  C214 9806   0.259   4.147   7.864 -0.0832 -0.6235  0.0711
   98SAPS  H14R 9807   0.249   4.072   7.785  3.3573 -1.1435 -0.0144
   98SAPS  C215 9808   0.218   4.124   7.990 -0.4350 -0.3034  0.0566
   98SAPS  H15R 9809   0.157   4.033   7.999 -1.1998  0.1853 -0.0937
   98SAPS  C216 9810   0.234   4.218   8.104  0.5082 -0.4802  0.4996
   98SAPS  H16R 9811   0.146   4.232   8.170  0.6926 -1.1762  0.8947
   98SAPS  H16S 9812   0.263   4.320   8.070 -0.9734 -0.6901 -1.5375
   98SAPS  C217 9813   0.332   4.147   8.187 -0.3731 -0.2624 -0.2268
   98SAPS  H17R 9814   0.417   4.107   8.127 -0.1290 -1.4181  0.8233
   98SAPS  H17S 9815   0.288   4.052   8.225  2.1903 -1.0546  1.0782
   98SAPS  C218 9816   0.394   4.234   8.294  0.1936  0.2669  0.2279
   98SAPS  H18R 9817   0.318   4.255   8.373 -0.5414  1.5329 -0.7764
   98SAPS  H18S 9818   0.413   4.335   8.253 -1.4159  1.6765  2.6565
   98SAPS  C219 9819   0.517   4.176   8.361 -0.0883 -0.2369 -0.3329
   98SAPS  H19R 9820   0.535   4.254   8.437  0.1583  0.5603 -1.1933
   98SAPS  H19S 9821   0.604   4.187   8.292  2.2237  1.3817  2.6068
   98SAPS  C220 9822   0.504   4.039   8.420  0.3331 -0.4163 -0.0850
   98SAPS  H20R 9823   0.598   4.000   8.465  0.4130  0.4436  0.5175
   98SAPS  H20S 9824   0.471   3.971   8.338  2.8183 -1.5313 -0.2432
   98SAPS  H20T 9825   0.436   4.049   8.507 -0.1750 -0.2278 -0.4971
   98SAPS   C33 9826  -0.014   4.565   6.959  1.4998 -0.4615 -0.0457
   98SAPS   H3X 9827   0.091   4.600   6.956  0.8388  1.8522  1.3257
   98SAPS   H3Y 9828  -0.006   4.458   6.929  0.3759 -0.1766 -1.5012
   98SAPS   C34 9829  -0.086   4.580   7.097 -0.5572  0.4046 -0.4264
   98SAPS   H4X 9830  -0.180   4.522   7.095  0.6997 -1.7198 -1.1377
   98SAPS   H4Y 9831  -0.096   4.689   7.119 -1.2996  0.7348 -2.2051
   98SAPS   C35 9832  -0.020   4.497   7.214 -0.2440 -0.4705  0.2224
   98SAPS   H5X 9833   0.089   4.518   7.216 -0.4117  0.5780 -0.7010
   98SAPS   H5Y 9834  -0.025   4.392   7.180  2.2262 -0.8845  0.9838
   98SAPS   C36 9835  -0.097   4.530   7.340  0.2574  0.0359 -0.1172
   98SAPS   H6X 9836  -0.206   4.534   7.320 -0.1030  1.4772  1.7827
   98SAPS   H6Y 9837  -0.074   4.633   7.375 -1.4784  1.2788 -2.3667
   98SAPS   C37 9838  -0.073   4.435   7.463  0.2797 -0.2316  0.7787
   98SAPS   H7X 9839   0.037   4.427   7.477  0.2511 -0.3518  0.9330
   98SAPS   H7Y 9840  -0.115   4.340   7.425 -2.3841  0.1620  2.4890
   98SAPS   C38 9841  -0.145   4.483   7.587  0.5597 -0.5280 -0.8671
   98SAPS   H8X 9842  -0.254   4.467   7.571  0.0157  0.9737  0.9463
   98SAPS   H8Y 9843  -0.122   4.591   7.598  0.7035 -0.7935  2.3048
   98SAPS   C39 9844  -0.101   4.401   7.705 -0.6792  0.3745 -0.9695
   98SAPS   H9X 9845   0.006   4.421   7.730 -1.2046  1.3570  0.6675
   98SAPS   H9Y 9846  -0.102   4.291   7.688  0.7744 -0.0608  1.1699
   98SAPS  C310 9847  -0.186   4.435   7.827  0.1068  0.1898 -0.6819
   98SAPS  H10X 9848  -0.293   4.409   7.808 -0.3044  1.4504 -0.1414
   98SAPS  H10Y 9849  -0.187   4.546   7.826  2.4538  0.3665  2.3169
   98SAPS  C311 9850  -0.133   4.368   7.959  0.1467 -0.5126 -0.1792
   98SAPS  H11X 9851  -0.036   4.416   7.985 -1.2178  1.4863  1.5727
   98SAPS  H11Y 9852  -0.130   4.259   7.940 -2.0107 -0.5390 -0.6125
   98SAPS  C312 9853  -0.222   4.374   8.080  0.0984 -0.3202  0.2677
   98SAPS  H12X 9854  -0.306   4.305   8.052 -0.5182  1.4376 -2.6686
   98SAPS  H12Y 9855  -0.265   4.470   8.116 -0.2890 -1.0770  1.9250
   98SAPS  C313 9856  -0.161   4.309   8.207  1.2048  0.2018  0.0325
   98SAPS  H13X 9857  -0.107   4.217   8.179 -1.4974 -1.0779 -1.3373
   98SAPS  H13Y 9858  -0.241   4.270   8.274  2.2499  0.1969  1.3078
   98SAPS  C314 9859  -0.067   4.400   8.288  0.7939 -0.0008  0.4203
   98SAPS  H14X 9860  -0.126   4.491   8.311 -0.0961  0.0362 -1.8071
   98SAPS  H14Y 9861   0.022   4.437   8.233  1.2928 -0.3154  0.9899
   98SAPS  C315 9862  -0.016   4.338   8.419  0.0636  0.3300 -0.8313
   98SAPS  H15X 9863   0.021   4.423   8.480 -0.1575  0.8644 -1.4347
   98SAPS  H15Y 9864   0.071   4.269   8.407  1.5540  1.3551  2.7719
   98SAPS  C316 9865  -0.115   4.265   8.510 -0.6705  0.8020  0.1514
   98SAPS  H16X 9866  -0.164   4.182   8.456 -0.6559  0.5705  0.4940
   98SAPS  H16Y 9867  -0.185   4.342   8.548  1.0683  2.6201 -0.1610
   98SAPS  C317 9868  -0.042   4.208   8.634  0.2647  0.8194 -0.2537
   98SAPS  H17X 9869   0.011   4.294   8.681 -0.2147  1.9152 -1.6469
   98SAPS  H17Y 9870   0.030   4.132   8.595  0.9695  1.0712  0.5370
   98SAPS  C318 9871  -0.129   4.152   8.744 -0.2397  0.5184 -0.2286
   98SAPS  H18X 9872  -0.199   4.227   8.786  2.2796  2.3331  1.0242
   98SAPS  H18Y 9873  -0.074   4.116   8.834 -0.0047 -0.1018 -0.6186
   98SAPS  H18Z 9874  -0.181   4.060   8.712 -0.7690  0.6349  0.2746
   99SAPS     N 9875   2.081   1.668   6.311 -0.4225  0.1167  0.5780
   99SAPS   HN1 9876   1.992   1.633   6.352 -1.5948 -0.7036 -2.3486
   99SAPS   HN2 9877   2.154   1.624   6.370 -1.7621 -0.4199  1.8829
   99SAPS   HN3 9878   2.082   1.770   6.327  1.0480  0.0010  1.3721
   99SAPS   C12 9879   2.076   1.630   6.166  0.5525 -0.0305 -0.1382
   99SAPS  H12A 9880   2.012   1.703   6.117 -1.1050 -1.8138 -0.7656
   99SAPS   C13 9881   2.210   1.626   6.082  0.0988  1.1693 -0.4569
   99SAPS  O13A 9882   2.314   1.670   6.135 -0.1669  0.8649  0.6002
   99SAPS  O13B 9883   2.201   1.587   5.962 -0.6868 -0.7851 -0.8693
   99SAPS   C11 9884   2.001   1.495   6.157  0.0106 -0.0577 -0.8039
   99SAPS  H11A 9885   2.067   1.406   6.161  0.3175  0.1656 -0.9188
   99SAPS  H11B 9886   1.959   1.487   6.054 -0.8827  0.9180 -0.5315
   99SAPS     P 9887   1.823   1.355   6.272  0.0544  0.2433 -0.1807
   99SAPS   O13 9888   1.731   1.367   6.386 -0.1353 -1.1761 -0.0992
   99SAPS   O14 9889   1.757   1.299   6.144 -0.1473 -0.0539  0.0710
   99SAPS   O12 9890   1.899   1.486   6.253  0.2857 -0.0934 -0.1603
   99SAPS   O11 9891   1.935   1.243   6.316  0.3113  0.2265  0.7765
   99SAPS    C1 9892   2.014   1.266   6.431  0.1054 -0.6322 -0.2732
   99SAPS    HA 9893   2.092   1.188   6.420 -0.9090 -1.5654 -1.0018
   99SAPS    HB 9894   2.058   1.368   6.440 -2.4856  0.5828 -0.5795
   99SAPS    C2 9895   1.936   1.240   6.562  0.4444  0.3733  0.5529
   99SAPS    HS 9896   1.849   1.309   6.571  2.0614  2.5649  0.2658
   99SAPS   O21 9897   2.026   1.246   6.674 -0.6390  0.4532 -0.5514
   99SAPS   C21 9898   2.036   1.349   6.750  0.5206  0.4792 -0.3688
   99SAPS   O22 9899   1.973   1.450   6.741 -0.1526  0.0736  0.6288
   99SAPS   C22 9900   2.132   1.323   6.860 -0.2117  0.7089 -0.5461
   99SAPS   H2R 9901   2.225   1.270   6.829 -0.1839  1.9285 -2.6844
   99SAPS   H2S 9902   2.166   1.425   6.891  1.0124  0.4673 -1.0198
   99SAPS    C3 9903   1.872   1.100   6.557 -0.2357 -0.6068  0.1061
   99SAPS    HX 9904   1.939   1.012   6.545  0.1909 -0.0524 -1.8744
   99SAPS    HY 9905   1.812   1.098   6.463 -1.0703  0.5057  0.5876
   99SAPS   O31 9906   1.781   1.088   6.665  0.1197 -0.1202  0.1439
   99SAPS   C31 9907   1.823   1.022   6.773 -0.4408  0.7280 -0.1811
   99SAPS   O32 9908   1.931   0.964   6.779  0.0002  0.2834 -0.0198
   99SAPS   C32 9909   1.730   1.051   6.889  0.3206  0.2684 -0.4643
   99SAPS   H2X 9910   1.627   1.052   6.848 -0.1269  1.1698  0.6131
   99SAPS   H2Y 9911   1.756   1.155   6.919 -3.0976  0.7173  1.4177
   99SAPS   C23 9912   2.061   1.259   6.983  0.0841 -0.5981 -0.1294
   99SAPS   H3R 9913   2.029   1.154   6.968  2.0977 -1.0765 -1.6412
   99SAPS   H3S 9914   1.977   1.327   7.009 -0.1412 -0.5445 -0.9755
   99SAPS   C24 9915   2.142   1.262   7.109  0.4463  0.7772 -0.3354
   99SAPS   H4R 9916   2.155   1.367   7.143  1.2480  1.1663 -1.7902
   99SAPS   H4S 9917   2.243   1.221   7.086  0.5421  1.9604 -2.2249
   99SAPS   C25 9918   2.088   1.175   7.221  0.0337  0.3846  0.0797
   99SAPS   H5R 9919   2.128   1.073   7.206  0.0476  0.6895 -2.4126
   99SAPS   C26 9920   2.006   1.206   7.317  0.1449 -0.0823  0.4925
   99SAPS   H6R 9921   1.963   1.118   7.367 -0.3274 -0.0342  0.1760
   99SAPS   C27 9922   1.946   1.343   7.343 -0.1893 -0.5986  0.1176
   99SAPS   H7R 9923   2.011   1.423   7.302 -2.1211  0.5943 -0.7956
   99SAPS   H7S 9924   1.939   1.362   7.452 -0.1576  1.7628 -0.2363
   99SAPS   C28 9925   1.817   1.367   7.274  0.6260 -0.5547  0.6583
   99SAPS   H8R 9926   1.804   1.342   7.168 -0.2598  0.5004  0.4999
   99SAPS   C29 9927   1.705   1.401   7.345 -0.1405  0.0572  0.2556
   99SAPS   H9R 9928   1.604   1.402   7.301 -1.7646 -0.8084  3.6446
   99SAPS  C210 9929   1.694   1.418   7.494 -0.3213  0.0288  0.0491
   99SAPS  H10R 9930   1.603   1.478   7.515  0.5820  0.2943  3.7768
   99SAPS  H10S 9931   1.777   1.488   7.513  0.0570 -0.1845 -0.7588
   99SAPS  C211 9932   1.710   1.307   7.586 -0.1564 -0.0610 -0.5540
   99SAPS  H11R 9933   1.755   1.218   7.540  0.5641 -0.2374  0.4586
   99SAPS  C212 9934   1.667   1.294   7.710 -0.3559  0.0112 -0.0395
   99SAPS  H12R 9935   1.696   1.202   7.762  2.0848  1.2312  0.8825
   99SAPS  C213 9936   1.593   1.405   7.781  0.8151 -0.1713 -0.0374
   99SAPS  H13R 9937   1.485   1.388   7.759 -0.5927  2.4507  3.8710
   99SAPS  H13S 9938   1.623   1.497   7.726  4.1934 -1.2005 -0.1665
   99SAPS  C214 9939   1.606   1.415   7.927 -0.2000 -0.0282  0.1477
   99SAPS  H14R 9940   1.511   1.393   7.978 -0.5940 -1.5645 -1.1869
   99SAPS  C215 9941   1.716   1.439   7.993  0.1335 -0.5274 -0.2116
   99SAPS  H15R 9942   1.713   1.439   8.103  3.7973  0.5558  0.0492
   99SAPS  C216 9943   1.851   1.481   7.935 -0.2316  1.1460 -0.1290
   99SAPS  H16R 9944   1.866   1.418   7.845  0.1841  1.2528 -0.1356
   99SAPS  H16S 9945   1.931   1.443   8.001  1.1193 -2.7305 -3.5356
   99SAPS  C217 9946   1.852   1.629   7.899 -0.8084  0.4720  0.1783
   99SAPS  H17R 9947   1.839   1.696   7.987 -0.7151 -1.7739  1.9884
   99SAPS  H17S 9948   1.764   1.661   7.839  0.5050  0.9475 -1.5848
   99SAPS  C218 9949   1.982   1.664   7.820  0.5797 -0.4901  0.7125
   99SAPS  H18R 9950   2.000   1.774   7.814  1.0646 -0.6319 -1.2487
   99SAPS  H18S 9951   1.971   1.620   7.719  1.4818 -1.5313  1.0493
   99SAPS  C219 9952   2.108   1.607   7.888 -0.1373  0.1338  0.1470
   99SAPS  H19R 9953   2.105   1.497   7.879  0.0385  0.1588 -0.2317
   99SAPS  H19S 9954   2.117   1.650   7.990  0.8361 -0.9515  0.5407
   99SAPS  C220 9955   2.238   1.644   7.809 -0.5511 -0.6472 -0.0523
   99SAPS  H20R 9956   2.329   1.611   7.862 -1.0363 -0.1371  1.1272
   99SAPS  H20S 9957   2.237   1.750   7.776  1.4888 -1.2901 -2.5314
   99SAPS  H20T 9958   2.231   1.585   7.715  0.5011 -0.3287 -0.3403
   99SAPS   C33 9959   1.734   0.962   7.013 -0.4407 -0.5260 -0.9069
   99SAPS   H3X 9960   1.832   0.957   7.065 -1.1096 -0.3026  0.4307
   99SAPS   H3Y 9961   1.709   0.854   7.005  1.3587 -1.2388  1.6327
   99SAPS   C34 9962   1.645   1.012   7.129 -0.5490  0.2673  0.2056
   99SAPS   H4X 9963   1.539   0.987   7.111 -0.2900  0.7046 -2.3690
   99SAPS   H4Y 9964   1.659   1.122   7.130  2.8112 -0.0483  0.8925
   99SAPS   C35 9965   1.687   0.952   7.266  0.4243 -0.6546  0.2611
   99SAPS   H5X 9966   1.793   0.978   7.284  0.1417 -0.0352  1.0900
   99SAPS   H5Y 9967   1.682   0.843   7.248  0.3878 -0.1934 -3.2860
   99SAPS   C36 9968   1.597   0.991   7.386 -0.6468  0.0030 -0.0663
   99SAPS   H6X 9969   1.493   0.962   7.361  0.3071 -1.9977 -2.0793
   99SAPS   H6Y 9970   1.608   1.101   7.401 -0.8726 -0.1118  1.0439
   99SAPS   C37 9971   1.638   0.939   7.530  0.4323 -0.3227 -0.3813
   99SAPS   H7X 9972   1.577   0.989   7.609  0.1193 -0.1848 -0.7041
   99SAPS   H7Y 9973   1.741   0.971   7.556 -0.1720  0.7393  0.8181
   99SAPS   C38 9974   1.640   0.784   7.535  0.5112  0.0948  0.3131
   99SAPS   H8X 9975   1.693   0.738   7.449  0.9897 -0.6217  0.9805
   99SAPS   H8Y 9976   1.534   0.752   7.522  0.5212  0.1172  0.1738
   99SAPS   C39 9977   1.691   0.723   7.660  0.0116 -0.0782  0.6666
   99SAPS   H9X 9978   1.789   0.764   7.691  1.1430 -2.4508  0.5118
   99SAPS   H9Y 9979   1.702   0.614   7.643 -0.1531 -0.1755  1.1382
   99SAPS  C310 9980   1.603   0.739   7.783  0.3667 -0.2792 -0.1418
   99SAPS  H10X 9981   1.496   0.723   7.759 -0.2397  2.4150  0.4791
   99SAPS  H10Y 9982   1.612   0.847   7.808 -0.0531  0.7928 -3.9271
   99SAPS  C311 9983   1.640   0.654   7.905 -0.6338  0.0725 -0.4129
   99SAPS  H11X 9984   1.558   0.664   7.980 -1.5084 -3.6306 -0.6784
   99SAPS  H11Y 9985   1.736   0.685   7.950 -0.4717 -2.6642  1.3324
   99SAPS  C312 9986   1.664   0.502   7.887 -0.5472  0.1651 -0.3886
   99SAPS  H12X 9987   1.742   0.503   7.808  0.6537 -1.1462  0.7305
   99SAPS  H12Y 9988   1.581   0.448   7.837 -0.8525  0.5008 -0.2461
   99SAPS  C313 9989   1.716   0.439   8.017  0.1877 -0.1108 -0.4840
   99SAPS  H13X 9990   1.812   0.473   8.062 -1.7143  1.0659  3.0643
   99SAPS  H13Y 9991   1.735   0.330   8.002  0.5383 -0.2284  0.6957
   99SAPS  C314 9992   1.612   0.427   8.131 -0.8588 -0.5917 -1.0515
   99SAPS  H14X 9993   1.527   0.368   8.091 -2.2096 -0.0178  0.8754
   99SAPS  H14Y 9994   1.588   0.530   8.165 -2.5789 -1.4539  0.5025
   99SAPS  C315 9995   1.667   0.341   8.250 -1.0268 -0.5294  0.2645
   99SAPS  H15X 9996   1.742   0.401   8.306 -1.1679 -0.9504  0.9243
   99SAPS  H15Y 9997   1.728   0.256   8.213  0.5140  0.5990  0.1235
   99SAPS  C316 9998   1.565   0.278   8.335  0.0376  0.2610 -0.6578
   99SAPS  H16X 9999   1.487   0.224   8.277  0.1913 -4.6062  3.0591
   99SAPS  H16Y10000   1.519   0.352   8.404  0.0862 -1.2326  1.0513
   99SAPS  C31710001   1.628   0.178   8.435 -0.7217 -0.4635  0.1103
   99SAPS  H17X10002   1.702   0.225   8.503 -1.1661  1.3521 -0.6195
   99SAPS  H17Y10003   1.653   0.089   8.373 -0.4127  0.1559 -0.6520
   99SAPS  C31810004   1.521   0.131   8.536 -0.3185 -0.6555  0.6139
   99SAPS  H18X10005   1.497   0.213   8.606 -2.0682 -1.7746  1.4007
   99SAPS  H18Y10006   1.564   0.038   8.580  2.4539 -0.0647 -0.6555
   99SAPS  H18Z10007   1.433   0.102   8.474 -0.3776 -1.0513  0.8770
  100SAPS     N10008   2.991   3.661   6.026 -0.2139 -0.5525  0.7965
  100SAPS   HN110009   2.974   3.648   5.924 -0.1124 -0.7174  0.7998
  100SAPS   HN210010   3.086   3.635   6.061  0.6508  1.4221  0.0491
  100SAPS   HN310011   2.920   3.598   6.069 -0.3047 -2.0716 -1.4096
  100SAPS   C1210012   2.935   3.789   6.078 -1.1334  0.7739  0.0576
  100SAPS  H12A10013   2.997   3.862   6.028 -1.0367  1.0726  0.6060
  100SAPS   C1310014   2.791   3.832   6.056 -0.0711 -0.1662  0.3345
  100SAPS  O13A10015   2.713   3.766   5.975 -0.0878  0.5278  0.1610
  100SAPS  O13B10016   2.763   3.949   6.086 -0.1125 -0.1427  0.5157
  100SAPS   C1110017   2.961   3.799   6.228  0.3434  0.3247 -0.1595
  100SAPS  H11A10018   2.913   3.718   6.286  1.3094 -0.0549  0.1309
  100SAPS  H11B10019   2.920   3.897   6.262  0.5630  0.0761  0.8482
  100SAPS     P10020   3.188   3.939   6.225 -0.4704  0.1103 -0.2922
  100SAPS   O1310021   3.252   3.920   6.094  0.4696  0.2569  1.0712
  100SAPS   O1410022   3.090   4.051   6.236 -0.9917 -0.4406 -0.2403
  100SAPS   O1210023   3.104   3.803   6.254  0.3496 -0.0241 -0.5604
  100SAPS   O1110024   3.300   3.958   6.330  0.4707 -0.0598 -0.6065
  100SAPS    C110025   3.415   3.881   6.348 -0.0980 -0.2273  1.0237
  100SAPS    HA10026   3.401   3.791   6.284  0.1847  0.3692  0.1129
  100SAPS    HB10027   3.503   3.927   6.299 -0.1745 -0.7525  0.3801
  100SAPS    C210028   3.444   3.843   6.490 -0.2251  0.0867  0.1752
  100SAPS    HS10029   3.530   3.772   6.493  1.3056  1.8756  1.7616
  100SAPS   O2110030   3.334   3.792   6.566 -0.4001  0.6536 -0.1285
  100SAPS   C2110031   3.263   3.694   6.519  0.4528  0.3522  0.0042
  100SAPS   O2210032   3.291   3.631   6.418 -0.1816  0.3114 -0.2763
  100SAPS   C2210033   3.141   3.676   6.608 -0.1163  0.0029  0.0507
  100SAPS   H2R10034   3.183   3.641   6.705  1.9433  1.0776 -0.4028
  100SAPS   H2S10035   3.094   3.777   6.612  0.5287  0.2780  1.5176
  100SAPS    C310036   3.489   3.978   6.563  0.5027  0.2677  0.4525
  100SAPS    HX10037   3.420   4.063   6.545  0.8172  0.1158 -1.8154
  100SAPS    HY10038   3.580   4.007   6.506 -1.0681 -0.5765 -2.7123
  100SAPS   O3110039   3.517   3.960   6.704  0.3842 -0.1516 -0.1160
  100SAPS   C3110040   3.416   4.004   6.783  0.1047  0.0482 -0.3599
  100SAPS   O3210041   3.311   4.050   6.743 -0.5186 -0.4960  0.1322
  100SAPS   C3210042   3.456   3.964   6.926  0.5856 -0.7147 -0.2101
  100SAPS   H2X10043   3.567   3.956   6.932  0.4838 -0.9142  2.4295
  100SAPS   H2Y10044   3.417   3.865   6.956  1.1934 -1.6020 -2.1906
  100SAPS   C2310045   3.034   3.579   6.547  0.6580  0.3190 -0.3934
  100SAPS   H3R10046   3.086   3.482   6.536  0.9305  0.3055  0.8679
  100SAPS   H3S10047   2.997   3.626   6.453 -2.7832 -0.8970  0.2061
  100SAPS   C2410048   2.906   3.575   6.637 -0.2655 -0.0063  0.0236
  100SAPS   H4R10049   2.931   3.542   6.740  2.0120 -0.8920 -0.7351
  100SAPS   H4S10050   2.838   3.504   6.586  1.9908  0.6940 -4.4670
  100SAPS   C2510051   2.841   3.708   6.655 -0.0823 -0.2317  0.4882
  100SAPS   H5R10052   2.786   3.757   6.574  0.6084  1.2457  0.8684
  100SAPS   C2610053   2.829   3.789   6.769  0.2687  0.1073  0.7309
  100SAPS   H6R10054   2.793   3.892   6.756  1.6498  0.5494  0.2578
  100SAPS   C2710055   2.880   3.760   6.912 -0.2585 -0.2171  0.1539
  100SAPS   H7R10056   2.875   3.651   6.932  0.7069  0.1623  2.7972
  100SAPS   H7S10057   2.810   3.816   6.978  0.0003  0.5404 -0.1944
  100SAPS   C2810058   3.022   3.794   6.932 -0.7470  0.7210 -0.2517
  100SAPS   H8R10059   3.093   3.777   6.849  0.9467  0.5760  1.1700
  100SAPS   C2910060   3.081   3.851   7.039  0.4971  0.2796  0.2292
  100SAPS   H9R10061   3.190   3.863   7.034  0.4012  1.0634 -0.0819
  100SAPS  C21010062   3.013   3.890   7.164 -0.1251 -0.3338  0.0030
  100SAPS  H10R10063   2.902   3.882   7.163 -0.0645 -1.5288 -1.5944
  100SAPS  H10S10064   3.034   3.998   7.176  1.7822 -0.3948 -2.0625
  100SAPS  C21110065   3.045   3.821   7.294 -0.2261 -0.4502  0.0787
  100SAPS  H11R10066   3.112   3.735   7.275  1.0441  0.9148 -2.1891
  100SAPS  C21210067   3.004   3.853   7.416  0.2715  0.3323  0.4479
  100SAPS  H12R10068   3.040   3.787   7.496  0.1484 -1.5139 -0.9601
  100SAPS  C21310069   2.908   3.969   7.454  1.3106  0.6159 -0.6089
  100SAPS  H13R10070   2.837   3.942   7.535 -0.2006  2.4134 -1.2536
  100SAPS  H13S10071   2.841   4.000   7.371 -0.2328  0.4191  0.5086
  100SAPS  C21410072   2.999   4.085   7.494 -0.0283  0.0917  0.1912
  100SAPS  H14R10073   3.058   4.120   7.409  1.7390 -2.7752  0.1217
  100SAPS  C21510074   3.019   4.138   7.613 -0.0813 -0.2231 -1.2314
  100SAPS  H15R10075   3.099   4.214   7.622  1.6352 -2.0189 -0.6009
  100SAPS  C21610076   2.943   4.099   7.744 -0.2408  0.3524  0.5072
  100SAPS  H16R10077   2.874   4.012   7.746 -0.0972  0.2404  0.8736
  100SAPS  H16S10078   2.889   4.192   7.772 -0.1129  1.4668 -2.5854
  100SAPS  C21710079   3.046   4.084   7.855 -0.4648  0.3537 -0.3316
  100SAPS  H17R10080   3.094   4.182   7.876  0.9494 -0.4420  0.2564
  100SAPS  H17S10081   3.134   4.022   7.829 -0.7396 -0.8163  1.3641
  100SAPS  C21810082   2.980   4.041   7.989  0.2874  0.5061  0.6407
  100SAPS  H18R10083   2.906   3.962   7.967  0.3836  0.7268 -0.5531
  100SAPS  H18S10084   2.931   4.134   8.024  0.9525  0.9102  0.5182
  100SAPS  C21910085   3.065   3.975   8.090  0.0395  0.5539 -0.3962
  100SAPS  H19R10086   3.006   3.957   8.182  2.4106  0.7967  1.2574
  100SAPS  H19S10087   3.146   4.046   8.116  0.0034 -0.4080  2.6534
  100SAPS  C22010088   3.149   3.848   8.052  0.3645 -0.3073  0.9446
  100SAPS  H20R10089   3.186   3.851   7.947 -1.0849  0.5165  0.4362
  100SAPS  H20S10090   3.080   3.762   8.057  0.2275 -0.7487 -3.6655
  100SAPS  H20T10091   3.243   3.846   8.112  1.8973  2.7462 -1.0462
  100SAPS   C3310092   3.411   4.088   7.007 -0.0859  0.5157 -0.4661
  100SAPS   H3X10093   3.307   4.121   6.988 -1.0953 -1.9724  0.2635
  100SAPS   H3Y10094   3.481   4.171   6.982 -0.7509  1.1738 -0.1792
  100SAPS   C3410095   3.421   4.068   7.157  0.1050 -0.1933  0.4130
  100SAPS   H4X10096   3.524   4.033   7.178  0.7647  1.2525 -0.2997
  100SAPS   H4Y10097   3.337   4.001   7.188 -0.2078  0.5130  1.1480
  100SAPS   C3510098   3.390   4.202   7.233  0.4103  0.6491  0.1943
  100SAPS   H5X10099   3.288   4.221   7.193  0.7031 -0.0144 -0.9127
  100SAPS   H5Y10100   3.464   4.278   7.200  1.0690 -0.6998 -1.5997
  100SAPS   C3610101   3.395   4.186   7.379  0.0772  0.1322 -0.8118
  100SAPS   H6X10102   3.494   4.136   7.389  2.1214  4.0037  0.5726
  100SAPS   H6Y10103   3.307   4.126   7.411 -0.6897  1.3719 -0.5268
  100SAPS   C3710104   3.386   4.317   7.453 -0.0544 -0.0880  0.4050
  100SAPS   H7X10105   3.303   4.382   7.416 -1.0829 -2.0796 -0.9831
  100SAPS   H7Y10106   3.474   4.379   7.429 -0.8945  0.1540 -2.4322
  100SAPS   C3810107   3.392   4.304   7.605 -0.3797  0.4421 -0.6656
  100SAPS   H8X10108   3.486   4.253   7.634 -1.7095 -0.9753  1.5550
  100SAPS   H8Y10109   3.302   4.248   7.640 -1.4014  1.6919 -1.2110
  100SAPS   C3910110   3.396   4.433   7.687 -0.5821 -0.2563  0.5770
  100SAPS   H9X10111   3.298   4.485   7.697 -1.2381 -1.3470  0.0424
  100SAPS   H9Y10112   3.470   4.496   7.634 -0.5642 -1.6805 -1.1994
  100SAPS  C31010113   3.463   4.412   7.829 -0.1180 -0.1752  0.0096
  100SAPS  H10X10114   3.496   4.509   7.873  1.7013 -0.5756 -0.3763
  100SAPS  H10Y10115   3.554   4.351   7.815 -0.5474 -0.9039  0.3479
  100SAPS  C31110116   3.382   4.344   7.939 -0.3660  0.2036  0.2674
  100SAPS  H11X10117   3.438   4.339   8.035  0.2961 -2.0098 -0.1818
  100SAPS  H11Y10118   3.365   4.239   7.906 -0.1812  0.6902 -1.4833
  100SAPS  C31210119   3.244   4.414   7.961  0.3024 -0.0240  0.6718
  100SAPS  H12X10120   3.180   4.402   7.871  0.7524 -3.4829  0.6971
  100SAPS  H12Y10121   3.267   4.522   7.978 -0.9131  0.5145 -0.8860
  100SAPS  C31310122   3.156   4.359   8.079  0.6545 -0.4212 -0.6952
  100SAPS  H13X10123   3.162   4.248   8.081 -3.4663 -0.7913  0.5283
  100SAPS  H13Y10124   3.048   4.379   8.065  0.0359 -1.2239  2.1477
  100SAPS  C31410125   3.197   4.428   8.216  0.1723  0.1765  0.5671
  100SAPS  H14X10126   3.190   4.539   8.214 -4.1482  0.0825  1.1808
  100SAPS  H14Y10127   3.300   4.390   8.237 -0.4938 -0.7362  2.3850
  100SAPS  C31510128   3.126   4.369   8.337 -0.1197  0.2907 -0.6210
  100SAPS  H15X10129   3.026   4.410   8.361 -0.0403  0.0723  0.1258
  100SAPS  H15Y10130   3.180   4.401   8.429  0.2987  0.4322 -0.9082
  100SAPS  C31610131   3.121   4.215   8.341 -0.6234  0.1711 -0.3936
  100SAPS  H16X10132   3.209   4.167   8.295 -0.3368  2.0842 -1.9666
  100SAPS  H16Y10133   3.042   4.189   8.268 -0.9691  1.5200 -0.5271
  100SAPS  C31710134   3.094   4.154   8.479  0.0749  0.2423 -0.5434
  100SAPS  H17X10135   3.182   4.151   8.546 -0.0634 -1.0231 -0.3916
  100SAPS  H17Y10136   3.069   4.048   8.456 -1.3229  0.4877 -0.2268
  100SAPS  C31810137   2.975   4.212   8.553 -0.0451  0.0202 -0.5269
  100SAPS  H18X10138   2.959   4.149   8.644 -1.2084 -1.7113 -1.8598
  100SAPS  H18Y10139   2.887   4.216   8.486  1.8861 -1.1971 -3.3384
  100SAPS  H18Z10140   3.013   4.310   8.589 -0.2269  0.1664 -0.7324
  101OSM      N10141   3.292   2.145  10.800  0.8490  0.1580  0.2317
  101OSM    C1510142   3.199   2.122  10.909  0.5115 -0.3325 -0.3657
  101OSM   H15A10143   3.230   2.161  11.005 -0.2313 -1.7195  0.4637
  101OSM   H15B10144   3.176   2.017  10.912 -0.5123 -0.0932  1.5811
  101OSM   H15C10145   3.106   2.176  10.900  0.3401 -0.3623  1.0598
  101OSM    C1410146   3.414   2.077  10.845 -0.6692 -0.0630 -0.0179
  101OSM   H14A10147   3.492   2.060  10.773  0.2905 -1.8312  1.3732
  101OSM   H14B10148   3.387   1.978  10.876 -1.3136  0.6497  1.8656
  101OSM   H14C10149   3.455   2.125  10.933  1.3776 -2.2044  0.2689
  101OSM    C1310150   3.236   2.073  10.679 -0.6382  0.1583 -0.2883
  101OSM   H13A10151   3.147   2.127  10.650 -1.1172  0.5172  1.6744
  101OSM   H13B10152   3.219   1.970  10.706  1.0077 -0.1571 -0.3315
  101OSM   H13C10153   3.318   2.074  10.608  0.0441  1.9327  0.4499
  101OSM    C1210154   3.320   2.282  10.770 -0.2026 -0.8117  0.4610
  101OSM   H12A10155   3.401   2.284  10.699  0.0112  0.6476  0.7049
  101OSM   H12B10156   3.362   2.333  10.855  1.6754  0.6758 -1.2727
  101OSM    C1110157   3.207   2.380  10.710  0.0475  0.1254 -0.2319
  101OSM   H11A10158   3.163   2.335  10.619 -0.6092  0.3584 -0.0325
  101OSM   H11B10159   3.256   2.472  10.669 -1.8525  0.8946 -0.9026
  101OSM      P10160   3.085   2.521  10.895 -0.3218 -0.4015 -0.1791
  101OSM    O1310161   2.994   2.482  11.008 -0.0307 -0.5991  0.1643
  101OSM    O1410162   3.225   2.557  10.933 -0.6669 -0.0806  0.0733
  101OSM    O1110163   3.024   2.637  10.802  0.1671 -0.1379  0.0167
  101OSM    O1210164   3.095   2.395  10.800 -0.5905  0.3829  0.1653
  101OSM    C1S10165   2.936   2.623  10.692  0.1672  0.4665  1.1575
  101OSM    H1S10166   2.831   2.617  10.728 -0.2677  1.3722  0.0757
  101OSM    H1T10167   2.945   2.525  10.640  1.8934  1.0302  0.3368
  101OSM     NF10168   2.851   2.693  10.471  0.1754  0.3686  0.3067
  101OSM    HNF10169   2.876   2.645  10.387 -0.1551  1.1235 -0.2380
  101OSM    C2S10170   2.954   2.727  10.573 -0.4745  0.4775  0.3965
  101OSM    H2S10171   2.940   2.829  10.615 -0.4514  0.2965  0.8501
  101OSM    C3S10172   3.099   2.719  10.518  0.0253 -0.5940 -0.8452
  101OSM    H3S10173   3.115   2.615  10.483 -2.2721 -1.3507  0.1547
  101OSM     O310174   3.184   2.763  10.623  0.0725  0.7011  0.1843
  101OSM    HO310175   3.136   2.736  10.702 -0.8366 -0.7671 -0.8285
  101OSM    C4S10176   3.114   2.817  10.409 -0.8996 -0.8048 -0.1451
  101OSM    H4S10177   3.117   2.921  10.445 -1.5387 -0.8378  0.0289
  101OSM    C5S10178   3.114   2.787  10.284  0.2787 -0.5680  0.0041
  101OSM    H5S10179   3.116   2.680  10.259 -0.1793 -0.6306  0.2314
  101OSM    C6S10180   3.119   2.887  10.169  0.5293 -0.5092 -0.0586
  101OSM    H6S10181   3.103   2.831  10.075 -2.0089  0.9033 -0.5614
  101OSM    H6T10182   3.212   2.948  10.162  0.6342 -0.5050  1.1593
  101OSM    C7S10183   3.010   3.000  10.169 -0.0487 -0.5326 -0.2092
  101OSM    H7S10184   3.023   3.076  10.249  0.0728 -0.4235 -0.3328
  101OSM    H7T10185   2.912   2.948  10.177 -1.4336  1.9576 -0.0762
  101OSM    C8S10186   3.013   3.066  10.030 -0.1377 -0.1251  0.1581
  101OSM    H8S10187   2.908   3.101  10.021 -0.5372 -1.2626  0.2399
  101OSM    H8T10188   3.013   2.989   9.950 -1.1979  1.9066 -1.9242
  101OSM    C9S10189   3.121   3.168  10.005 -0.2126  0.4095 -0.1474
  101OSM    H9S10190   3.224   3.126  10.011  0.1107  1.1346 -0.4577
  101OSM    H9T10191   3.106   3.240  10.087  0.0247 -0.1113  0.3585
  101OSM   C10S10192   3.112   3.247   9.875 -0.1598 -0.4640  0.5085
  101OSM   H10S10193   3.187   3.328   9.887 -1.0032  0.5699 -1.0117
  101OSM   H10T10194   3.010   3.287   9.860 -0.1390 -0.6077 -0.0602
  101OSM   C11S10195   3.154   3.170   9.751  0.2993  0.0285 -0.1322
  101OSM   H11S10196   3.088   3.081   9.754 -0.6325  0.7193  0.4102
  101OSM   H11T10197   3.257   3.133   9.772 -0.5625 -2.4826 -0.0537
  101OSM   C12S10198   3.131   3.233   9.612 -0.2038 -0.0860 -0.3041
  101OSM   H12S10199   3.194   3.324   9.602 -1.0079  0.4264 -0.8636
  101OSM   H12T10200   3.028   3.271   9.602 -0.7800 -0.6804  2.4701
  101OSM   C13S10201   3.177   3.149   9.494  0.1816  0.1609 -0.3727
  101OSM   H13S10202   3.118   3.054   9.488 -0.0018  0.2167  0.4728
  101OSM   H13T10203   3.282   3.119   9.512 -0.1881  0.2277  2.3658
  101OSM   C14S10204   3.158   3.226   9.363  0.5839 -0.1266  0.4437
  101OSM   H14S10205   3.209   3.324   9.358  0.9567 -0.3809 -2.2751
  101OSM   H14T10206   3.049   3.236   9.343  0.0220 -2.5129  1.8268
  101OSM   C15S10207   3.217   3.139   9.250  0.0250  0.2556 -0.2616
  101OSM   H15S10208   3.201   3.030   9.263  0.7323  0.2523  0.7059
  101OSM   H15T10209   3.325   3.164   9.250  0.0168  0.4833  1.7517
  101OSM   C16S10210   3.156   3.185   9.119 -1.1086  0.1739  0.0124
  101OSM   H16S10211   3.151   3.296   9.118  3.0165  0.6131 -3.0565
  101OSM   H16T10212   3.054   3.142   9.106  0.0148 -2.3561 -1.0722
  101OSM   C17S10213   3.236   3.149   8.988  0.5496 -0.8750  0.1580
  101OSM   H17S10214   3.267   3.042   8.992  1.4986 -0.6346 -0.4747
  101OSM   H17T10215   3.328   3.210   9.003 -0.5125  0.6539  0.6738
  101OSM   C18S10216   3.165   3.205   8.862 -0.1035  0.0445 -0.3851
  101OSM   H18S10217   3.073   3.146   8.841  0.5105 -0.9191 -0.4421
  101OSM   H18T10218   3.238   3.196   8.779  0.6402  0.6202  0.2001
  101OSM   H18U10219   3.137   3.311   8.880 -0.5797  0.1941 -1.8510
  101OSM    C1F10220   2.722   2.718  10.496 -0.2919 -0.9861 -0.7622
  101OSM     OF10221   2.675   2.712  10.610 -0.1770 -0.2836  0.4265
  101OSM    C2F10222   2.638   2.719  10.374  0.7422 -0.1353  0.3047
  101OSM    H2F10223   2.569   2.632  10.375 -1.2563  1.3321 -1.3835
  101OSM    H2G10224   2.697   2.705  10.280  2.6449 -0.1716  1.4523
  101OSM    C3F10225   2.553   2.854  10.341  0.4780 -0.0952 -0.4454
  101OSM    H3F10226   2.485   2.878  10.426  0.4332  0.0304 -0.5170
  101OSM    H3G10227   2.480   2.830  10.261 -0.4399 -1.0417  0.6184
  101OSM    C4F10228   2.640   2.978  10.314  0.4099  0.4978 -0.2830
  101OSM    H4F10229   2.745   2.956  10.287  0.4140  1.4262 -1.0723
  101OSM    H4G10230   2.649   3.033  10.410 -0.9904 -0.5610  0.4861
  101OSM    C5F10231   2.583   3.084  10.215 -0.3504 -0.2553 -0.2598
  101OSM    H5F10232   2.638   3.180  10.213  0.8564 -0.8626  1.0634
  101OSM    H5G10233   2.481   3.111  10.249 -0.0761  0.4550  0.0116
  101OSM    C6F10234   2.590   3.029  10.069 -0.7965  0.1621 -0.3530
  101OSM    H6F10235   2.514   2.948  10.071 -0.5479 -0.0573  0.9066
  101OSM    H6G10236   2.687   2.976  10.057 -1.1979 -0.2576 -2.0449
  101OSM    C7F10237   2.562   3.113   9.945  0.4122 -1.0113  0.4335
  101OSM    H7F10238   2.615   3.211   9.945 -2.9176  0.9541  1.5437
  101OSM    H7G10239   2.452   3.128   9.951  0.3288 -0.8865 -1.1223
  101OSM    C8F10240   2.574   3.041   9.813  0.3292  0.6971  0.4962
  101OSM    H8F10241   2.511   3.088   9.734  2.8636  2.0457 -0.8278
  101OSM    H8G10242   2.517   2.948   9.835  2.0232  0.0319  2.3620
  101OSM    C9F10243   2.720   3.035   9.780 -0.2027 -0.2768  0.6531
  101OSM    H9F10244   2.774   2.989   9.864 -0.3657 -1.0680  0.3388
  101OSM   C10F10245   2.789   3.079   9.673 -0.2826  0.3976 -0.4303
  101OSM   H10F10246   2.899   3.082   9.682 -0.2823 -0.0571 -0.2035
  101OSM   C11F10247   2.728   3.141   9.549  0.2137  0.1523  0.2282
  101OSM   H11F10248   2.779   3.234   9.516  0.8983 -0.6676 -1.1141
  101OSM   H11G10249   2.619   3.157   9.566  0.4843  1.5006  0.7874
  101OSM   C12F10250   2.737   3.040   9.430  0.0119 -0.1522 -0.0547
  101OSM   H12F10251   2.676   2.952   9.459 -2.5169  0.7410 -2.3171
  101OSM   H12G10252   2.841   3.016   9.399  1.7457  2.4930  2.9787
  101OSM   C13F10253   2.668   3.112   9.312 -0.7713  0.2282  0.4066
  101OSM   H13F10254   2.732   3.196   9.278 -2.5494  0.6322 -2.2095
  101OSM   H13G10255   2.572   3.160   9.341 -0.9387 -0.1718  0.5244
  101OSM   C14F10256   2.653   3.016   9.192 -0.3237 -0.5324 -0.1778
  101OSM   H14F10257   2.574   2.938   9.198  0.0731 -0.8976  0.4105
  101OSM   H14G10258   2.751   2.964   9.176 -1.0690 -2.0114 -0.1109
  101OSM   C15F10259   2.630   3.090   9.060 -0.2275 -1.6915  0.1124
  101OSM   H15F10260   2.702   3.170   9.034 -0.3070 -1.4523  0.6264
  101OSM   H15G10261   2.528   3.132   9.070 -1.0595 -3.5933 -0.0497
  101OSM   C16F10262   2.628   2.998   8.943 -0.5897  0.2219 -0.4392
  101OSM   H16F10263   2.573   2.905   8.968 -0.5926  0.4832  0.5831
  101OSM   H16G10264   2.726   2.954   8.915 -1.2078 -1.5667  0.0835
  101OSM   C17F10265   2.569   3.053   8.814  0.2924 -0.1280  0.2192
  101OSM   H17F10266   2.471   3.098   8.839 -0.2997  0.1306 -2.3042
  101OSM   H17G10267   2.571   2.978   8.733  1.6448  0.5365 -0.3875
  101OSM   C18F10268   2.642   3.177   8.755  0.2084  0.6549 -0.6341
  101OSM   H18F10269   2.636   3.261   8.827 -1.0494 -0.5450  0.7139
  101OSM   H18G10270   2.574   3.203   8.671 -3.1542 -1.3698  1.2110
  101OSM   H18H10271   2.747   3.172   8.720 -0.1408  2.1753 -2.0144
  102OSM      N10272   1.851   3.092  11.120 -0.5986  0.4692  0.4938
  102OSM    C1510273   1.841   3.241  11.132 -0.1227  0.0579 -0.1515
  102OSM   H15A10274   1.931   3.285  11.092  0.9880 -1.0441  1.0366
  102OSM   H15B10275   1.845   3.274  11.235  0.9874  0.7646 -0.4090
  102OSM   H15C10276   1.761   3.276  11.068  0.8386 -1.6973 -2.4573
  102OSM    C1410277   1.964   3.048  11.209  0.0734 -0.2622  0.0549
  102OSM   H14A10278   1.939   3.059  11.313 -0.0051  0.4626 -0.0329
  102OSM   H14B10279   2.052   3.107  11.191  0.8266 -1.7573 -1.5111
  102OSM   H14C10280   1.992   2.944  11.197  1.0030 -0.0191  0.0607
  102OSM    C1310281   1.720   3.023  11.147  0.4615 -0.0743 -0.1811
  102OSM   H13A10282   1.736   2.917  11.132  0.3764 -0.3023  1.2330
  102OSM   H13B10283   1.641   3.047  11.078 -0.7117 -0.3029  1.0527
  102OSM   H13C10284   1.690   3.051  11.247 -0.1394 -1.1079 -0.0651
  102OSM    C1210285   1.884   3.063  10.976 -0.3124  0.1160  0.0635
  102OSM   H12A10286   1.900   2.956  10.981  0.3197  0.2467  2.2550
  102OSM   H12B10287   1.977   3.108  10.944 -0.0599  0.1628  0.8209
  102OSM    C1110288   1.776   3.107  10.872  0.4472 -1.0825 -0.0766
  102OSM   H11A10289   1.815   3.125  10.770 -0.4655 -0.2765 -0.2927
  102OSM   H11B10290   1.724   3.204  10.883  0.7284 -0.6458 -2.2536
  102OSM      P10291   1.711   2.874  10.786  0.2498  0.2495  0.1818
  102OSM    O1310292   1.841   2.812  10.825 -0.5030  0.1390 -0.0559
  102OSM    O1410293   1.600   2.777  10.804  0.0546  0.6988 -0.6976
  102OSM    O1110294   1.710   2.910  10.636  0.2780  0.6724  0.3948
  102OSM    O1210295   1.679   3.000  10.879 -0.5024 -0.1317 -0.0491
  102OSM    C1S10296   1.598   2.968  10.573  0.2160 -0.3445  0.0362
  102OSM    H1S10297   1.589   3.076  10.598  0.4144 -0.2455 -0.3100
  102OSM    H1T10298   1.503   2.912  10.588  1.5597 -2.7506 -0.0380
  102OSM     NF10299   1.522   3.095  10.365  0.1776  0.3847 -0.3586
  102OSM    HNF10300   1.446   3.074  10.304  1.3911 -0.1335 -1.7420
  102OSM    C2S10301   1.615   2.983  10.418  0.6946 -0.6073  0.0675
  102OSM    H2S10302   1.720   3.017  10.404  1.1579 -2.2515 -0.6697
  102OSM    C3S10303   1.585   2.841  10.364  0.4448 -0.3431 -0.3436
  102OSM    H3S10304   1.477   2.821  10.382  0.4914  1.4607  2.6600
  102OSM     O310305   1.653   2.738  10.435  0.8179  0.1940 -0.0540
  102OSM    HO310306   1.698   2.788  10.504  1.3821 -0.3991  0.0106
  102OSM    C4S10307   1.637   2.825  10.227 -0.2770 -0.1519 -0.9554
  102OSM    H4S10308   1.747   2.835  10.221 -0.3846  1.2000 -0.9547
  102OSM    C5S10309   1.566   2.783  10.120 -0.0858 -0.7684 -0.5099
  102OSM    H5S10310   1.460   2.767  10.142 -0.6274  2.8986  0.0526
  102OSM    C6S10311   1.611   2.750   9.974 -0.1279 -0.2194  0.4321
  102OSM    H6S10312   1.521   2.773   9.913  0.6048 -2.0937 -1.4555
  102OSM    H6T10313   1.611   2.641   9.958  0.1616 -0.0962 -0.4246
  102OSM    C7S10314   1.728   2.821   9.902 -0.0352  0.1659 -0.2289
  102OSM    H7S10315   1.824   2.802   9.956  0.2003  2.0126  0.0590
  102OSM    H7T10316   1.715   2.931   9.906 -1.9148 -0.0566  1.9471
  102OSM    C8S10317   1.755   2.782   9.754  0.8836  0.0083  0.3375
  102OSM    H8S10318   1.664   2.807   9.697  0.4975 -2.3720 -0.2093
  102OSM    H8T10319   1.763   2.672   9.737 -0.0789  0.1576 -1.2989
  102OSM    C9S10320   1.878   2.843   9.687 -0.6629  0.3308 -0.2013
  102OSM    H9S10321   1.968   2.796   9.734  0.2169  2.8607  0.7979
  102OSM    H9T10322   1.883   2.953   9.702  1.4954  0.5999 -2.3906
  102OSM   C10S10323   1.881   2.812   9.538  0.1866 -0.0492 -0.2200
  102OSM   H10S10324   1.831   2.714   9.524 -2.1159  1.2860 -2.0775
  102OSM   H10T10325   1.985   2.822   9.499 -0.7933  1.5211 -2.6494
  102OSM   C11S10326   1.804   2.914   9.458  0.0812  0.3635 -0.3980
  102OSM   H11S10327   1.861   3.010   9.456 -0.5933  0.8048  0.8079
  102OSM   H11T10328   1.703   2.923   9.502  0.2321  1.4976 -0.2418
  102OSM   C12S10329   1.771   2.852   9.319  0.1212  0.3858 -0.4320
  102OSM   H12S10330   1.701   2.925   9.274 -2.2058 -1.6024 -0.2638
  102OSM   H12T10331   1.715   2.757   9.336  3.2472 -1.4871  0.2645
  102OSM   C13S10332   1.894   2.818   9.225 -0.6638  0.4946  0.8464
  102OSM   H13S10333   1.944   2.729   9.269  0.6178  0.9867  0.4347
  102OSM   H13T10334   1.958   2.908   9.218 -0.6965  0.4265 -0.6515
  102OSM   C14S10335   1.843   2.776   9.075 -0.8704 -0.3546  0.2601
  102OSM   H14S10336   1.801   2.674   9.088  3.1369 -2.0739  1.1649
  102OSM   H14T10337   1.940   2.759   9.024 -1.2732 -1.7332 -0.0910
  102OSM   C15S10338   1.745   2.882   9.018 -0.4151  0.0774  0.6731
  102OSM   H15S10339   1.791   2.981   9.035 -0.3142  0.0276  0.6946
  102OSM   H15T10340   1.646   2.863   9.065 -0.6746 -0.0446  0.0942
  102OSM   C16S10341   1.722   2.853   8.871 -0.1784 -0.4521  0.0283
  102OSM   H16S10342   1.704   2.745   8.851 -0.6537 -0.1621 -1.1784
  102OSM   H16T10343   1.814   2.888   8.820 -0.6486  1.0042  0.1302
  102OSM   C17S10344   1.601   2.924   8.817  0.2031  0.0875  0.3578
  102OSM   H17S10345   1.599   3.027   8.858  0.4681  0.7215 -1.1498
  102OSM   H17T10346   1.513   2.864   8.846 -0.8545  0.1597 -2.3859
  102OSM   C18S10347   1.588   2.936   8.662 -0.3081  0.4734 -0.6480
  102OSM   H18S10348   1.526   3.021   8.628 -0.0805  1.8281  2.0678
  102OSM   H18T10349   1.545   2.841   8.624 -0.0369 -0.5850  1.5671
  102OSM   H18U10350   1.691   2.943   8.620  0.4014  1.9596  1.2078
  102OSM    C1F10351   1.543   3.224  10.386 -0.2886  0.8506  0.4625
  102OSM     OF10352   1.646   3.267  10.426 -0.1804 -0.7270 -0.2471
  102OSM    C2F10353   1.420   3.308  10.355  0.1963 -0.7796  0.1842
  102OSM    H2F10354   1.431   3.400  10.415 -0.7367 -2.4275  3.0762
  102OSM    H2G10355   1.329   3.254  10.386  0.6946 -2.7982 -1.5865
  102OSM    C3F10356   1.411   3.343  10.211  0.9311 -0.2025  0.7614
  102OSM    H3F10357   1.415   3.252  10.147 -1.0840 -1.6064  2.4973
  102OSM    H3G10358   1.492   3.417  10.192 -1.3247  1.8582 -1.7556
  102OSM    C4F10359   1.282   3.430  10.180 -0.0467  0.1316 -0.2760
  102OSM    H4F10360   1.295   3.532  10.223 -0.6883  0.0797  0.0513
  102OSM    H4G10361   1.186   3.385  10.213 -0.0598  0.7357  0.5307
  102OSM    C5F10362   1.260   3.459  10.029  0.3983  0.4248  1.0021
  102OSM    H5F10363   1.242   3.357   9.987 -4.9261  0.9159  1.3188
  102OSM    H5G10364   1.353   3.498   9.982 -0.1815 -1.2311 -1.7553
  102OSM    C6F10365   1.146   3.557   9.994  0.8241 -0.2334  0.1699
  102OSM    H6F10366   1.173   3.662  10.019  0.9506  0.0836 -1.2260
  102OSM    H6G10367   1.053   3.535  10.052  0.5026 -0.9132 -0.5910
  102OSM    C7F10368   1.096   3.552   9.850  0.4600 -0.3826 -0.9261
  102OSM    H7F10369   1.006   3.616   9.846  0.2639 -0.3293  2.1170
  102OSM    H7G10370   1.057   3.450   9.827 -0.5661 -0.3797  0.6230
  102OSM    C8F10371   1.204   3.594   9.750  0.0111 -0.2311 -0.0148
  102OSM    H8F10372   1.266   3.676   9.793 -0.4955  0.2574 -0.2132
  102OSM    H8G10373   1.149   3.643   9.667 -0.2895 -0.4538  0.0551
  102OSM    C9F10374   1.295   3.490   9.699  0.5149 -0.0333 -0.1236
  102OSM    H9F10375   1.387   3.478   9.757 -0.3868  2.5918  2.0319
  102OSM   C10F10376   1.271   3.410   9.591 -1.1267 -0.2839 -0.0316
  102OSM   H10F10377   1.350   3.336   9.570  0.1962  1.3518 -1.0713
  102OSM   C11F10378   1.162   3.418   9.490  0.2577 -0.6163  0.3800
  102OSM   H11F10379   1.068   3.446   9.544 -0.6972 -0.5737 -1.2262
  102OSM   H11G10380   1.120   3.320   9.459 -1.6732 -0.1796  1.4392
  102OSM   C12F10381   1.172   3.513   9.372 -0.4677  0.1397  0.4278
  102OSM   H12F10382   1.262   3.475   9.319 -0.2709 -0.8990  1.4905
  102OSM   H12G10383   1.179   3.622   9.396  0.1181  0.4397 -0.9509
  102OSM   C13F10384   1.054   3.499   9.279  0.3156 -0.5069 -0.2939
  102OSM   H13F10385   1.046   3.399   9.231 -2.4742  0.4332 -2.0512
  102OSM   H13G10386   1.072   3.566   9.193  1.0080 -0.5907 -0.2187
  102OSM   C14F10387   0.912   3.530   9.339 -0.0186 -0.1971 -0.1160
  102OSM   H14F10388   0.906   3.634   9.378 -1.0361 -1.1814  2.6089
  102OSM   H14G10389   0.900   3.458   9.423 -0.2454  0.8050  0.7248
  102OSM   C15F10390   0.801   3.496   9.233 -0.3964  0.0924  0.0182
  102OSM   H15F10391   0.818   3.391   9.201 -0.1867  0.4275 -0.9937
  102OSM   H15G10392   0.829   3.562   9.149 -1.1276 -1.7654 -1.7743
  102OSM   C16F10393   0.656   3.527   9.275  0.5181 -0.1295 -0.0716
  102OSM   H16F10394   0.642   3.636   9.284 -0.3428 -0.2516  0.0699
  102OSM   H16G10395   0.643   3.483   9.376  0.2994 -0.5081 -0.2611
  102OSM   C17F10396   0.545   3.494   9.182  0.1236  0.0712  0.7505
  102OSM   H17F10397   0.544   3.389   9.146 -3.9322  0.8417 -2.0431
  102OSM   H17G10398   0.556   3.557   9.091  1.1978 -0.3597  0.5729
  102OSM   C18F10399   0.400   3.516   9.241 -0.4014 -0.7265 -0.1219
  102OSM   H18F10400   0.383   3.450   9.329  0.6167  1.1661  1.5937
  102OSM   H18G10401   0.323   3.503   9.161 -0.6449  1.0198 -0.2231
  102OSM   H18H10402   0.391   3.620   9.279  0.3272 -0.7723  0.1919
  103OSM      N10403   3.676   5.594  10.934 -0.6045  0.8660 -0.3139
  103OSM    C1510404   3.816   5.637  10.962  0.2146 -0.5163 -0.4827
  103OSM   H15A10405   3.822   5.743  10.984 -0.2698 -0.4418 -0.6939
  103OSM   H15B10406   3.881   5.638  10.876  1.9551 -0.3629  0.7754
  103OSM   H15C10407   3.867   5.583  11.040 -1.9373 -1.4505  0.3487
  103OSM    C1410408   3.586   5.636  11.048  0.1373  0.2973 -0.6592
  103OSM   H14A10409   3.539   5.733  11.041 -1.5097 -0.2266  1.7320
  103OSM   H14B10410   3.643   5.623  11.139 -1.3671  0.4464  0.3437
  103OSM   H14C10411   3.500   5.571  11.045 -0.9939  1.7842 -2.5544
  103OSM    C1310412   3.637   5.676  10.818  0.2142  0.0080 -0.3127
  103OSM   H13A10413   3.664   5.779  10.833  2.3301 -0.3665 -1.2192
  103OSM   H13B10414   3.532   5.669  10.795  0.3213 -1.0018 -0.5496
  103OSM   H13C10415   3.692   5.637  10.734  3.0671  3.0627 -0.0489
  103OSM    C1210416   3.672   5.446  10.907  0.3013  0.0900  0.0607
  103OSM   H12A10417   3.736   5.421  10.823 -1.3266 -2.2087 -0.5994
  103OSM   H12B10418   3.571   5.424  10.876 -0.1459  1.2304  0.6644
  103OSM    C1110419   3.715   5.358  11.023 -0.3077 -0.1337  0.2046
  103OSM   H11A10420   3.675   5.255  11.012 -0.1408  0.0022 -2.2433
  103OSM   H11B10421   3.675   5.392  11.121  1.2213  1.6480  0.2873
  103OSM      P10422   3.964   5.277  10.970 -0.4111 -0.0295 -0.2998
  103OSM    O1310423   4.092   5.296  11.045 -0.1341 -0.1970 -0.2309
  103OSM    O1410424   3.918   5.141  10.956  0.6921  0.3644  0.4725
  103OSM    O1110425   3.969   5.347  10.827 -0.0341 -0.1431 -0.8104
  103OSM    O1210426   3.856   5.357  11.040 -0.6375  0.3267 -0.0447
  103OSM    C1S10427   4.019   5.272  10.716  0.3551  0.3541  0.9477
  103OSM    H1S10428   3.945   5.193  10.692 -1.1020  1.3626  1.9219
  103OSM    H1T10429   4.115   5.229  10.753  0.1470 -0.3456  0.6882
  103OSM     NF10430   4.096   5.287  10.475  0.5088 -0.6179  0.1078
  103OSM    HNF10431   4.185   5.291  10.431 -0.3052  0.6612 -1.5318
  103OSM    C2S10432   4.045   5.363  10.591  0.2339  0.6153  0.4185
  103OSM    H2S10433   3.945   5.404  10.567  0.3480 -0.2648 -1.7585
  103OSM    C3S10434   4.136   5.479  10.621 -0.0466 -0.4918 -0.8383
  103OSM    H3S10435   4.237   5.457  10.661  0.4287  1.2753 -0.9636
  103OSM     O310436   4.092   5.567  10.730 -0.3801  0.1789 -0.2907
  103OSM    HO310437   4.027   5.506  10.767 -0.4919 -0.3161 -1.2600
  103OSM    C4S10438   4.154   5.569  10.501 -0.5662  0.0157 -0.6397
  103OSM    H4S10439   4.068   5.635  10.483  0.4530  1.6860  0.3509
  103OSM    C5S10440   4.263   5.585  10.420  0.3610  0.5117  0.5040
  103OSM    H5S10441   4.350   5.519  10.414 -0.8415 -1.0899 -0.0531
  103OSM    C6S10442   4.260   5.677  10.298 -0.5938 -0.5123  0.3972
  103OSM    H6S10443   4.337   5.757  10.298 -0.2541 -0.6268 -3.5998
  103OSM    H6T10444   4.164   5.733  10.302 -0.6961 -0.5817 -0.7982
  103OSM    C7S10445   4.253   5.608  10.160  0.0920  0.1160  0.7126
  103OSM    H7S10446   4.175   5.529  10.160  1.1000 -0.9091 -0.5678
  103OSM    H7T10447   4.342   5.548  10.130 -0.9084 -1.0830  0.0329
  103OSM    C8S10448   4.204   5.709  10.059  0.9140 -0.1250  0.3547
  103OSM    H8S10449   4.281   5.790  10.058  0.1881  0.5732  0.3410
  103OSM    H8T10450   4.107   5.750  10.095  0.8176 -1.3560  1.5900
  103OSM    C9S10451   4.184   5.665   9.916 -0.4047  0.3142 -0.6720
  103OSM    H9S10452   4.105   5.587   9.904 -1.6641  1.8422 -2.7711
  103OSM    H9T10453   4.284   5.629   9.885  0.2452  0.5500  1.0196
  103OSM   C10S10454   4.142   5.785   9.829 -0.4316 -0.1998 -0.3258
  103OSM   H10S10455   4.231   5.852   9.833  0.4884 -1.4649  1.4180
  103OSM   H10T10456   4.045   5.821   9.871 -0.5896 -0.0440 -0.8219
  103OSM   C11S10457   4.131   5.738   9.682  0.4316 -0.7919 -0.0567
  103OSM   H11S10458   4.045   5.667   9.681  0.4871 -1.0116  2.9030
  103OSM   H11T10459   4.218   5.675   9.652 -0.3538 -1.6599 -0.5736
  103OSM   C12S10460   4.134   5.845   9.576 -1.1574  0.2639 -0.2611
  103OSM   H12S10461   4.231   5.898   9.580 -0.7751 -0.3313 -1.1943
  103OSM   H12T10462   4.045   5.905   9.603 -0.9510  1.8453 -2.7925
  103OSM   C13S10463   4.098   5.795   9.430 -0.1359  0.7317 -0.7519
  103OSM   H13S10464   4.008   5.731   9.419  0.9143 -1.0497  0.5688
  103OSM   H13T10465   4.178   5.721   9.416  0.1098  0.8460 -0.0074
  103OSM   C14S10466   4.100   5.911   9.332 -0.2908 -0.1015  0.1810
  103OSM   H14S10467   4.202   5.953   9.325  0.0249 -0.7423  0.8284
  103OSM   H14T10468   4.033   5.993   9.365  0.9725  0.6709  0.8724
  103OSM   C15S10469   4.072   5.865   9.185  0.4653 -0.1663  0.0306
  103OSM   H15S10470   3.967   5.833   9.170  0.7720 -1.8020  1.0819
  103OSM   H15T10471   4.126   5.771   9.158  0.7045  0.1294 -0.5380
  103OSM   C16S10472   4.115   5.976   9.079  0.2383  0.8584 -0.2862
  103OSM   H16S10473   4.224   5.987   9.095  0.5078  0.5884 -1.7702
  103OSM   H16T10474   4.060   6.072   9.093 -1.2024  0.0758 -0.3727
  103OSM   C17S10475   4.075   5.939   8.943 -0.4734 -0.4270  0.4345
  103OSM   H17S10476   3.971   5.901   8.947 -0.7140  0.3232  1.7849
  103OSM   H17T10477   4.127   5.854   8.892  0.3633  0.3993 -0.1180
  103OSM   C18S10478   4.091   6.053   8.837  0.2912  0.6302 -0.0895
  103OSM   H18S10479   4.032   6.140   8.873 -1.1427 -0.6244  0.7172
  103OSM   H18T10480   4.040   6.027   8.742  1.8593 -0.1467 -0.7579
  103OSM   H18U10481   4.195   6.090   8.824  0.4745  0.7692  1.5600
  103OSM    C1F10482   4.012   5.220  10.406  0.4187  0.0101 -0.2038
  103OSM     OF10483   3.897   5.203  10.444  0.5708 -0.3673  0.0347
  103OSM    C2F10484   4.061   5.141  10.285 -1.4128  0.0462  0.4317
  103OSM    H2F10485   4.070   5.039  10.328 -1.5451 -0.2423 -0.2265
  103OSM    H2G10486   4.149   5.196  10.245 -1.6076  1.2768  1.6259
  103OSM    C3F10487   3.959   5.113  10.178 -0.6983 -0.4397  0.1927
  103OSM    H3F10488   3.869   5.074  10.229 -0.6252 -0.6747  0.1422
  103OSM    H3G10489   3.997   5.032  10.112 -0.2463  0.4673 -0.6867
  103OSM    C4F10490   3.916   5.232  10.093  0.8798  0.3796  0.3365
  103OSM    H4F10491   3.869   5.307  10.161 -1.9764  1.1652 -2.2973
  103OSM    H4G10492   3.843   5.197  10.017  2.4629 -2.0838 -0.1559
  103OSM    C5F10493   4.022   5.305  10.016 -0.1179 -0.0224 -1.0016
  103OSM    H5F10494   4.099   5.337  10.090  0.3196  1.4770 -2.0625
  103OSM    H5G10495   3.979   5.397   9.973 -3.2754  0.7649  3.2179
  103OSM    C6F10496   4.098   5.220   9.909 -0.6941 -0.2654 -0.0694
  103OSM    H6F10497   4.166   5.144   9.953 -1.4931 -0.8523  0.1694
  103OSM    H6G10498   4.162   5.282   9.843 -1.7647  0.5390 -0.3816
  103OSM    C7F10499   4.012   5.145   9.807 -0.3208 -0.0962  0.1904
  103OSM    H7F10500   3.964   5.063   9.865 -0.0045  1.8374  3.4598
  103OSM    H7G10501   4.072   5.081   9.739  1.0527 -0.5893  1.7772
  103OSM    C8F10502   3.912   5.228   9.728  0.0051  0.2768  0.1858
  103OSM    H8F10503   3.830   5.266   9.793 -1.4048  0.4349 -1.5982
  103OSM    H8G10504   3.858   5.160   9.659 -0.2951 -0.4198  1.0862
  103OSM    C9F10505   3.994   5.333   9.659 -0.0783 -0.4564  0.5076
  103OSM    H9F10506   4.051   5.403   9.721 -0.9795 -0.3930  1.2871
  103OSM   C10F10507   4.015   5.338   9.527 -0.3850 -0.1550  0.1509
  103OSM   H10F10508   4.080   5.415   9.483  0.4863 -0.6167  0.6056
  103OSM   C11F10509   3.962   5.229   9.429 -0.0384  0.0741  0.1037
  103OSM   H11F10510   3.858   5.210   9.462  0.3833 -3.3067 -0.1646
  103OSM   H11G10511   4.025   5.138   9.420  0.1131 -0.1726  2.8051
  103OSM   C12F10512   3.945   5.280   9.283  0.1861  0.1997  0.7072
  103OSM   H12F10513   3.896   5.199   9.225 -1.0558 -0.6349  2.7685
  103OSM   H12G10514   4.034   5.316   9.228 -1.1679  1.3729 -0.8211
  103OSM   C13F10515   3.851   5.400   9.272 -0.7192 -0.0369  0.2487
  103OSM   H13F10516   3.754   5.368   9.317 -0.3212  0.4448  1.4894
  103OSM   H13G10517   3.884   5.494   9.321 -3.1421  1.2244 -0.3575
  103OSM   C14F10518   3.804   5.431   9.125 -0.0991 -0.1124 -0.3244
  103OSM   H14F10519   3.719   5.503   9.132 -0.3018 -0.4257  0.6540
  103OSM   H14G10520   3.762   5.337   9.085 -2.5482  0.9173 -0.3420
  103OSM   C15F10521   3.919   5.485   9.033 -0.3092 -0.4074 -0.3554
  103OSM   H15F10522   3.991   5.402   9.020  2.7617  1.4672  2.7679
  103OSM   H15G10523   3.988   5.557   9.083 -0.3108 -0.3904 -0.3763
  103OSM   C16F10524   3.866   5.535   8.895 -0.2013 -0.6316  0.8848
  103OSM   H16F10525   3.797   5.620   8.914  0.0839  0.4674 -2.4117
  103OSM   H16G10526   3.806   5.457   8.843  0.6060 -0.9539  0.4191
  103OSM   C17F10527   3.973   5.579   8.790  0.1893 -0.3567 -0.2973
  103OSM   H17F10528   4.037   5.490   8.772 -1.4113 -1.3692 -1.2316
  103OSM   H17G10529   4.024   5.665   8.838 -3.9160  1.2875  1.5552
  103OSM   C18F10530   3.899   5.639   8.663  0.5152 -0.2339  0.5600
  103OSM   H18F10531   3.964   5.634   8.574  1.1366  0.2991  0.9797
  103OSM   H18G10532   3.868   5.742   8.692 -0.3541 -0.1056 -0.7168
  103OSM   H18H10533   3.806   5.580   8.644 -0.2267  0.3232  2.1821
  104OSM      N10534   1.618   4.390  11.035  0.3038 -0.0692  0.2529
  104OSM    C1510535   1.562   4.252  11.053 -0.3795 -0.6410 -0.0392
  104OSM   H15A10536   1.513   4.247  11.149  1.5285  2.3616  1.2364
  104OSM   H15B10537   1.637   4.174  11.049  0.3464  0.0762 -1.0067
  104OSM   H15C10538   1.487   4.245  10.976 -0.1154  2.2852 -0.7000
  104OSM    C1410539   1.527   4.490  11.099  0.8863 -0.1863  0.1927
  104OSM   H14A10540   1.493   4.439  11.188 -1.6092 -1.3623 -1.3251
  104OSM   H14B10541   1.441   4.513  11.038  1.7997  0.4279 -0.8947
  104OSM   H14C10542   1.558   4.587  11.133 -2.0861  1.0410 -0.3430
  104OSM    C1310543   1.743   4.391  11.107 -0.2923  0.4047 -0.4230
  104OSM   H13A10544   1.744   4.349  11.206  1.8338  1.9299  0.2867
  104OSM   H13B10545   1.780   4.492  11.118 -0.3377  0.4764 -0.8969
  104OSM   H13C10546   1.819   4.333  11.056  2.4054  3.0574  0.2454
  104OSM    C1210547   1.651   4.416  10.895 -0.7212 -0.3481 -0.4785
  104OSM   H12A10548   1.735   4.353  10.868 -0.7368 -0.8997  0.7285
  104OSM   H12B10549   1.694   4.515  10.892 -0.4079 -0.2003  3.4483
  104OSM    C1110550   1.539   4.395  10.787 -0.6325  0.0857  0.9613
  104OSM   H11A10551   1.590   4.425  10.693  0.5638 -3.3600  0.3876
  104OSM   H11B10552   1.450   4.462  10.793 -0.9063  0.7887 -4.8522
  104OSM      P10553   1.599   4.153  10.716  0.3164  0.1733  0.0984
  104OSM    O1310554   1.734   4.183  10.742 -0.4535 -0.1923  0.4410
  104OSM    O1410555   1.549   4.018  10.748 -0.1993  0.4495 -0.2250
  104OSM    O1110556   1.586   4.187  10.565  0.3720 -0.2266 -0.5740
  104OSM    O1210557   1.499   4.254  10.779 -0.4041 -0.9841 -0.0521
  104OSM    C1S10558   1.448   4.205  10.529  0.5102 -0.2757  0.9167
  104OSM    H1S10559   1.408   4.303  10.561  1.4566  0.8699 -1.2242
  104OSM    H1T10560   1.379   4.123  10.560 -0.8559  1.0415  1.4924
  104OSM     NF10561   1.316   4.243  10.317 -0.1048 -0.3659  0.8116
  104OSM    HNF10562   1.277   4.174  10.256  1.7889 -0.0176 -0.9243
  104OSM    C2S10563   1.444   4.212  10.372 -0.1701 -0.3640 -0.8488
  104OSM    H2S10564   1.515   4.288  10.335 -0.6321 -0.0608 -1.1179
  104OSM    C3S10565   1.496   4.081  10.325  0.5266 -0.1795  0.5626
  104OSM    H3S10566   1.433   4.004  10.374  0.5338 -0.9009 -0.5137
  104OSM     O310567   1.619   4.047  10.372  0.6851 -0.0833  0.5144
  104OSM    HO310568   1.629   4.090  10.458  0.6428 -0.0181  0.4868
  104OSM    C4S10569   1.501   4.066  10.175  0.2500 -0.4344 -0.3694
  104OSM    H4S10570   1.419   4.004  10.136 -0.3980 -0.1007  0.4348
  104OSM    C5S10571   1.591   4.113  10.088  0.1342 -0.0858  0.9378
  104OSM    H5S10572   1.671   4.175  10.132 -0.7490 -0.5395  3.3316
  104OSM    C6S10573   1.591   4.085   9.934 -0.9280 -0.7787 -0.8878
  104OSM    H6S10574   1.688   4.038   9.906 -1.8078 -0.9329 -4.0436
  104OSM    H6T10575   1.613   4.182   9.884 -2.1208 -0.0451 -0.0242
  104OSM    C7S10576   1.484   4.011   9.853  0.4235  0.3227 -0.0793
  104OSM    H7S10577   1.386   4.065   9.851  0.5385  0.7298  2.1941
  104OSM    H7T10578   1.457   3.915   9.902 -0.0399  1.0237  1.0988
  104OSM    C8S10579   1.528   3.971   9.706 -0.3672 -0.5899 -0.1216
  104OSM    H8S10580   1.613   3.901   9.718  0.0148 -0.2392 -0.7533
  104OSM    H8T10581   1.571   4.056   9.649 -1.3525 -0.0028 -0.0202
  104OSM    C9S10582   1.418   3.918   9.617  0.1191  0.5734 -0.4226
  104OSM    H9S10583   1.328   3.979   9.639  0.0247  0.9192 -1.7032
  104OSM    H9T10584   1.384   3.816   9.645  1.7798  0.4470  1.3184
  104OSM   C10S10585   1.461   3.925   9.476  0.3015  0.3759  0.6233
  104OSM   H10S10586   1.568   3.897   9.469 -0.5231 -3.0248 -0.4712
  104OSM   H10T10587   1.449   4.030   9.440  1.2875  0.6699  1.1492
  104OSM   C11S10588   1.386   3.814   9.393 -0.3193 -0.5933  0.3542
  104OSM   H11S10589   1.276   3.817   9.409 -0.2765  0.0543  0.5549
  104OSM   H11T10590   1.426   3.712   9.413  0.8956 -0.1740  0.1596
  104OSM   C12S10591   1.404   3.844   9.244 -0.4027  0.1937  0.0071
  104OSM   H12S10592   1.513   3.842   9.221 -0.3634  2.4266 -0.2220
  104OSM   H12T10593   1.374   3.951   9.241  0.8985  0.6037  0.7037
  104OSM   C13S10594   1.324   3.750   9.154 -0.8953 -0.2369  0.2015
  104OSM   H13S10595   1.213   3.756   9.161 -1.0060  0.1103 -1.4412
  104OSM   H13T10596   1.351   3.646   9.183  3.5394  1.0348  1.3730
  104OSM   C14S10597   1.359   3.792   9.008  0.1682  1.0269  0.2499
  104OSM   H14S10598   1.470   3.790   8.999  0.0358  1.6038 -2.0861
  104OSM   H14T10599   1.324   3.894   8.982 -1.2529  0.8679  1.4101
  104OSM   C15S10600   1.289   3.699   8.899  0.4516  0.0089  0.4670
  104OSM   H15S10601   1.329   3.599   8.926 -1.0970 -0.6374  0.4733
  104OSM   H15T10602   1.337   3.741   8.808 -0.7719 -0.4249 -0.4019
  104OSM   C16S10603   1.135   3.690   8.898  0.2160 -1.1839 -0.1529
  104OSM   H16S10604   1.094   3.789   8.866  2.7184  0.4675  1.3587
  104OSM   H16T10605   1.076   3.673   8.990  1.7932  4.9119  2.5436
  104OSM   C17S10606   1.094   3.591   8.794 -0.3106 -0.7906 -0.0237
  104OSM   H17S10607   1.123   3.487   8.821 -0.3812 -1.1845 -1.3692
  104OSM   H17T10608   1.153   3.598   8.700 -0.9160  0.1770 -0.3544
  104OSM   C18S10609   0.948   3.589   8.762  0.2389 -1.6154  0.5371
  104OSM   H18S10610   0.901   3.684   8.728 -0.9072 -2.3468  0.0442
  104OSM   H18T10611   0.883   3.561   8.848  0.0082 -0.6267  0.6976
  104OSM   H18U10612   0.927   3.532   8.669  1.4939  0.9234 -1.4507
  104OSM    C1F10613   1.254   4.357  10.352 -0.1428  0.1327  0.8843
  104OSM     OF10614   1.314   4.452  10.400  0.5862  0.1208  0.3263
  104OSM    C2F10615   1.112   4.369  10.327 -0.3514 -0.5406  0.2254
  104OSM    H2F10616   1.078   4.409  10.425 -0.2254  1.6475 -0.5524
  104OSM    H2G10617   1.061   4.274  10.302 -0.5490 -1.0562  2.4429
  104OSM    C3F10618   1.075   4.472  10.218 -0.0950  0.2670 -0.2710
  104OSM    H3F10619   1.099   4.572  10.258  0.3469 -0.5221  1.5429
  104OSM    H3G10620   0.966   4.473  10.197 -0.5132  0.3360  1.7658
  104OSM    C4F10621   1.149   4.458  10.085  0.2379 -0.5404 -0.4694
  104OSM    H4F10622   1.138   4.354  10.048 -2.4521 -0.0551 -1.2831
  104OSM    H4G10623   1.257   4.484  10.091 -0.2724  2.0179 -1.1688
  104OSM    C5F10624   1.096   4.548   9.973  0.7112  0.2126 -0.3839
  104OSM    H5F10625   1.125   4.654   9.992 -0.4376  0.0848  2.7476
  104OSM    H5G10626   0.986   4.546   9.983  0.2747  1.8434 -3.6083
  104OSM    C6F10627   1.128   4.496   9.837  0.0559  0.1624  0.5213
  104OSM    H6F10628   1.076   4.556   9.759  1.2645  1.3850  0.6308
  104OSM    H6G10629   1.097   4.392   9.814  3.1197 -0.7086 -0.1378
  104OSM    C7F10630   1.272   4.511   9.808 -0.7696  0.0595  0.6174
  104OSM    H7F10631   1.347   4.462   9.874  1.9266  1.4475 -1.2110
  104OSM    H7G10632   1.297   4.619   9.819 -0.4714 -0.0112  0.6544
  104OSM    C8F10633   1.312   4.474   9.663  0.4195 -0.3824  0.4068
  104OSM    H8F10634   1.420   4.493   9.643  0.2768  2.7551  2.0138
  104OSM    H8G10635   1.252   4.539   9.597 -0.4378 -0.7838  0.7728
  104OSM    C9F10636   1.268   4.327   9.639 -0.6103  0.0849 -0.5745
  104OSM    H9F10637   1.249   4.265   9.728  1.1793 -1.8530 -1.4570
  104OSM   C10F10638   1.248   4.272   9.522  0.3592 -0.4530 -0.2131
  104OSM   H10F10639   1.219   4.166   9.524 -0.1379 -0.3144  0.7064
  104OSM   C11F10640   1.268   4.350   9.396  0.2234 -0.0580  0.2281
  104OSM   H11F10641   1.375   4.382   9.394  0.3863 -0.5982  0.1601
  104OSM   H11G10642   1.204   4.440   9.387 -0.9178 -0.9667 -1.1874
  104OSM   C12F10643   1.247   4.247   9.278 -0.4163  0.5259  0.8360
  104OSM   H12F10644   1.138   4.233   9.266 -0.0621 -1.2177 -0.8070
  104OSM   H12G10645   1.284   4.143   9.295 -2.8160 -1.1635 -2.8817
  104OSM   C13F10646   1.304   4.294   9.142 -0.6830  0.4332 -0.1796
  104OSM   H13F10647   1.413   4.318   9.149 -0.8910  1.6318 -0.8074
  104OSM   H13G10648   1.240   4.384   9.131  0.6206  1.4035 -0.0627
  104OSM   C14F10649   1.271   4.189   9.030  0.4836  0.5506  0.3470
  104OSM   H14F10650   1.161   4.175   9.024  0.7191 -1.1596 -0.8288
  104OSM   H14G10651   1.321   4.090   9.044 -1.4893 -0.7719 -1.3548
  104OSM   C15F10652   1.321   4.253   8.897  0.6946  0.7436  0.1366
  104OSM   H15F10653   1.431   4.266   8.897  0.8070 -0.0279 -1.2981
  104OSM   H15G10654   1.267   4.349   8.881  0.5225  0.6232  0.0012
  104OSM   C16F10655   1.299   4.158   8.780  0.1641 -0.1958  0.2399
  104OSM   H16F10656   1.195   4.121   8.772  0.0090 -0.3266  2.2419
  104OSM   H16G10657   1.362   4.067   8.794  0.5170 -0.0099 -0.1358
  104OSM   C17F10658   1.346   4.226   8.649  0.9266  0.6252 -0.0458
  104OSM   H17F10659   1.444   4.271   8.673  1.0450 -0.6798  2.2936
  104OSM   H17G10660   1.273   4.298   8.606 -0.7460 -0.9536  0.0164
  104OSM   C18F10661   1.381   4.118   8.535 -0.4709 -0.0241  0.5333
  104OSM   H18F10662   1.294   4.058   8.500 -0.0596 -1.4449  1.8013
  104OSM   H18G10663   1.459   4.050   8.577 -0.3573  0.1390  0.5856
  104OSM   H18H10664   1.419   4.172   8.446 -1.1057 -0.1955  0.1552
  105OSM      N10665   0.783   4.488  10.634  0.8931  0.4865  0.5340
  105OSM    C1510666   0.881   4.383  10.677 -0.0788 -0.1393 -0.7311
  105OSM   H15A10667   0.878   4.289  10.623  1.2547 -1.3034  1.0858
  105OSM   H15B10668   0.850   4.360  10.778 -1.7767 -1.2239 -1.4498
  105OSM   H15C10669   0.983   4.418  10.673 -0.3638  0.5962 -2.3615
  105OSM    C1410670   0.644   4.446  10.666 -0.8885 -0.7766  1.0818
  105OSM   H14A10671   0.563   4.504  10.624 -0.4698 -1.1168 -0.2487
  105OSM   H14B10672   0.625   4.442  10.772  1.1821  1.1853  1.5867
  105OSM   H14C10673   0.629   4.349  10.619 -0.0823 -0.9534  1.1865
  105OSM    C1310674   0.827   4.602  10.711 -0.5207  0.3217 -0.1513
  105OSM   H13A10675   0.799   4.691  10.657  3.0664 -0.3384 -3.4980
  105OSM   H13B10676   0.934   4.600  10.704 -0.5339  0.8052 -0.5393
  105OSM   H13C10677   0.797   4.596  10.815 -0.2177  0.4083 -0.0594
  105OSM    C1210678   0.798   4.522  10.488 -0.3563  0.3137 -0.0169
  105OSM   H12A10679   0.778   4.435  10.427 -0.5084  0.2008  0.1933
  105OSM   H12B10680   0.901   4.546  10.466 -0.5974  0.2541 -1.3283
  105OSM    C1110681   0.710   4.637  10.431  0.3963 -0.4654 -0.1605
  105OSM   H11A10682   0.606   4.602  10.448  0.9678 -1.3785  1.7751
  105OSM   H11B10683   0.729   4.654  10.323  0.0824  0.5123 -0.0694
  105OSM      P10684   0.602   4.845  10.556 -0.0465  0.4310  0.3198
  105OSM    O1310685   0.475   4.761  10.561 -1.2508  0.4697  0.0964
  105OSM    O1410686   0.644   4.906  10.682 -0.4507 -0.3278  0.0854
  105OSM    O1110687   0.580   4.959  10.453  0.5620  0.4100 -0.2265
  105OSM    O1210688   0.726   4.762  10.501 -0.4043  0.2362  0.3803
  105OSM    C1S10689   0.674   5.014  10.361 -0.4254 -0.0223  0.6669
  105OSM    H1S10690   0.776   5.005  10.405 -0.6603  2.1970  1.7869
  105OSM    H1T10691   0.666   5.124  10.344  0.1480  0.2053  1.7547
  105OSM     NF10692   0.770   5.006  10.129 -1.0709  0.1494  0.0320
  105OSM    HNF10693   0.732   5.080  10.074 -0.8940  1.9112  2.1209
  105OSM    C2S10694   0.665   4.954  10.217 -0.0028 -0.1773 -0.2648
  105OSM    H2S10695   0.684   4.845  10.226 -1.1575 -0.5063 -1.5423
  105OSM    C3S10696   0.522   4.977  10.156 -0.6959 -0.0758  0.0533
  105OSM    H3S10697   0.521   5.083  10.123 -0.1108 -0.8933 -2.8876
  105OSM     O310698   0.413   4.938  10.239 -0.8769 -0.4610 -0.3864
  105OSM    HO310699   0.466   4.927  10.318  0.8042 -1.2403 -1.5823
  105OSM    C4S10700   0.515   4.893  10.035  0.5259 -0.8080  0.4279
  105OSM    H4S10701   0.520   4.784  10.039  1.5442 -0.7937 -0.2307
  105OSM    C5S10702   0.490   4.939   9.910 -1.0134  0.1177  0.2326
  105OSM    H5S10703   0.482   5.048   9.899 -0.5172 -0.0681 -2.7104
  105OSM    C6S10704   0.478   4.845   9.794 -0.7276  0.2627 -0.6114
  105OSM    H6S10705   0.397   4.870   9.722  0.5318  0.9416 -1.8349
  105OSM    H6T10706   0.459   4.741   9.829  0.5113  0.3781  0.4739
  105OSM    C7S10707   0.611   4.847   9.717  0.6429 -0.1376 -0.6915
  105OSM    H7S10708   0.693   4.802   9.777  0.3687  2.0195  1.4676
  105OSM    H7T10709   0.635   4.954   9.703  1.4029  0.0778  1.7741
  105OSM    C8S10710   0.596   4.768   9.586 -0.8116 -1.0592 -0.0434
  105OSM    H8S10711   0.527   4.685   9.613 -1.2460 -0.8625 -0.5393
  105OSM    H8T10712   0.695   4.726   9.557 -0.0768 -1.4508  2.7185
  105OSM    C9S10713   0.547   4.862   9.475  0.4446 -0.1375  0.4920
  105OSM    H9S10714   0.602   4.959   9.471 -2.0058  1.2813 -2.3282
  105OSM    H9T10715   0.437   4.876   9.474  0.4876  0.2709  1.0789
  105OSM   C10S10716   0.568   4.803   9.332 -1.0945 -0.1906  0.3267
  105OSM   H10S10717   0.528   4.700   9.346  0.3892 -0.7150  0.8590
  105OSM   H10T10718   0.677   4.791   9.315 -0.9696  1.1603  0.1046
  105OSM   C11S10719   0.508   4.877   9.215  0.0129 -0.2059 -0.5650
  105OSM   H11S10720   0.563   4.973   9.200 -1.1266  0.6797  0.6739
  105OSM   H11T10721   0.408   4.896   9.259  0.2218 -2.2660  0.9460
  105OSM   C12S10722   0.517   4.796   9.081  0.1108 -0.0689 -0.4559
  105OSM   H12S10723   0.453   4.705   9.076  2.7696 -2.1292  0.2201
  105OSM   H12T10724   0.619   4.752   9.070  0.2677 -0.1665  1.1885
  105OSM   C13S10725   0.489   4.896   8.962  0.1073 -0.1650 -0.4795
  105OSM   H13S10726   0.556   4.985   8.969  0.7369 -0.5582 -1.3203
  105OSM   H13T10727   0.390   4.939   8.986 -0.0685 -1.2396  0.8254
  105OSM   C14S10728   0.494   4.827   8.820 -0.7386  0.1300  0.7080
  105OSM   H14S10729   0.418   4.746   8.807  0.0968 -0.3420 -1.7141
  105OSM   H14T10730   0.599   4.791   8.817 -0.8023 -0.5527  3.5190
  105OSM   C15S10731   0.460   4.928   8.711  0.2458  0.6781 -0.3716
  105OSM   H15S10732   0.512   5.024   8.728  0.8669  0.2562  0.1842
  105OSM   H15T10733   0.352   4.953   8.722 -0.3471 -2.1272  1.4343
  105OSM   C16S10734   0.504   4.868   8.578  0.2790 -0.0671  0.7458
  105OSM   H16S10735   0.434   4.785   8.556  2.4830 -1.3933 -1.6108
  105OSM   H16T10736   0.610   4.837   8.591  0.5026 -0.2661 -1.2806
  105OSM   C17S10737   0.494   4.966   8.463  1.0844 -0.0336  0.3828
  105OSM   H17S10738   0.554   5.054   8.493  1.1848 -0.3104  1.0081
  105OSM   H17T10739   0.391   5.009   8.460  0.3237 -1.7869 -0.7960
  105OSM   C18S10740   0.546   4.902   8.332  0.4871  0.6464 -0.3411
  105OSM   H18S10741   0.492   4.811   8.299  1.8728  0.3015 -1.8012
  105OSM   H18T10742   0.656   4.885   8.336  0.6824  0.9843 -2.9154
  105OSM   H18U10743   0.533   4.962   8.240 -1.4145 -1.9401 -1.8857
  105OSM    C1F10744   0.907   4.984  10.130  0.5912  0.8312 -0.3499
  105OSM     OF10745   0.956   4.921  10.227  0.5829 -0.1881 -0.2564
  105OSM    C2F10746   0.992   5.065  10.034 -0.0025  0.4719 -0.4845
  105OSM    H2F10747   1.061   5.127  10.094 -2.1025  0.6974  1.8490
  105OSM    H2G10748   0.929   5.145   9.989 -0.4834 -0.7550 -2.1359
  105OSM    C3F10749   1.068   4.980   9.933 -0.0238 -0.9111  0.7956
  105OSM    H3F10750   1.122   4.898   9.986  1.2905 -2.3566 -2.4751
  105OSM    H3G10751   1.139   5.044   9.877 -1.7879 -0.3896 -0.9475
  105OSM    C4F10752   0.975   4.914   9.834  0.7556  0.7301  0.1769
  105OSM    H4F10753   0.927   4.989   9.767 -0.5494  1.3789  1.7574
  105OSM    H4G10754   0.910   4.848   9.895 -0.7453 -0.1958 -2.2806
  105OSM    C5F10755   1.039   4.822   9.730 -0.5163  0.0863 -0.2132
  105OSM    H5F10756   0.954   4.763   9.690 -0.4894  1.0218 -1.7194
  105OSM    H5G10757   1.123   4.763   9.774 -1.4795 -0.2067  1.2764
  105OSM    C6F10758   1.102   4.897   9.609 -0.5627 -0.9380 -0.1551
  105OSM    H6F10759   1.179   4.828   9.569 -1.7455 -1.9703 -0.7200
  105OSM    H6G10760   1.155   4.979   9.664 -1.9542  0.1118 -0.3261
  105OSM    C7F10761   1.015   4.979   9.508  0.0646 -1.0323 -0.4813
  105OSM    H7F10762   0.956   5.053   9.567 -0.3100  0.0059 -2.0818
  105OSM    H7G10763   0.943   4.917   9.451  1.5524 -0.9632 -2.5466
  105OSM    C8F10764   1.099   5.053   9.410  0.4456  0.0823  0.4557
  105OSM    H8F10765   1.158   4.975   9.357 -0.4315 -0.5288  0.3761
  105OSM    H8G10766   1.179   5.109   9.464  1.1430 -1.0035  0.5692
  105OSM    C9F10767   1.018   5.138   9.317 -0.4597 -0.3000 -0.4755
  105OSM    H9F10768   0.990   5.228   9.374  0.2813 -1.1959  1.3501
  105OSM   C10F10769   0.978   5.117   9.190 -0.3310 -0.2399 -0.0025
  105OSM   H10F10770   0.927   5.199   9.138 -2.1522 -0.9592  0.5778
  105OSM   C11F10771   1.005   4.992   9.112  0.3777 -0.5880 -0.0208
  105OSM   H11F10772   0.924   4.920   9.138  1.3232 -1.9582 -0.7453
  105OSM   H11G10773   1.106   4.951   9.132  0.2708 -0.2499  1.3622
  105OSM   C12F10774   0.998   5.005   8.962 -0.0181 -0.9781  0.1187
  105OSM   H12F10775   1.083   5.056   8.913 -0.5296  0.2630  0.4792
  105OSM   H12G10776   0.911   5.065   8.928 -0.2591 -1.2867  0.1831
  105OSM   C13F10777   0.959   4.871   8.901 -0.0427 -0.0700 -0.1014
  105OSM   H13F10778   0.859   4.836   8.934 -1.0638  1.2038 -1.7133
  105OSM   H13G10779   1.030   4.796   8.944 -0.8924 -1.6891 -1.3908
  105OSM   C14F10780   0.969   4.870   8.745 -0.2140 -0.1832  0.0790
  105OSM   H14F10781   0.908   4.948   8.695 -0.1468  2.0049  3.1659
  105OSM   H14G10782   0.917   4.779   8.705  1.1948 -0.5273 -1.0617
  105OSM   C15F10783   1.113   4.868   8.694  0.5151 -0.6573  0.0715
  105OSM   H15F10784   1.153   4.965   8.731 -2.6729  1.1672 -0.8948
  105OSM   H15G10785   1.096   4.864   8.585  1.5273 -1.7587 -0.0654
  105OSM   C16F10786   1.192   4.749   8.745 -0.1959  0.1507  0.0559
  105OSM   H16F10787   1.133   4.658   8.723  0.1393 -0.0771  0.0815
  105OSM   H16G10788   1.208   4.746   8.855 -1.4886 -0.7520  0.2411
  105OSM   C17F10789   1.331   4.743   8.675 -0.1203 -0.4512 -0.0957
  105OSM   H17F10790   1.394   4.831   8.697 -0.4061 -0.0157 -0.9816
  105OSM   H17G10791   1.319   4.746   8.565  1.1351  1.9340 -0.2293
  105OSM   C18F10792   1.410   4.616   8.694 -0.1336 -0.0944 -0.5560
  105OSM   H18F10793   1.510   4.623   8.645  0.0019  3.0275 -0.0657
  105OSM   H18G10794   1.357   4.523   8.666 -1.6610  0.0609  1.6445
  105OSM   H18H10795   1.416   4.624   8.804 -4.0143  1.1272 -0.3069
  106OSM      N10796   1.318   1.824  11.016 -1.1704  0.8867 -0.2335
  106OSM    C1510797   1.289   1.781  11.156  0.3691 -0.2389  0.7707
  106OSM   H15A10798   1.184   1.779  11.179 -0.2439 -0.3683 -1.7150
  106OSM   H15B10799   1.332   1.853  11.224  0.4418 -0.0803  0.5594
  106OSM   H15C10800   1.338   1.687  11.177  2.9756  1.0289  0.8187
  106OSM    C1410801   1.465   1.806  11.002  0.0169  0.1898 -0.4424
  106OSM   H14A10802   1.524   1.870  11.067  1.4435  0.6879 -2.1490
  106OSM   H14B10803   1.486   1.846  10.904  1.3141  0.3761 -0.1065
  106OSM   H14C10804   1.496   1.703  11.009 -0.4050  0.1809  2.2779
  106OSM    C1310805   1.244   1.728  10.926  0.2795  0.4271  0.2334
  106OSM   H13A10806   1.298   1.712  10.834  0.5804  1.7189  0.1564
  106OSM   H13B10807   1.150   1.772  10.897  0.4737  0.9412  0.3631
  106OSM   H13C10808   1.226   1.634  10.976 -3.0107  0.8135 -0.0576
  106OSM    C1210809   1.267   1.964  10.997 -0.4705  0.0345 -0.1852
  106OSM   H12A10810   1.304   1.979  10.897 -2.8035  1.5020 -0.9119
  106OSM   H12B10811   1.308   2.029  11.072  1.1413  0.8417 -1.6991
  106OSM    C1110812   1.112   1.993  11.003 -0.1964 -0.3797  0.4760
  106OSM   H11A10813   1.103   2.103  10.992 -0.2911 -0.5202 -1.0505
  106OSM   H11B10814   1.074   1.960  11.102  1.8765 -4.1002  0.2133
  106OSM      P10815   0.949   2.009  10.791  0.3114  0.0738 -0.1487
  106OSM    O1310816   0.898   1.897  10.704 -0.4487 -0.1627  0.3687
  106OSM    O1410817   0.846   2.097  10.859 -0.5420  0.5393 -0.2314
  106OSM    O1110818   1.048   2.099  10.712  0.2791 -0.6923  0.5048
  106OSM    O1210819   1.034   1.934  10.895  0.1015  0.1270  0.3574
  106OSM    C1S10820   1.167   2.030  10.672 -0.0798  0.1883 -0.0089
  106OSM    H1S10821   1.208   1.957  10.746 -1.1585  0.3005  0.7198
  106OSM    H1T10822   1.251   2.102  10.669  0.1376 -0.0954 -1.2154
  106OSM     NF10823   1.299   1.911  10.490 -0.7329 -0.1760  0.0080
  106OSM    HNF10824   1.374   1.954  10.440 -0.9517 -1.0855 -1.1388
  106OSM    C2S10825   1.172   1.978  10.521 -0.1860  0.1395  0.4427
  106OSM    H2S10826   1.092   1.903  10.504  0.4933 -0.5530  0.2049
  106OSM    C3S10827   1.126   2.098  10.426  0.0532 -0.4405 -0.5267
  106OSM    H3S10828   1.192   2.187  10.439 -1.5344  0.7742 -0.5227
  106OSM     O310829   0.998   2.151  10.449  0.8439  0.1801  0.1261
  106OSM    HO310830   0.971   2.128  10.538 -0.8610  1.8098  0.0988
  106OSM    C4S10831   1.136   2.059  10.277  0.2622  0.8612  0.1478
  106OSM    H4S10832   1.227   2.099  10.230  1.9162 -0.2100  2.2628
  106OSM    C5S10833   1.047   1.991  10.199 -0.1506 -0.5100 -0.7665
  106OSM    H5S10834   0.954   1.948  10.239 -0.4333 -0.9894 -1.9120
  106OSM    C6S10835   1.071   1.961  10.054  1.0061  0.3242  0.0976
  106OSM    H6S10836   1.007   1.876  10.020 -1.2167  0.7948  2.7177
  106OSM    H6T10837   1.172   1.916  10.043  0.8982  0.1635 -0.2675
  106OSM    C7S10838   1.049   2.080   9.962  0.0214 -0.2344 -0.3392
  106OSM    H7S10839   1.105   2.163  10.010 -0.3789 -1.2617  2.0160
  106OSM    H7T10840   0.944   2.118   9.968  0.0780 -0.1079 -0.1191
  106OSM    C8S10841   1.085   2.057   9.815 -0.8154  0.1317  0.1730
  106OSM    H8S10842   1.194   2.039   9.805 -0.5633  0.9410  1.2634
  106OSM    H8T10843   1.057   2.153   9.766  0.0765 -0.2757 -1.2097
  106OSM    C9S10844   1.000   1.948   9.749 -0.7339  0.2981  0.0383
  106OSM    H9S10845   0.895   1.958   9.784 -0.9154  0.5058 -0.5516
  106OSM    H9T10846   1.030   1.849   9.788  1.1959  1.0575  0.6032
  106OSM   C10S10847   1.004   1.937   9.592 -0.1758  0.7939  0.1651
  106OSM   H10S10848   1.112   1.923   9.570 -0.4426 -2.7509  0.5819
  106OSM   H10T10849   0.959   2.020   9.533 -1.8641  0.9543  1.6024
  106OSM   C11S10850   0.936   1.803   9.543  0.0014 -0.2905  0.3453
  106OSM   H11S10851   0.834   1.794   9.587  1.3006 -0.6638  3.5563
  106OSM   H11T10852   0.990   1.708   9.562  1.7895  0.8149  1.0238
  106OSM   C12S10853   0.918   1.808   9.389 -0.0486  0.9766  0.0814
  106OSM   H12S10854   0.847   1.881   9.346 -2.3074 -0.0188  1.9072
  106OSM   H12T10855   0.877   1.705   9.379  1.2406  0.4518 -0.0314
  106OSM   C13S10856   1.053   1.804   9.318  0.0219  0.4543  0.3292
  106OSM   H13S10857   1.120   1.725   9.358 -1.3884 -1.6795 -1.2895
  106OSM   H13T10858   1.101   1.901   9.342  0.3701  0.6322 -1.0187
  106OSM   C14S10859   1.034   1.786   9.172 -0.4558  0.1286  0.5454
  106OSM   H14S10860   1.002   1.885   9.134 -0.5420  0.2685  0.9823
  106OSM   H14T10861   0.972   1.696   9.153 -0.1861 -0.2523  1.4127
  106OSM   C15S10862   1.168   1.748   9.091  0.1982 -0.0030 -0.5157
  106OSM   H15S10863   1.196   1.641   9.105  1.4649  0.2167 -1.2147
  106OSM   H15T10864   1.244   1.819   9.130 -0.1188  0.7657 -1.2590
  106OSM   C16S10865   1.131   1.770   8.940  0.1357  0.6932 -0.4938
  106OSM   H16S10866   1.060   1.855   8.942 -3.9296 -2.2482  4.4930
  106OSM   H16T10867   1.077   1.681   8.902  2.3788 -0.4119 -1.2730
  106OSM   C17S10868   1.250   1.798   8.853  0.0670  0.6643 -0.2612
  106OSM   H17S10869   1.321   1.855   8.917  0.4770 -1.3113  1.1253
  106OSM   H17T10870   1.219   1.863   8.768  1.4942  1.6051 -0.0942
  106OSM   C18S10871   1.333   1.688   8.794 -0.5106 -0.9277  0.3363
  106OSM   H18S10872   1.265   1.617   8.742  0.3336 -1.3587 -0.1984
  106OSM   H18T10873   1.394   1.634   8.869  0.1324 -0.4440  0.1695
  106OSM   H18U10874   1.401   1.724   8.713 -2.2750 -0.8639 -1.2041
  106OSM    C1F10875   1.323   1.801  10.571 -0.9165 -0.1289 -0.5190
  106OSM     OF10876   1.233   1.755  10.642 -0.2830  0.1075 -0.0858
  106OSM    C2F10877   1.461   1.739  10.585 -0.2982  0.0908 -0.4900
  106OSM    H2F10878   1.486   1.717  10.691  4.8480 -1.0701 -1.6965
  106OSM    H2G10879   1.532   1.818  10.552 -2.4351  1.4671 -2.0840
  106OSM    C3F10880   1.492   1.613  10.496  0.1761  0.3208 -0.9283
  106OSM    H3F10881   1.430   1.530  10.535  2.6765 -0.0630  2.8076
  106OSM    H3G10882   1.597   1.592  10.525  0.0910  2.1888  1.0368
  106OSM    C4F10883   1.483   1.641  10.346 -0.2529 -0.5112 -0.2816
  106OSM    H4F10884   1.379   1.678  10.338  0.4675  2.2238  1.3458
  106OSM    H4G10885   1.495   1.545  10.292  1.6953  1.4043 -3.6194
  106OSM    C5F10886   1.581   1.746  10.289 -0.3666  0.6289  0.2811
  106OSM    H5F10887   1.689   1.731  10.309 -0.2641  2.3850  1.2790
  106OSM    H5G10888   1.561   1.844  10.336 -0.4623  0.3323  0.8694
  106OSM    C6F10889   1.573   1.769  10.133  0.2572  0.2034 -0.6242
  106OSM    H6F10890   1.561   1.671  10.083 -1.5701 -0.3279  0.7855
  106OSM    H6G10891   1.662   1.823  10.093  1.7328 -1.9109 -0.2949
  106OSM    C7F10892   1.454   1.856  10.092  0.2852  0.7999 -0.0557
  106OSM    H7F10893   1.446   1.935  10.170  0.5152  3.3944 -2.4677
  106OSM    H7G10894   1.369   1.786  10.101 -0.0016  1.2924  1.3868
  106OSM    C8F10895   1.469   1.915   9.950 -0.3006  0.4685  0.1082
  106OSM    H8F10896   1.383   1.983   9.929  1.0089  1.8627 -0.9963
  106OSM    H8G10897   1.458   1.835   9.875 -2.5001  0.3708  0.4662
  106OSM    C9F10898   1.586   2.008   9.936  0.3453 -0.1861 -0.5736
  106OSM    H9F10899   1.583   2.082  10.017 -2.7291 -0.5028 -0.2696
  106OSM   C10F10900   1.666   2.017   9.837 -1.2481  0.2993  0.7849
  106OSM   H10F10901   1.747   2.089   9.854 -1.4340  0.6939  0.0526
  106OSM   C11F10902   1.673   1.937   9.715  0.0642 -0.0386 -0.0683
  106OSM   H11F10903   1.654   1.832   9.744  0.3704  0.2685  1.2987
  106OSM   H11G10904   1.775   1.946   9.671  0.0229  1.3953  0.0653
  106OSM   C12F10905   1.585   1.986   9.602 -0.4387  0.8434  0.5146
  106OSM   H12F10906   1.617   2.086   9.566 -0.1183  0.4764 -0.2437
  106OSM   H12G10907   1.482   1.999   9.643 -1.0072 -1.3915 -0.0466
  106OSM   C13F10908   1.587   1.870   9.495 -0.3518  0.1100  0.8386
  106OSM   H13F10909   1.538   1.780   9.536 -0.3897  0.2124  1.0203
  106OSM   H13G10910   1.694   1.844   9.482 -0.3427  0.0184  1.0875
  106OSM   C14F10911   1.518   1.889   9.355  0.4093 -0.1209 -0.0119
  106OSM   H14F10912   1.413   1.922   9.368  0.2773 -1.2056  1.9861
  106OSM   H14G10913   1.511   1.791   9.303 -1.1746 -0.0580  0.0365
  106OSM   C15F10914   1.597   1.983   9.257  0.8351 -0.0091 -0.2137
  106OSM   H15F10915   1.703   1.950   9.250  0.6928 -0.7622  0.9439
  106OSM   H15G10916   1.616   2.085   9.298  1.4832 -0.7000  1.2951
  106OSM   C16F10917   1.532   1.987   9.114 -0.3491 -0.1653 -0.6199
  106OSM   H16F10918   1.440   2.047   9.124 -1.4547 -1.7742 -0.6606
  106OSM   H16G10919   1.517   1.881   9.083 -0.7687 -0.4463  0.4895
  106OSM   C17F10920   1.625   2.050   9.019  0.0518 -0.3274  0.5062
  106OSM   H17F10921   1.714   1.983   9.023 -0.4804 -1.0146  1.2858
  106OSM   H17G10922   1.655   2.152   9.049 -0.2774  0.1918 -0.8383
  106OSM   C18F10923   1.568   2.050   8.871  0.0698  0.0989 -0.2253
  106OSM   H18F10924   1.632   2.094   8.791 -2.7344  1.3606 -1.9074
  106OSM   H18G10925   1.471   2.104   8.865  0.9216  1.5572 -1.8389
  106OSM   H18H10926   1.554   1.945   8.840 -2.2437  0.4272 -0.4380
  107OSM      N10927   3.692   0.671  10.866  0.1894  0.0559  0.1811
  107OSM    C1510928   3.662   0.729  10.730 -0.6197 -0.2117  0.4318
  107OSM   H15A10929   3.737   0.711  10.655 -1.4917 -1.7046 -0.1387
  107OSM   H15B10930   3.644   0.836  10.729 -0.1320 -0.1070 -1.6836
  107OSM   H15C10931   3.570   0.684  10.695 -0.0288 -1.9445  1.0250
  107OSM    C1410932   3.695   0.522  10.865  0.2372 -0.0224  0.4670
  107OSM   H14A10933   3.594   0.492  10.843 -0.3393  0.4408  2.3118
  107OSM   H14B10934   3.737   0.482  10.956 -0.0072  0.2144  0.6854
  107OSM   H14C10935   3.757   0.482  10.786 -0.6358  0.6844 -0.6008
  107OSM    C1310936   3.814   0.737  10.917 -0.7062  0.0470  0.5759
  107OSM   H13A10937   3.900   0.721  10.854 -0.8860 -2.6949  0.8913
  107OSM   H13B10938   3.837   0.708  11.019 -0.5355 -0.0539  0.5092
  107OSM   H13C10939   3.801   0.844  10.913 -0.0642  0.0871 -1.2139
  107OSM    C1210940   3.573   0.713  10.949 -0.4175  0.3074  0.4512
  107OSM   H12A10941   3.573   0.821  10.954 -2.3624  0.3029  3.8642
  107OSM   H12B10942   3.579   0.677  11.051 -1.6681 -0.6706  0.2031
  107OSM    C1110943   3.424   0.693  10.898  0.4167  0.1384 -0.2103
  107OSM   H11A10944   3.412   0.743  10.799  1.1970  0.3319 -0.2158
  107OSM   H11B10945   3.358   0.741  10.973  0.8061 -0.2304  0.3753
  107OSM      P10946   3.236   0.523  10.867 -0.3651  0.5156  0.1572
  107OSM    O1310947   3.233   0.376  10.874 -0.4041  0.1692  0.0569
  107OSM    O1410948   3.151   0.606  10.955  0.3720  0.0452  0.5362
  107OSM    O1110949   3.213   0.563  10.716  0.3420  0.4168 -0.0001
  107OSM    O1210950   3.391   0.553  10.890 -0.0264 -0.0220  0.4913
  107OSM    C1S10951   3.303   0.539  10.605  0.3447  0.5374 -0.5151
  107OSM    H1S10952   3.365   0.450  10.629 -1.4641 -0.5254  0.4245
  107OSM    H1T10953   3.372   0.626  10.595  1.0629  0.1276  0.6860
  107OSM     NF10954   3.325   0.471  10.367 -0.0009  0.5170 -0.2665
  107OSM    HNF10955   3.356   0.552  10.318 -0.5354 -0.2946 -2.0527
  107OSM    C2S10956   3.224   0.507  10.469  0.2057 -0.3077 -0.1266
  107OSM    H2S10957   3.146   0.429  10.479 -2.2229  2.1655  1.7029
  107OSM    C3S10958   3.131   0.627  10.423 -0.1767 -0.5283 -0.6635
  107OSM    H3S10959   3.207   0.704  10.400 -1.3671  0.9690  0.1664
  107OSM     O310960   3.048   0.690  10.522  0.3833 -0.0521  0.7035
  107OSM    HO310961   3.076   0.640  10.599  1.0196 -1.3581 -0.3385
  107OSM    C4S10962   3.058   0.594  10.298  0.3546  0.0708  0.4052
  107OSM    H4S10963   3.098   0.649  10.211  1.8157 -1.7380 -0.1337
  107OSM    C5S10964   2.948   0.525  10.289  0.0962  0.2126  0.1553
  107OSM    H5S10965   2.894   0.496  10.380 -0.0034  0.6844  0.2538
  107OSM    C6S10966   2.871   0.500  10.165  0.1338  0.2145 -0.6418
  107OSM    H6S10967   2.771   0.547  10.173  0.9224  2.1388 -1.3903
  107OSM    H6T10968   2.860   0.390  10.159 -1.3142  0.3549 -0.7590
  107OSM    C7S10969   2.931   0.548  10.031 -0.7989  0.4210  0.0098
  107OSM    H7S10970   3.017   0.485   9.997 -1.7060 -2.0454  1.9757
  107OSM    H7T10971   2.957   0.655  10.044  2.1597  0.0149 -1.4557
  107OSM    C8S10972   2.829   0.553   9.912  0.6285  0.0093 -0.5895
  107OSM    H8S10973   2.751   0.622   9.950 -0.0325 -0.4831 -1.0320
  107OSM    H8T10974   2.770   0.459   9.910  2.0166 -0.8780 -1.7159
  107OSM    C9S10975   2.876   0.592   9.772  0.5760 -0.6078  0.5143
  107OSM    H9S10976   2.929   0.501   9.738 -2.2514 -1.9024 -0.8348
  107OSM    H9T10977   2.946   0.678   9.779 -0.7443  0.8168 -1.9883
  107OSM   C10S10978   2.755   0.621   9.672  0.3538  0.6355 -0.2066
  107OSM   H10S10979   2.699   0.712   9.704 -0.2734  0.3106 -0.3540
  107OSM   H10T10980   2.680   0.539   9.677 -0.0191  1.0094  0.6751
  107OSM   C11S10981   2.796   0.648   9.522  0.6797  0.1627  0.7003
  107OSM   H11S10982   2.879   0.721   9.517  0.3741  0.5805  1.5335
  107OSM   H11T10983   2.707   0.695   9.475  0.6353  0.1232  0.7452
  107OSM   C12S10984   2.835   0.518   9.447  0.4450 -0.4351 -0.1228
  107OSM   H12S10985   2.931   0.477   9.485  1.4966  1.1525 -0.9524
  107OSM   H12T10986   2.858   0.542   9.341  0.8926 -2.8135 -0.6140
  107OSM   C13S10987   2.719   0.412   9.437  0.1081  0.3223  0.8136
  107OSM   H13S10988   2.624   0.462   9.409  0.0234 -0.1764  0.2041
  107OSM   H13T10989   2.702   0.382   9.543 -1.9573 -1.7417 -0.0316
  107OSM   C14S10990   2.744   0.297   9.333  0.4972 -0.4444  0.0453
  107OSM   H14S10991   2.803   0.331   9.246  0.3578 -3.1337 -1.1876
  107OSM   H14T10992   2.641   0.278   9.296  0.5724  0.3685 -0.6168
  107OSM   C15S10993   2.806   0.177   9.401  0.2081  0.4507 -0.7016
  107OSM   H15S10994   2.762   0.146   9.498  2.8776 -0.7553  0.2209
  107OSM   H15T10995   2.911   0.207   9.418  0.4177  0.0233 -1.2006
  107OSM   C16S10996   2.819   0.068   9.298  0.4761 -0.8708  0.3967
  107OSM   H16S10997   2.864   0.114   9.207  2.2892  1.1124  2.2002
  107OSM   H16T10998   2.715   0.034   9.276  0.2563 -0.5688  0.9618
  107OSM   C17S10999   2.901  -0.059   9.338 -0.9661 -0.0963 -0.8660
  107OSM   H17S11000   2.998  -0.017   9.371 -0.5833  0.8926 -3.0751
  107OSM   H17T11001   2.917  -0.121   9.247 -1.3275 -1.0941 -0.2658
  107OSM   C18S11002   2.837  -0.135   9.452  0.2698  0.1837 -0.0005
  107OSM   H18S11003   2.741  -0.177   9.414  1.3908 -2.3009 -0.3278
  107OSM   H18T11004   2.812  -0.074   9.540  0.7101 -0.8401  0.8625
  107OSM   H18U11005   2.898  -0.223   9.483  0.3830 -0.3737 -1.6595
  107OSM    C1F11006   3.385   0.352  10.363 -0.0617  0.1617 -0.0454
  107OSM     OF11007   3.353   0.264  10.439  0.0003  0.4204  0.3653
  107OSM    C2F11008   3.493   0.332  10.248  0.0996  0.0461  0.7516
  107OSM    H2F11009   3.590   0.301  10.292  0.9713  2.7678  0.9561
  107OSM    H2G11010   3.506   0.436  10.213 -0.8973  1.1453  3.3474
  107OSM    C3F11011   3.444   0.231  10.144 -0.3020 -0.3221  0.2577
  107OSM    H3F11012   3.365   0.287  10.089 -0.3222  0.2772  0.8921
  107OSM    H3G11013   3.392   0.146  10.192  0.0636 -0.9607 -0.4472
  107OSM    C4F11014   3.547   0.194  10.027  0.5751 -0.7168 -0.3988
  107OSM    H4F11015   3.486   0.126   9.964  0.0152 -1.4342  0.8675
  107OSM    H4G11016   3.635   0.135  10.059  0.0200 -0.8964  0.8941
  107OSM    C5F11017   3.592   0.310   9.949 -0.5333 -0.6371  0.5376
  107OSM    H5F11018   3.653   0.380  10.010 -2.0371  0.9594  0.3089
  107OSM    H5G11019   3.510   0.371   9.905  0.9935  1.0692 -0.0431
  107OSM    C6F11020   3.692   0.269   9.835  0.7903 -0.4043 -0.2049
  107OSM    H6F11021   3.663   0.176   9.780 -2.4908  0.0375  0.5925
  107OSM    H6G11022   3.787   0.242   9.887 -0.2762 -0.0191  2.0507
  107OSM    C7F11023   3.708   0.387   9.737 -0.5284 -0.3443  0.1501
  107OSM    H7F11024   3.745   0.477   9.791  1.1280 -0.9875  0.1503
  107OSM    H7G11025   3.608   0.417   9.699 -0.5399 -1.4204 -0.6984
  107OSM    C8F11026   3.797   0.338   9.622 -0.8918 -0.4851 -0.7005
  107OSM    H8F11027   3.810   0.422   9.551  0.1790  1.7886  1.9722
  107OSM    H8G11028   3.757   0.249   9.570  1.3225 -1.5001 -0.7956
  107OSM    C9F11029   3.931   0.291   9.681 -0.1714  0.6553  0.4056
  107OSM    H9F11030   3.926   0.194   9.734  0.6442  1.0263  1.1840
  107OSM   C10F11031   4.052   0.334   9.659  0.2417 -0.4297 -0.1009
  107OSM   H10F11032   4.133   0.282   9.712 -0.0182 -0.0730  0.6569
  107OSM   C11F11033   4.104   0.448   9.576 -0.6901  0.8402  0.1966
  107OSM   H11F11034   4.188   0.500   9.626  0.2323 -0.4069  0.0040
  107OSM   H11G11035   4.027   0.527   9.558 -1.6294  0.4643  2.2453
  107OSM   C12F11036   4.124   0.393   9.427 -0.2924  0.3835 -0.2985
  107OSM   H12F11037   4.034   0.338   9.393 -1.3070  1.2639  0.8618
  107OSM   H12G11038   4.212   0.325   9.428  0.7982  1.7640 -0.1292
  107OSM   C13F11039   4.164   0.504   9.333  0.1383 -0.3178 -0.1823
  107OSM   H13F11040   4.224   0.453   9.255  1.0682 -0.1362  0.4060
  107OSM   H13G11041   4.240   0.574   9.374  1.6959 -1.6437 -0.7108
  107OSM   C14F11042   4.044   0.564   9.258 -0.7162 -0.0327  0.1001
  107OSM   H14F11043   4.087   0.626   9.176 -0.8807 -1.7940 -1.3867
  107OSM   H14G11044   3.983   0.638   9.313  1.0795  1.5862  0.0239
  107OSM   C15F11045   3.937   0.464   9.198 -0.6268 -0.0015 -0.0873
  107OSM   H15F11046   3.867   0.432   9.278 -1.1303  0.9544 -0.1293
  107OSM   H15G11047   3.987   0.377   9.152 -2.8625 -1.0026 -0.7447
  107OSM   C16F11048   3.859   0.546   9.096 -0.4634 -0.5754 -0.3157
  107OSM   H16F11049   3.916   0.552   9.001  0.3187 -1.7305  0.0524
  107OSM   H16G11050   3.834   0.650   9.124 -0.4043 -0.5467 -0.3702
  107OSM   C17F11051   3.722   0.482   9.075  0.3752  0.4436 -0.1370
  107OSM   H17F11052   3.657   0.485   9.165 -0.9855  0.1563 -1.0767
  107OSM   H17G11053   3.736   0.372   9.071 -1.1510  0.1818  1.0588
  107OSM   C18F11054   3.652   0.515   8.942  0.4322 -0.0867  0.2288
  107OSM   H18F11055   3.638   0.625   8.938 -0.5287 -0.1578  1.1540
  107OSM   H18G11056   3.552   0.468   8.945 -0.0389  0.8978  0.0374
  107OSM   H18H11057   3.715   0.478   8.858  0.0974 -0.3730  0.1003
  108OSM      N11058   5.257   4.009  11.307  0.0288 -0.1690  1.0345
  108OSM    C1511059   5.129   4.059  11.360 -0.3653  0.1300 -0.6522
  108OSM   H15A11060   5.087   4.138  11.300  1.0296  2.2045  0.9565
  108OSM   H15B11061   5.133   4.098  11.461  2.3469 -1.2608 -0.1163
  108OSM   H15C11062   5.053   3.983  11.352 -1.4849  1.1226  0.1404
  108OSM    C1411063   5.372   4.097  11.337 -0.2278 -0.1846 -0.7154
  108OSM   H14A11064   5.455   4.067  11.275 -0.2074 -0.3269 -0.6199
  108OSM   H14B11065   5.405   4.089  11.440  0.3470 -0.1398 -0.8885
  108OSM   H14C11066   5.350   4.200  11.313 -0.5520 -0.0635  0.0880
  108OSM    C1311067   5.262   3.875  11.374  0.4255 -0.7173 -0.0639
  108OSM   H13A11068   5.171   3.819  11.362  0.3522 -1.2164  2.2951
  108OSM   H13B11069   5.274   3.898  11.479  1.5374  1.8634 -0.6780
  108OSM   H13C11070   5.341   3.813  11.333  2.4644  1.5943  0.1054
  108OSM    C1211071   5.235   3.986  11.153 -1.2304 -0.9341 -0.4313
  108OSM   H12A11072   5.134   3.955  11.132 -1.2048  0.7243 -3.6180
  108OSM   H12B11073   5.295   3.900  11.127  1.2430  0.7541 -0.6694
  108OSM    C1111074   5.276   4.104  11.051 -0.9535  0.4080  0.5369
  108OSM   H11A11075   5.247   4.202  11.096  0.6657  0.6166  1.1984
  108OSM   H11B11076   5.222   4.095  10.954 -0.6339  1.5420  0.2389
  108OSM      P11077   5.478   3.985  10.948 -0.6624  0.3075 -0.0044
  108OSM    O1311078   5.602   4.039  10.893  0.4668 -0.5421  0.3412
  108OSM    O1411079   5.486   3.871  11.040  0.4869 -0.6413 -0.0907
  108OSM    O1111080   5.375   3.950  10.833  0.7347  0.4793 -0.2245
  108OSM    O1211081   5.423   4.102  11.031  0.5508  0.2240  0.0026
  108OSM    C1S11082   5.346   4.044  10.730  0.2118  1.1378 -0.2550
  108OSM    H1S11083   5.339   4.149  10.765 -1.7620  0.9098  0.1062
  108OSM    H1T11084   5.247   4.014  10.691  0.9647 -0.8306 -0.7906
  108OSM     NF11085   5.396   4.132  10.518 -0.2308 -0.3549  0.0175
  108OSM    HNF11086   5.307   4.122  10.474 -0.4461 -2.5859  0.8114
  108OSM    C2S11087   5.438   4.026  10.605 -0.1206  0.5942 -0.1308
  108OSM    H2S11088   5.541   4.047  10.642 -0.4024  1.5157  0.1508
  108OSM    C3S11089   5.448   3.886  10.550  0.0626  0.4542  0.1192
  108OSM    H3S11090   5.350   3.854  10.509 -0.1693  0.4348  0.6785
  108OSM     O311091   5.495   3.784  10.642  0.4531 -0.6331 -0.1619
  108OSM    HO311092   5.480   3.830  10.725 -0.3063 -0.5084 -0.3545
  108OSM    C4S11093   5.547   3.882  10.434  0.4536 -0.1879 -0.3969
  108OSM    H4S11094   5.651   3.871  10.467  0.1079  1.6617  1.4734
  108OSM    C5S11095   5.503   3.896  10.311 -0.0852 -0.1482  0.5736
  108OSM    H5S11096   5.396   3.911  10.290  0.4931  4.3081 -0.2131
  108OSM    C6S11097   5.592   3.903  10.184  0.5423  0.3446 -0.0203
  108OSM    H6S11098   5.613   3.804  10.138  2.0890  0.7637 -0.2812
  108OSM    H6T11099   5.692   3.948  10.203  0.4102  2.7579 -3.8554
  108OSM    C7S11100   5.539   3.981  10.061 -0.0543  0.4260  0.1081
  108OSM    H7S11101   5.527   4.090  10.083  1.0438  0.8155 -1.0895
  108OSM    H7T11102   5.439   3.941  10.033  1.2193 -3.7188  0.8590
  108OSM    C8S11103   5.646   3.982   9.950 -0.7676  0.0526 -1.1315
  108OSM    H8S11104   5.657   3.873   9.933 -1.7356 -0.5226  1.5809
  108OSM    H8T11105   5.735   4.030   9.998 -0.5531  0.4032 -1.8566
  108OSM    C9S11106   5.617   4.051   9.821  0.5815  0.6068  0.3431
  108OSM    H9S11107   5.616   4.162   9.833  1.3650  1.1159 -3.1427
  108OSM    H9T11108   5.510   4.025   9.802  0.5574  1.6757 -1.2049
  108OSM   C10S11109   5.705   4.013   9.701  0.4998 -0.1280  0.5061
  108OSM   H10S11110   5.715   3.902   9.694 -0.3598 -0.1136 -3.1038
  108OSM   H10T11111   5.808   4.052   9.718  0.5442  0.1742 -0.4217
  108OSM   C11S11112   5.664   4.085   9.567  0.3458  0.0065 -0.0872
  108OSM   H11S11113   5.670   4.196   9.575 -1.2420  0.1318 -0.3253
  108OSM   H11T11114   5.560   4.060   9.540 -0.3017  0.5688  1.7433
  108OSM   C12S11115   5.764   4.042   9.460 -0.3552 -0.5373 -0.0409
  108OSM   H12S11116   5.766   3.931   9.451  1.3908 -0.4640 -0.9698
  108OSM   H12T11117   5.867   4.077   9.484 -1.6031  2.2051  1.7920
  108OSM   C13S11118   5.729   4.111   9.320 -0.9183  0.7407  0.3544
  108OSM   H13S11119   5.748   4.219   9.334  1.0317  0.4009  0.5768
  108OSM   H13T11120   5.624   4.090   9.289 -0.3128 -2.4360  0.1280
  108OSM   C14S11121   5.824   4.056   9.208 -0.0778  0.1599 -0.4643
  108OSM   H14S11122   5.818   3.945   9.200  2.1211  0.0240 -0.6578
  108OSM   H14T11123   5.927   4.068   9.247 -0.7525 -2.9994  2.8614
  108OSM   C15S11124   5.808   4.128   9.071 -0.0709  0.3822 -0.0263
  108OSM   H15S11125   5.866   4.223   9.070 -0.7047  0.7763 -0.3260
  108OSM   H15T11126   5.701   4.157   9.065 -0.3808 -0.9389 -1.3997
  108OSM   C16S11127   5.826   4.048   8.943 -0.6254  0.0265  1.2188
  108OSM   H16S11128   5.784   3.945   8.949 -0.0388 -0.4876 -1.9060
  108OSM   H16T11129   5.934   4.041   8.918 -0.5229 -0.2276  1.7195
  108OSM   C17S11130   5.763   4.125   8.815  0.0222 -0.3874 -0.7276
  108OSM   H17S11131   5.790   4.233   8.821  0.1573 -0.1004 -4.3125
  108OSM   H17T11132   5.653   4.123   8.835  0.2532 -0.0061  0.7055
  108OSM   C18S11133   5.795   4.064   8.680  0.5260  0.1415 -0.2659
  108OSM   H18S11134   5.904   4.041   8.680  0.1751 -1.7640 -0.7224
  108OSM   H18T11135   5.786   4.133   8.594  0.2399 -1.9649 -2.0317
  108OSM   H18U11136   5.746   3.965   8.665  2.1081 -1.0590  1.7827
  108OSM    C1F11137   5.438   4.260  10.526 -0.6232  0.8364 -0.6057
  108OSM     OF11138   5.533   4.295  10.595 -0.3438  0.0392  0.5595
  108OSM    C2F11139   5.359   4.347  10.445  0.0022 -0.0140 -0.1319
  108OSM    H2F11140   5.302   4.418  10.508 -0.5466 -2.4394  2.2632
  108OSM    H2G11141   5.286   4.288  10.385 -0.2652  0.6400 -0.4538
  108OSM    C3F11142   5.436   4.436  10.350 -0.6969  0.4109  0.6595
  108OSM    H3F11143   5.503   4.508  10.401  2.0075 -1.9897  0.7685
  108OSM    H3G11144   5.372   4.496  10.283 -0.4143 -1.1729 -1.1348
  108OSM    C4F11145   5.522   4.354  10.253 -1.2970  0.0408 -0.2383
  108OSM    H4F11146   5.457   4.290  10.189  0.7523 -0.8473 -1.5453
  108OSM    H4G11147   5.597   4.304  10.318  0.4726  1.9075 -0.7137
  108OSM    C5F11148   5.595   4.451  10.164  0.0946  1.0992  0.0184
  108OSM    H5F11149   5.647   4.522  10.231 -2.0842  0.5661  2.4250
  108OSM    H5G11150   5.515   4.513  10.118 -0.2901  0.1932 -0.5759
  108OSM    C6F11151   5.686   4.388  10.052 -0.1974 -0.0202 -0.7724
  108OSM    H6F11152   5.625   4.336   9.975  2.4686 -1.7769 -1.8499
  108OSM    H6G11153   5.744   4.308  10.103  0.1363  1.4864  1.3162
  108OSM    C7F11154   5.776   4.490   9.985 -0.1309 -0.1553  0.4137
  108OSM    H7F11155   5.847   4.536  10.058 -0.3420  0.3387  0.3084
  108OSM    H7G11156   5.728   4.581   9.945 -1.2229 -0.7837  0.2585
  108OSM    C8F11157   5.860   4.411   9.879 -0.2657 -0.1338 -0.4102
  108OSM    H8F11158   5.782   4.365   9.815 -0.6583 -0.4156  0.2538
  108OSM    H8G11159   5.916   4.322   9.917  1.6195  1.0707 -0.1991
  108OSM    C9F11160   5.947   4.500   9.804 -0.5930  0.6023  0.6856
  108OSM    H9F11161   5.922   4.603   9.830  1.3536  1.4854 -0.6901
  108OSM   C10F11162   6.049   4.466   9.724 -0.0885 -0.3759 -0.2631
  108OSM   H10F11163   6.105   4.546   9.673 -0.0901 -0.8989 -1.1036
  108OSM   C11F11164   6.097   4.331   9.688  0.1329  0.1561  0.6634
  108OSM   H11F11165   6.022   4.253   9.712 -0.4018  1.3504  3.1428
  108OSM   H11G11166   6.186   4.303   9.748 -0.2135 -0.3036  0.9686
  108OSM   C12F11167   6.127   4.321   9.534  1.2953 -0.2455  0.1980
  108OSM   H12F11168   6.035   4.362   9.488  0.8424  0.1708  1.4384
  108OSM   H12G11169   6.140   4.212   9.513  0.9475 -0.2110 -0.2185
  108OSM   C13F11170   6.245   4.395   9.488 -0.1871 -0.5974 -0.5009
  108OSM   H13F11171   6.331   4.387   9.558  0.3700 -0.8641 -1.2023
  108OSM   H13G11172   6.220   4.502   9.474  0.4401 -0.2346  1.0189
  108OSM   C14F11173   6.290   4.337   9.350  0.8844 -0.2995 -0.4399
  108OSM   H14F11174   6.323   4.234   9.373 -0.9533 -0.5573  1.3207
  108OSM   H14G11175   6.383   4.391   9.321 -0.2253  3.6931  2.5355
  108OSM   C15F11176   6.182   4.336   9.244 -0.6384  0.1380  0.2106
  108OSM   H15F11177   6.133   4.436   9.244  0.6024  0.7995  2.2727
  108OSM   H15G11178   6.099   4.264   9.260 -0.5803 -0.0452 -0.2988
  108OSM   C16F11179   6.248   4.292   9.109 -0.4961 -0.3214 -0.5084
  108OSM   H16F11180   6.304   4.197   9.125  1.6012  0.8568 -0.5633
  108OSM   H16G11181   6.319   4.376   9.094 -0.2159 -0.5964 -0.7486
  108OSM   C17F11182   6.159   4.289   8.988 -0.5285 -0.5364  0.3703
  108OSM   H17F11183   6.113   4.389   8.970 -1.2916 -1.1109 -0.9962
  108OSM   H17G11184   6.069   4.225   9.001 -0.4605 -1.1383 -1.7608
  108OSM   C18F11185   6.231   4.250   8.860  0.6651 -0.1902  0.4713
  108OSM   H18F11186   6.167   4.241   8.770 -0.9541 -0.8421  1.6437
  108OSM   H18G11187   6.269   4.148   8.885  0.9332 -0.0863  0.4897
  108OSM   H18H11188   6.320   4.313   8.839  1.1940 -1.0730  0.0062
  109OSM      N11189   0.358   5.653  10.899  0.0635 -0.2754  0.2033
  109OSM    C1511190   0.355   5.767  10.995  0.0071  0.3290  0.1822
  109OSM   H15A11191   0.385   5.858  10.946  0.9378  0.2289  0.5399
  109OSM   H15B11192   0.431   5.755  11.071  1.7209 -1.6590 -1.7172
  109OSM   H15C11193   0.255   5.780  11.035 -0.8638 -0.5449 -1.6229
  109OSM    C1411194   0.370   5.523  10.962 -0.8632  0.1003  0.0622
  109OSM   H14A11195   0.289   5.504  11.032  1.2357 -1.5340  2.2302
  109OSM   H14B11196   0.458   5.511  11.024 -2.1245 -1.0051  1.7540
  109OSM   H14C11197   0.368   5.450  10.883 -4.4251  2.0507 -1.9311
  109OSM    C1311198   0.228   5.646  10.823  0.3897 -0.2783  0.0204
  109OSM   H13A11199   0.144   5.626  10.887 -1.0740 -0.4085 -1.8255
  109OSM   H13B11200   0.230   5.557  10.762 -2.6133 -1.1840  1.0463
  109OSM   H13C11201   0.212   5.737  10.766 -0.4356  1.4784  2.8499
  109OSM    C1211202   0.479   5.682  10.805 -0.2866 -0.1440  0.7936
  109OSM   H12A11203   0.573   5.696  10.856 -0.1099  3.1945 -0.1802
  109OSM   H12B11204   0.469   5.780  10.761  3.6019  1.3359  2.7261
  109OSM    C1111205   0.502   5.575  10.700 -0.0744  0.5728 -0.6877
  109OSM   H11A11206   0.556   5.620  10.614  2.4255  0.4715  0.7416
  109OSM   H11B11207   0.406   5.534  10.661  0.3622  0.4162 -1.6203
  109OSM      P11208   0.598   5.339  10.677 -0.0548 -0.4009 -0.0814
  109OSM    O1311209   0.730   5.282  10.698 -0.2726 -0.0959 -0.2270
  109OSM    O1411210   0.487   5.253  10.724 -0.6746 -0.2813  0.1636
  109OSM    O1111211   0.561   5.362  10.528 -0.1144 -0.5517  0.1578
  109OSM    O1211212   0.581   5.470  10.761  0.0496 -0.0187  0.3356
  109OSM    C1S11213   0.657   5.427  10.445  0.7784  0.1194  0.9249
  109OSM    H1S11214   0.744   5.360  10.432  1.7187  1.3129  0.8411
  109OSM    H1T11215   0.707   5.511  10.498  3.8300 -2.0526  1.7013
  109OSM     NF11216   0.724   5.528  10.248  0.5322  0.5599  0.6336
  109OSM    HNF11217   0.745   5.623  10.269 -0.2678  0.7349  0.6868
  109OSM    C2S11218   0.604   5.472  10.310  0.9676 -0.1286 -0.2607
  109OSM    H2S11219   0.564   5.387  10.250  1.3078 -1.1365  0.8963
  109OSM    C3S11220   0.491   5.570  10.331 -0.4814  0.1542 -0.0457
  109OSM    H3S11221   0.525   5.650  10.400 -0.5903  0.8465 -0.7767
  109OSM     O311222   0.372   5.514  10.387  0.1291 -0.9010 -0.3758
  109OSM    HO311223   0.396   5.427  10.420 -0.4237 -0.7567  0.4550
  109OSM    C4S11224   0.459   5.649  10.204 -0.3161  0.7145 -0.3054
  109OSM    H4S11225   0.547   5.703  10.167  0.8433 -1.5015 -0.9900
  109OSM    C5S11226   0.349   5.648  10.123  0.4716  0.0752  0.2314
  109OSM    H5S11227   0.253   5.609  10.159  0.3264  0.5564  0.3688
  109OSM    C6S11228   0.332   5.716   9.993  0.1253 -0.1795 -0.2850
  109OSM    H6S11229   0.319   5.637   9.915 -2.9636 -1.0065  0.9341
  109OSM    H6T11230   0.416   5.780   9.958 -0.8357  0.3756 -1.6881
  109OSM    C7S11231   0.202   5.806   9.969  0.2450 -0.2217  1.5009
  109OSM    H7S11232   0.201   5.885  10.046 -2.2629  0.9208  0.3845
  109OSM    H7T11233   0.113   5.740   9.967  1.2466 -1.6455 -0.0269
  109OSM    C8S11234   0.222   5.870   9.825 -0.6575 -0.2443 -1.4062
  109OSM    H8S11235   0.268   5.794   9.759  0.2661 -0.9483 -0.0271
  109OSM    H8T11236   0.286   5.962   9.823 -0.0658 -0.5824  0.2881
  109OSM    C9S11237   0.085   5.911   9.770 -0.7841  0.2436  0.3906
  109OSM    H9S11238   0.034   5.960   9.855 -1.5430 -2.2732  1.4854
  109OSM    H9T11239   0.025   5.819   9.753 -0.0887 -0.0804 -0.3701
  109OSM   C10S11240   0.094   5.982   9.639  0.0292  0.2543 -0.1555
  109OSM   H10S11241   0.174   6.058   9.635  1.7026 -1.4300 -0.4276
  109OSM   H10T11242  -0.004   6.031   9.625 -1.5386 -2.9653 -1.5627
  109OSM   C11S11243   0.126   5.892   9.518  0.2117  0.0988  0.1167
  109OSM   H11S11244   0.040   5.825   9.500 -0.8333  1.1508  1.0477
  109OSM   H11T11245   0.219   5.831   9.526 -0.6894 -1.6601 -1.9408
  109OSM   C12S11246   0.153   5.971   9.390 -0.3026  0.5075 -0.5576
  109OSM   H12S11247   0.195   5.898   9.318  0.5453  0.8534 -0.4230
  109OSM   H12T11248   0.231   6.049   9.401 -0.7152  0.8801 -0.2257
  109OSM   C13S11249   0.027   6.044   9.345 -0.1641 -0.1117  0.0725
  109OSM   H13S11250   0.009   6.112   9.431  0.3713 -1.5944  1.4010
  109OSM   H13T11251  -0.052   5.966   9.332 -1.5107  0.6117  2.9713
  109OSM   C14S11252   0.043   6.129   9.217 -0.7166  0.3752 -0.4461
  109OSM   H14S11253   0.056   6.049   9.142  0.0762  1.8332 -1.9499
  109OSM   H14T11254   0.134   6.192   9.226  0.2458 -1.0395  0.0225
  109OSM   C15S11255  -0.082   6.197   9.171 -0.2108  0.5844  0.3242
  109OSM   H15S11256  -0.123   6.254   9.257 -1.3940 -0.3083  0.3829
  109OSM   H15T11257  -0.162   6.125   9.147  1.2017 -0.4962 -1.3699
  109OSM   C16S11258  -0.063   6.279   9.040  0.2687 -0.0798  0.4819
  109OSM   H16S11259  -0.038   6.203   8.963  2.7863  0.2201  0.9297
  109OSM   H16T11260   0.028   6.343   9.042 -0.1911  0.8121 -2.2195
  109OSM   C17S11261  -0.189   6.357   8.988 -0.1104 -0.0253  0.7205
  109OSM   H17S11262  -0.236   6.427   9.060 -0.8865 -0.0820  0.2728
  109OSM   H17T11263  -0.265   6.284   8.953  0.9559 -0.6374 -0.4108
  109OSM   C18S11264  -0.161   6.441   8.857  0.1101 -0.3433  0.6243
  109OSM   H18S11265  -0.086   6.516   8.887  0.0756 -0.9860  2.4709
  109OSM   H18T11266  -0.250   6.481   8.804  0.4534  2.8978  2.2675
  109OSM   H18U11267  -0.101   6.375   8.790  2.9251  1.1642  1.5140
  109OSM    C1F11268   0.820   5.445  10.203 -0.2985  0.4397 -0.0405
  109OSM     OF11269   0.811   5.324  10.191  0.0510 -0.0283 -0.2754
  109OSM    C2F11270   0.952   5.520  10.201  0.4317 -0.6153 -0.1012
  109OSM    H2F11271   0.982   5.524  10.307  0.0483  0.2872 -0.0171
  109OSM    H2G11272   0.944   5.619  10.150  2.1346 -1.9238 -3.2297
  109OSM    C3F11273   1.073   5.454  10.127  0.8290 -0.4664  0.1832
  109OSM    H3F11274   1.087   5.348  10.158  0.7189 -0.4314  0.3550
  109OSM    H3G11275   1.162   5.516  10.149 -0.4373  1.0929  1.1632
  109OSM    C4F11276   1.062   5.451   9.972 -0.0038 -0.6408  0.3263
  109OSM    H4F11277   1.053   5.559   9.949 -0.7554 -0.8463 -0.3931
  109OSM    H4G11278   0.974   5.396   9.932 -0.6236  0.4631  0.1350
  109OSM    C5F11279   1.189   5.396   9.909 -0.2728 -0.3301  0.1471
  109OSM    H5F11280   1.225   5.297   9.946 -0.7274 -0.7894 -0.6023
  109OSM    H5G11281   1.264   5.473   9.936  0.5417 -0.7025 -1.0216
  109OSM    C6F11282   1.194   5.393   9.752  0.1171 -0.2951 -0.8351
  109OSM    H6F11283   1.197   5.497   9.715 -2.0062 -0.3594 -1.2913
  109OSM    H6G11284   1.102   5.343   9.714 -1.0224  0.1928  1.1352
  109OSM    C7F11285   1.320   5.322   9.705  0.0466 -0.8917 -0.2795
  109OSM    H7F11286   1.323   5.213   9.726 -1.1383 -0.5164  2.2565
  109OSM    H7G11287   1.401   5.367   9.767 -3.1127  1.0525  2.8169
  109OSM    C8F11288   1.345   5.345   9.552 -0.1075 -0.1259 -0.0604
  109OSM    H8F11289   1.375   5.451   9.549  3.2109 -0.8908  1.4575
  109OSM    H8G11290   1.248   5.334   9.500  0.0308  0.4586 -0.4478
  109OSM    C9F11291   1.454   5.259   9.490 -0.9309  0.1654 -0.4521
  109OSM    H9F11292   1.523   5.217   9.564 -1.9443  1.0409  1.0477
  109OSM   C10F11293   1.477   5.254   9.357  0.5037 -0.3404  0.1848
  109OSM   H10F11294   1.573   5.207   9.328  0.5745 -0.3309  0.4057
  109OSM   C11F11295   1.400   5.321   9.243 -0.4095 -0.2200  0.3749
  109OSM   H11F11296   1.437   5.424   9.226  1.5428 -0.2270  3.6416
  109OSM   H11G11297   1.290   5.333   9.259 -0.3787  0.5072  0.0807
  109OSM   C12F11298   1.411   5.239   9.112  0.6052  0.2545  0.1286
  109OSM   H12F11299   1.356   5.143   9.114 -2.7281  2.0047  0.7453
  109OSM   H12G11300   1.520   5.225   9.095  0.4640  0.5000 -1.0663
  109OSM   C13F11301   1.339   5.314   9.000 -1.0195 -0.0448 -0.0055
  109OSM   H13F11302   1.394   5.405   8.968 -0.9070 -0.5298 -1.2349
  109OSM   H13G11303   1.246   5.351   9.048 -0.8650 -0.3779  0.5614
  109OSM   C14F11304   1.318   5.234   8.870 -0.4547  0.5716  0.1245
  109OSM   H14F11305   1.243   5.285   8.806 -0.2739  1.7459  0.8259
  109OSM   H14G11306   1.268   5.142   8.907 -2.7299  2.0635  0.9763
  109OSM   C15F11307   1.453   5.213   8.801 -0.2961 -0.3324  0.8501
  109OSM   H15F11308   1.529   5.157   8.861  1.2424  0.0987 -0.6151
  109OSM   H15G11309   1.504   5.310   8.785  0.5806 -1.1099 -1.5196
  109OSM   C16F11310   1.445   5.147   8.663 -0.0500 -0.4257 -0.0112
  109OSM   H16F11311   1.361   5.194   8.609 -1.3147 -1.0227  1.3800
  109OSM   H16G11312   1.425   5.038   8.672  0.0231 -0.2579  2.7883
  109OSM   C17F11313   1.583   5.153   8.586 -0.5099 -0.8691  0.5071
  109OSM   H17F11314   1.666   5.116   8.650  3.6151  3.3327 -1.7915
  109OSM   H17G11315   1.617   5.257   8.568  0.0864 -1.2022 -0.3609
  109OSM   C18F11316   1.587   5.073   8.458 -0.3761 -0.4833 -0.1327
  109OSM   H18F11317   1.545   4.973   8.480  0.8511 -0.6121  1.7650
  109OSM   H18G11318   1.693   5.062   8.427 -0.2971  1.7149 -0.8413
  109OSM   H18H11319   1.534   5.134   8.381  0.1296  2.6895  1.8229
  110OSM      N11320   1.912   3.806  10.844 -0.5548 -0.0391 -0.3074
  110OSM    C1511321   1.902   3.955  10.828 -0.3308 -0.9205 -0.1115
  110OSM   H15A11322   1.816   3.995  10.776 -0.2305  2.0859  1.8110
  110OSM   H15B11323   1.993   3.985  10.779 -0.1420 -1.9734 -0.4504
  110OSM   H15C11324   1.894   4.006  10.923 -0.4456  0.4211 -0.8207
  110OSM    C1411325   1.793   3.760  10.920  0.2030 -0.0968  0.0776
  110OSM   H14A11326   1.809   3.784  11.025 -1.2152 -3.1663  1.1024
  110OSM   H14B11327   1.770   3.656  10.903  0.1790 -0.3637  1.6047
  110OSM   H14C11328   1.708   3.821  10.894  0.6390  0.4521 -0.1082
  110OSM    C1311329   1.914   3.747  10.706  0.7569 -0.6448 -0.6362
  110OSM   H13A11330   2.005   3.771  10.654  0.1817  1.9742 -0.5884
  110OSM   H13B11331   1.842   3.798  10.643 -0.1804  1.8374  2.2361
  110OSM   H13C11332   1.895   3.641  10.717 -0.8744 -0.0989  3.5897
  110OSM    C1211333   2.028   3.755  10.914  0.5666  0.3096 -0.0599
  110OSM   H12A11334   2.004   3.651  10.925 -1.9478  0.8086 -0.0827
  110OSM   H12B11335   2.024   3.795  11.015 -0.1001 -0.0336  0.0550
  110OSM    C1111336   2.162   3.781  10.852  0.2640  0.4674  0.8307
  110OSM   H11A11337   2.153   3.761  10.744 -1.2896 -0.5813  1.1286
  110OSM   H11B11338   2.227   3.707  10.904  0.4250  1.0291  1.4507
  110OSM      P11339   2.356   3.964  10.828 -0.0264  0.4656 -0.3263
  110OSM    O1311340   2.399   4.055  10.935  0.4824 -0.3728  0.2820
  110OSM    O1411341   2.447   3.848  10.810 -0.1024 -0.1011  0.7112
  110OSM    O1111342   2.332   4.035  10.686 -0.0131  0.2684 -0.3645
  110OSM    O1211343   2.210   3.914  10.869 -0.0425  0.5284  0.0975
  110OSM    C1S11344   2.264   4.164  10.685 -0.4161  0.0202  0.8929
  110OSM    H1S11345   2.331   4.248  10.714  0.6983 -0.9196  1.1161
  110OSM    H1T11346   2.179   4.170  10.756  0.7523  1.2404  2.2303
  110OSM     NF11347   2.188   4.348  10.533  0.0278 -0.6434  0.1903
  110OSM    HNF11348   2.095   4.384  10.537  0.6139  0.8657  1.7629
  110OSM    C2S11349   2.226   4.204  10.535  0.5991  0.1187 -0.1440
  110OSM    H2S11350   2.318   4.180  10.476  0.5498  0.6669 -0.4511
  110OSM    C3S11351   2.110   4.103  10.502  0.5764  0.0571 -0.2159
  110OSM    H3S11352   2.025   4.124  10.570  0.8272  0.0795  0.0913
  110OSM     O311353   2.136   3.967  10.517  0.3786  0.3844 -0.6095
  110OSM    HO311354   2.216   3.973  10.570 -0.8251  1.6220  1.1600
  110OSM    C4S11355   2.062   4.137  10.361  0.3235  0.7507 -0.4574
  110OSM    H4S11356   1.980   4.210  10.357 -1.2114 -0.8140  1.2223
  110OSM    C5S11357   2.114   4.094  10.237 -0.2884  0.0903 -0.5356
  110OSM    H5S11358   2.201   4.027  10.230 -0.0502  0.3635 -0.2448
  110OSM    C6S11359   2.060   4.139  10.104  0.1304 -0.0105  0.4107
  110OSM    H6S11360   2.131   4.204  10.049  1.7640 -1.8318  0.2486
  110OSM    H6T11361   1.967   4.198  10.116 -0.1098 -0.5173  1.0998
  110OSM    C7S11362   2.025   4.020  10.018 -0.6632 -0.2042 -0.9772
  110OSM    H7S11363   1.928   3.979  10.055 -0.1998  2.3344  3.7773
  110OSM    H7T11364   2.101   3.941  10.039  0.0673  1.1471  2.0536
  110OSM    C8S11365   2.015   4.068   9.876  0.3636 -0.1641 -0.4193
  110OSM    H8S11366   2.117   4.089   9.837 -0.4528  0.2850 -2.4829
  110OSM    H8T11367   1.955   4.162   9.873  0.0269 -0.3885 -1.6379
  110OSM    C9S11368   1.960   3.966   9.769 -0.1730 -0.6535 -0.0838
  110OSM    H9S11369   1.859   3.937   9.805  0.8512 -3.3335  0.9091
  110OSM    H9T11370   2.011   3.867   9.765  0.3378 -0.3648 -0.8722
  110OSM   C10S11371   1.946   4.030   9.627  1.3281  0.4059 -0.4677
  110OSM   H10S11372   2.050   4.033   9.587  1.6658 -0.8170  0.2492
  110OSM   H10T11373   1.899   4.130   9.631  0.9405  0.3620 -2.7336
  110OSM   C11S11374   1.856   3.947   9.532 -1.1697  0.5914  0.2031
  110OSM   H11S11375   1.760   3.922   9.582 -2.1948  0.7397 -1.6151
  110OSM   H11T11376   1.912   3.853   9.516 -0.5708  1.3015 -2.3592
  110OSM   C12S11377   1.837   4.017   9.402  0.1591 -0.0954  0.0512
  110OSM   H12S11378   1.904   4.100   9.372 -2.1297  1.7113 -0.3805
  110OSM   H12T11379   1.737   4.065   9.396 -0.1813 -0.7242  0.5640
  110OSM   C13S11380   1.822   3.914   9.288 -0.1828 -0.6456 -0.3364
  110OSM   H13S11381   1.724   3.867   9.308  0.5414 -1.2407  2.1485
  110OSM   H13T11382   1.901   3.836   9.288 -0.7513 -1.4258  3.5440
  110OSM   C14S11383   1.823   3.984   9.152 -0.0252  0.3109 -0.1242
  110OSM   H14S11384   1.910   4.054   9.149  0.7070 -0.4933  1.1682
  110OSM   H14T11385   1.730   4.043   9.138  0.4575  0.9329 -0.8056
  110OSM   C15S11386   1.832   3.887   9.034  0.8391  0.7828  0.2545
  110OSM   H15S11387   1.742   3.822   9.041  1.2001  0.1396 -0.7919
  110OSM   H15T11388   1.922   3.823   9.049 -0.2062 -0.4407  1.5348
  110OSM   C16S11389   1.822   3.947   8.893  0.5402 -0.0599  0.9829
  110OSM   H16S11390   1.904   4.021   8.884  1.6707 -1.3619  0.0856
  110OSM   H16T11391   1.728   4.005   8.890  1.0319  0.7859  1.4647
  110OSM   C17S11392   1.831   3.847   8.778  0.2209 -0.1900 -0.5313
  110OSM   H17S11393   1.925   3.788   8.783  1.0766  1.2330  1.2641
  110OSM   H17T11394   1.841   3.914   8.690 -0.7795  1.4918  0.5976
  110OSM   C18S11395   1.701   3.752   8.772  0.2506 -0.6997 -0.1366
  110OSM   H18S11396   1.702   3.711   8.669 -0.8331  1.1210 -0.9268
  110OSM   H18T11397   1.616   3.823   8.787 -0.4374 -1.9309  2.2935
  110OSM   H18U11398   1.684   3.674   8.849  2.2600  0.3747  1.5079
  110OSM    C1F11399   2.288   4.431  10.523  0.3341 -0.1188 -0.3691
  110OSM     OF11400   2.405   4.400  10.521  0.2715 -0.5789 -0.0597
  110OSM    C2F11401   2.260   4.577  10.511 -0.2393  0.3843  0.2013
  110OSM    H2F11402   2.357   4.627  10.534 -0.8806  1.4329  0.6895
  110OSM    H2G11403   2.185   4.603  10.588 -0.9850 -0.3690 -0.2560
  110OSM    C3F11404   2.208   4.596  10.375  0.4819 -0.0407  0.5279
  110OSM    H3F11405   2.174   4.701  10.361  1.7107  0.2966  0.0297
  110OSM    H3G11406   2.111   4.544  10.358  0.0738  1.0177 -0.5032
  110OSM    C4F11407   2.300   4.564  10.257  0.2520  0.7444  0.4660
  110OSM    H4F11408   2.323   4.456  10.266  0.7989  0.7103 -1.0628
  110OSM    H4G11409   2.394   4.619  10.279  0.0511  1.5729 -0.6748
  110OSM    C5F11410   2.247   4.592  10.118 -0.6856  0.2059  0.4986
  110OSM    H5F11411   2.219   4.699  10.106  0.1291  0.2214 -1.7823
  110OSM    H5G11412   2.154   4.533  10.102 -0.1483 -0.7181  0.6703
  110OSM    C6F11413   2.349   4.553  10.008  0.0462 -0.2422 -0.1633
  110OSM    H6F11414   2.359   4.443  10.014 -1.6269 -0.7516 -4.0988
  110OSM    H6G11415   2.450   4.599  10.018  0.4291 -1.0616 -0.1515
  110OSM    C7F11416   2.298   4.580   9.870 -0.1840 -0.1665 -0.3055
  110OSM    H7F11417   2.285   4.689   9.853 -2.1765 -0.4538 -0.8796
  110OSM    H7G11418   2.195   4.546   9.847 -0.1990  0.7499 -1.7601
  110OSM    C8F11419   2.397   4.530   9.755 -0.2341  0.0341 -0.3069
  110OSM    H8F11420   2.498   4.575   9.761 -0.3385  0.1014  1.9838
  110OSM    H8G11421   2.349   4.555   9.658 -1.6272 -1.4685 -0.0552
  110OSM    C9F11422   2.407   4.385   9.756 -0.0155 -0.6548  0.4500
  110OSM    H9F11423   2.500   4.347   9.800  0.4127  0.6680  0.7251
  110OSM   C10F11424   2.322   4.301   9.692 -0.1983 -0.1178 -0.0489
  110OSM   H10F11425   2.330   4.191   9.698 -2.2593 -0.6132 -3.3139
  110OSM   C11F11426   2.202   4.327   9.598 -0.5171  0.8504 -0.4853
  110OSM   H11F11427   2.155   4.427   9.616  0.7146  1.5380 -0.9651
  110OSM   H11G11428   2.124   4.249   9.615  2.3173 -1.8000  1.3956
  110OSM   C12F11429   2.262   4.316   9.451  0.5225 -0.4850 -0.1445
  110OSM   H12F11430   2.315   4.220   9.440 -0.6205 -1.1377 -0.1630
  110OSM   H12G11431   2.324   4.408   9.448 -0.2895  0.1397  1.1764
  110OSM   C13F11432   2.144   4.330   9.348 -0.1250 -0.1003  0.4772
  110OSM   H13F11433   2.083   4.417   9.381  1.3365  0.5975  1.4571
  110OSM   H13G11434   2.077   4.241   9.347 -0.9258  0.4651  1.3817
  110OSM   C14F11435   2.203   4.344   9.212 -0.3782  0.2880  0.3025
  110OSM   H14F11436   2.300   4.289   9.218 -0.2357  0.6004  0.9768
  110OSM   H14G11437   2.234   4.450   9.198 -2.0219  0.8058  0.3851
  110OSM   C15F11438   2.127   4.290   9.098  0.7918  0.1485 -0.0505
  110OSM   H15F11439   2.024   4.329   9.110  0.5045 -0.9826  1.2872
  110OSM   H15G11440   2.123   4.180   9.105 -0.3702  0.0339 -1.9207
  110OSM   C16F11441   2.190   4.324   8.961  0.2269  0.3955 -0.1247
  110OSM   H16F11442   2.290   4.276   8.961  1.6729  3.1519 -1.2118
  110OSM   H16G11443   2.219   4.431   8.954  1.6964  0.0090 -0.4324
  110OSM   C17F11444   2.111   4.283   8.836 -0.3344  0.5103 -0.0921
  110OSM   H17F11445   2.023   4.347   8.815 -0.8414 -0.8446 -2.4497
  110OSM   H17G11446   2.078   4.178   8.851  1.5638 -0.1714 -0.3358
  110OSM   C18F11447   2.197   4.285   8.709  0.7067  0.2226  0.1281
  110OSM   H18F11448   2.295   4.237   8.728  0.0541 -0.4146  2.1220
  110OSM   H18G11449   2.214   4.391   8.679 -0.1218  0.4101  0.3065
  110OSM   H18H11450   2.145   4.229   8.628  2.8623  0.3453 -1.4527
  111OSM      N11451   1.593   2.486  11.051 -0.8331 -0.2526  0.5495
  111OSM    C1511452   1.498   2.432  10.952  0.6839  0.0667  0.5762
  111OSM   H15A11453   1.424   2.370  11.000 -1.7031  2.3942  0.1496
  111OSM   H15B11454   1.556   2.375  10.881 -0.2064 -0.0107 -0.1048
  111OSM   H15C11455   1.450   2.509  10.894 -0.3322 -0.0463  1.2458
  111OSM    C1411456   1.514   2.570  11.151  0.1580 -0.4956  0.7061
  111OSM   H14A11457   1.578   2.645  11.196 -0.6579  0.4852  0.2448
  111OSM   H14B11458   1.468   2.505  11.224 -1.2480 -0.4669 -0.1367
  111OSM   H14C11459   1.427   2.618  11.110  1.3752  1.7218  0.5619
  111OSM    C1311460   1.653   2.367  11.126 -0.3886  0.5612 -0.5500
  111OSM   H13A11461   1.571   2.317  11.176  0.9753  0.6355  1.9629
  111OSM   H13B11462   1.725   2.389  11.204 -0.3160 -0.3016 -0.3666
  111OSM   H13C11463   1.709   2.305  11.058  1.7389 -0.0814  1.6422
  111OSM    C1211464   1.710   2.562  10.997 -0.1791 -0.6268  0.1769
  111OSM   H12A11465   1.779   2.594  11.074  1.6483 -3.0800 -0.2898
  111OSM   H12B11466   1.673   2.652  10.950 -1.5506 -0.5731  1.3017
  111OSM    C1111467   1.805   2.485  10.893 -0.0025  0.4562  0.1323
  111OSM   H11A11468   1.871   2.569  10.862  1.6435 -0.3380  1.3719
  111OSM   H11B11469   1.753   2.460  10.798 -0.2989  0.9348  0.1643
  111OSM      P11470   1.892   2.228  10.890 -0.3348  0.3593  0.0485
  111OSM    O1311471   2.017   2.157  10.941  0.1737  0.3541 -0.0574
  111OSM    O1411472   1.761   2.167  10.912 -0.5502 -0.5712  0.2140
  111OSM    O1111473   1.905   2.259  10.736 -0.6570  0.0362 -0.3573
  111OSM    O1211474   1.883   2.378  10.944  0.4586  0.1451 -0.1278
  111OSM    C1S11475   2.030   2.229  10.668 -0.0321 -0.0592 -0.2480
  111OSM    H1S11476   2.057   2.123  10.692  0.0252  0.0344  0.1061
  111OSM    H1T11477   2.111   2.297  10.699  1.1978 -2.8121  3.3034
  111OSM     NF11478   2.137   2.191  10.451  0.9543 -0.3947  0.5090
  111OSM    HNF11479   2.210   2.256  10.430 -0.2117  0.7739 -0.1055
  111OSM    C2S11480   2.012   2.243  10.516  0.2072  0.2227 -0.3552
  111OSM    H2S11481   1.930   2.171  10.491  0.1605 -0.2199  0.9768
  111OSM    C3S11482   1.983   2.384  10.477 -0.2435  0.2656 -0.6693
  111OSM    H3S11483   2.073   2.446  10.496  0.1690 -0.0389 -1.6087
  111OSM     O311484   1.882   2.446  10.560 -0.3413  0.0626  0.7211
  111OSM    HO311485   1.864   2.388  10.634  0.2476  0.5606  1.2702
  111OSM    C4S11486   1.948   2.382  10.329  0.0318 -0.7750 -0.1458
  111OSM    H4S11487   2.022   2.341  10.259  1.6896 -0.9866  1.6339
  111OSM    C5S11488   1.830   2.437  10.283  0.4060  0.3891  0.7529
  111OSM    H5S11489   1.749   2.476  10.346  1.0397  2.0582  0.5822
  111OSM    C6S11490   1.784   2.425  10.142 -0.1149  0.7888  0.5798
  111OSM    H6S11491   1.723   2.509  10.102 -0.1562  0.8912  0.8548
  111OSM    H6T11492   1.710   2.342  10.133  0.8015  0.0826 -0.7070
  111OSM    C7S11493   1.893   2.411  10.028 -0.5773  0.5200 -0.4137
  111OSM    H7S11494   1.953   2.322  10.057 -0.9407 -0.0134 -1.2508
  111OSM    H7T11495   1.952   2.505  10.030 -0.6736  0.5718  0.0085
  111OSM    C8S11496   1.823   2.409   9.889 -0.0272  0.3043 -0.4762
  111OSM    H8S11497   1.745   2.485   9.869 -0.2817  0.8366  2.1179
  111OSM    H8T11498   1.779   2.307   9.885 -0.9806  0.7554 -1.9105
  111OSM    C9S11499   1.928   2.416   9.771  0.0879  0.4744 -0.6027
  111OSM    H9S11500   2.014   2.351   9.801 -1.0988  0.1410  2.5022
  111OSM    H9T11501   1.966   2.520   9.767 -3.0852  1.7532 -0.1571
  111OSM   C10S11502   1.859   2.371   9.641 -0.3658 -0.3377  0.3671
  111OSM   H10S11503   1.764   2.430   9.648 -1.6062 -2.3799  1.5430
  111OSM   H10T11504   1.841   2.262   9.645  1.4918 -0.6236  2.0207
  111OSM   C11S11505   1.932   2.419   9.512  0.8275  0.0881  0.9755
  111OSM   H11S11506   2.018   2.348   9.506  0.5740 -0.5238  3.3938
  111OSM   H11T11507   1.966   2.525   9.510 -0.9756  0.6875 -0.5128
  111OSM   C12S11508   1.854   2.379   9.375  0.6181  0.1297 -0.4932
  111OSM   H12S11509   1.813   2.276   9.383  1.0873 -0.1500 -1.5658
  111OSM   H12T11510   1.920   2.390   9.286  2.7587  1.8481  1.1696
  111OSM   C13S11511   1.725   2.460   9.347 -0.8474 -0.4252 -0.8466
  111OSM   H13S11512   1.753   2.566   9.332  1.8164 -1.2668 -2.4678
  111OSM   H13T11513   1.675   2.468   9.446  2.6726 -0.0204  1.0588
  111OSM   C14S11514   1.633   2.405   9.233  1.0243 -0.4352  0.3438
  111OSM   H14S11515   1.609   2.300   9.263 -0.7105  0.4562  2.3205
  111OSM   H14T11516   1.681   2.401   9.133  2.0770  3.5882  0.5070
  111OSM   C15S11517   1.509   2.495   9.206  0.5746  0.5555  0.0752
  111OSM   H15S11518   1.534   2.602   9.223 -1.5913  1.0266  0.6241
  111OSM   H15T11519   1.432   2.458   9.277 -0.3616  0.5278 -0.9277
  111OSM   C16S11520   1.463   2.474   9.062  0.3820  0.2449 -0.0471
  111OSM   H16S11521   1.463   2.363   9.058  0.2161  0.0630  2.8684
  111OSM   H16T11522   1.540   2.508   8.990 -0.5142 -0.6029 -1.4416
  111OSM   C17S11523   1.325   2.526   9.029  0.9536 -0.2804  0.8015
  111OSM   H17S11524   1.249   2.501   9.106 -0.2688 -1.7336 -0.7959
  111OSM   H17T11525   1.294   2.475   8.935 -0.1065  3.9619 -1.4081
  111OSM   C18S11526   1.299   2.680   9.003  0.4161  0.5062 -0.3128
  111OSM   H18S11527   1.204   2.695   8.947  0.8841  0.2929 -1.1603
  111OSM   H18T11528   1.380   2.719   8.938  1.5338  0.8395  1.2307
  111OSM   H18U11529   1.304   2.730   9.103  2.1514  0.3072 -0.2734
  111OSM    C1F11530   2.163   2.060  10.439 -0.7678  0.2964 -0.0007
  111OSM     OF11531   2.073   1.978  10.468 -0.0416 -0.1140  0.1472
  111OSM    C2F11532   2.300   2.023  10.389 -0.3108 -0.5529  0.1656
  111OSM    H2F11533   2.344   1.977  10.480 -1.5908  1.2751  1.7706
  111OSM    H2G11534   2.351   2.119  10.364  0.5769 -1.2239 -0.7169
  111OSM    C3F11535   2.296   1.926  10.267 -0.3430 -0.2111  0.0202
  111OSM    H3F11536   2.250   1.832  10.304  1.1165 -1.2439 -0.6709
  111OSM    H3G11537   2.400   1.895  10.245  0.0432  0.1727  1.2705
  111OSM    C4F11538   2.215   1.968  10.137  0.4482  0.5543 -0.5789
  111OSM    H4F11539   2.111   1.993  10.168  0.2065  0.0698 -0.9946
  111OSM    H4G11540   2.203   1.872  10.084 -0.3739 -1.1652  2.4815
  111OSM    C5F11541   2.293   2.079  10.063  0.9695  0.1396 -0.3015
  111OSM    H5F11542   2.403   2.067  10.072  1.0455  0.9266 -0.1128
  111OSM    H5G11543   2.262   2.170  10.118 -0.9646 -0.8283  0.3204
  111OSM    C6F11544   2.256   2.082   9.921  0.0375  0.2113  0.1383
  111OSM    H6F11545   2.301   1.996   9.866 -1.6336 -0.9720  0.5653
  111OSM    H6G11546   2.303   2.175   9.880 -1.5830  0.2674 -1.7415
  111OSM    C7F11547   2.104   2.098   9.891 -0.6573 -0.2176  0.3770
  111OSM    H7F11548   2.080   2.204   9.910  1.4955 -0.2643  4.6177
  111OSM    H7G11549   2.052   2.044   9.972 -1.4996  0.8489  0.5614
  111OSM    C8F11550   2.063   2.049   9.749 -0.0687  0.5425  0.0275
  111OSM    H8F11551   2.090   2.141   9.692  3.1563  0.2655  0.9304
  111OSM    H8G11552   1.953   2.033   9.757  0.0274 -0.3141 -0.2460
  111OSM    C9F11553   2.126   1.935   9.676  0.1133 -0.0538 -0.4197
  111OSM    H9F11554   2.106   1.832   9.712  0.2249  0.2843  0.6483
  111OSM   C10F11555   2.190   1.943   9.563  0.2099 -0.0534  0.5044
  111OSM   H10F11556   2.241   1.848   9.541 -0.8764 -0.9410  1.6658
  111OSM   C11F11557   2.226   2.067   9.486  0.0514  0.2590  0.7032
  111OSM   H11F11558   2.275   2.150   9.541  3.3192 -0.5355 -0.7604
  111OSM   H11G11559   2.140   2.130   9.455  1.0151  1.2144 -0.1053
  111OSM   C12F11560   2.296   2.033   9.356  0.0283  0.2610  0.3142
  111OSM   H12F11561   2.358   1.943   9.377 -0.8415 -0.2248  0.8701
  111OSM   H12G11562   2.345   2.126   9.321 -3.0504  1.1811 -1.9484
  111OSM   C13F11563   2.208   1.972   9.239 -0.2209 -0.0219  0.4266
  111OSM   H13F11564   2.103   1.963   9.274  0.4316  1.4463  3.1186
  111OSM   H13G11565   2.253   1.881   9.194 -1.3540 -0.1377 -0.5166
  111OSM   C14F11566   2.190   2.080   9.121 -0.6127  0.8526 -0.0286
  111OSM   H14F11567   2.166   2.024   9.028  2.1868  0.5726 -0.6562
  111OSM   H14G11568   2.291   2.120   9.099  1.1582 -2.3132  1.7643
  111OSM   C15F11569   2.104   2.201   9.155  0.4264  0.5436 -0.4135
  111OSM   H15F11570   2.164   2.248   9.235 -0.3505  1.5873 -0.4259
  111OSM   H15G11571   2.005   2.173   9.196  0.7382  0.7565  0.4884
  111OSM   C16F11572   2.092   2.304   9.040  0.0074  0.6221  0.0517
  111OSM   H16F11573   2.187   2.314   8.984  0.4545 -1.4317  0.3612
  111OSM   H16G11574   2.060   2.406   9.068 -1.0533  0.5459 -0.7755
  111OSM   C17F11575   1.992   2.243   8.932 -0.3787 -0.4608  0.4825
  111OSM   H17F11576   1.888   2.265   8.965 -0.3141 -0.3252  0.5950
  111OSM   H17G11577   2.006   2.132   8.927  0.2094 -0.3446 -0.7908
  111OSM   C18F11578   2.007   2.294   8.786 -1.0104  0.3335  0.0747
  111OSM   H18F11579   1.902   2.313   8.757 -2.4128 -0.8994  3.7489
  111OSM   H18G11580   2.051   2.221   8.715 -1.5700  0.2260 -0.1618
  111OSM   H18H11581   2.057   2.393   8.791  2.0239 -1.1407  1.4047
  112OSM      N11582   2.964   4.667  10.844  0.3054  0.1809  0.1128
  112OSM    C1511583   2.911   4.754  10.957 -0.0940 -0.1282  0.4008
  112OSM   H15A11584   2.994   4.756  11.025  1.1057 -0.2075 -0.9971
  112OSM   H15B11585   2.816   4.719  10.994 -0.7159  2.5468  1.5244
  112OSM   H15C11586   2.891   4.856  10.928 -0.4990 -0.3828 -0.2640
  112OSM    C1411587   2.959   4.529  10.906 -0.0295  0.5692  0.3969
  112OSM   H14A11588   2.861   4.529  10.951  0.4339  0.4181  1.4218
  112OSM   H14B11589   3.028   4.522  10.988 -0.0235  2.8310  0.6365
  112OSM   H14C11590   2.975   4.451  10.832 -1.6646  1.3875 -0.8788
  112OSM    C1311591   2.871   4.677  10.731 -0.0149 -0.3329 -0.2878
  112OSM   H13A11592   2.866   4.783  10.711  0.3562 -0.1753  0.4051
  112OSM   H13B11593   2.780   4.620  10.748 -0.3063  0.0782 -0.4540
  112OSM   H13C11594   2.921   4.640  10.643 -1.2779 -0.7668 -0.8444
  112OSM    C1211595   3.105   4.710  10.801 -0.0448  0.0464 -0.4402
  112OSM   H12A11596   3.109   4.810  10.760 -1.8916  1.1330  1.8035
  112OSM   H12B11597   3.136   4.641  10.724 -0.9208 -0.7178 -0.1188
  112OSM    C1111598   3.221   4.703  10.911  0.4535  0.1440 -1.1091
  112OSM   H11A11599   3.319   4.715  10.861 -0.2305 -3.3742 -3.6004
  112OSM   H11B11600   3.227   4.600  10.951  2.5590  0.2903 -0.9449
  112OSM      P11601   3.229   4.946  10.995 -0.1889  0.6785  0.1098
  112OSM    O1311602   3.129   5.031  11.069  0.0278  0.2924 -0.7858
  112OSM    O1411603   3.371   4.955  11.027 -0.5180 -0.8988  0.3511
  112OSM    O1111604   3.207   4.968  10.840  0.3725  0.8161  0.4050
  112OSM    O1211605   3.193   4.796  11.018 -0.4808 -0.4464  0.6954
  112OSM    C1S11606   3.316   4.998  10.748  0.0725 -0.4984  0.2276
  112OSM    H1S11607   3.354   4.904  10.703 -0.7166 -1.0611  0.7055
  112OSM    H1T11608   3.404   5.045  10.798  0.1950 -0.9735  0.4653
  112OSM     NF11609   3.389   5.126  10.553 -0.2942  0.4409 -0.3663
  112OSM    HNF11610   3.417   5.222  10.549  1.4362  0.1166  1.7814
  112OSM    C2S11611   3.272   5.092  10.632 -0.0514  0.1044 -0.0512
  112OSM    H2S11612   3.223   5.028  10.556  1.4805  0.6310 -1.5533
  112OSM    C3S11613   3.189   5.210  10.674 -0.3851 -0.1096 -1.1354
  112OSM    H3S11614   3.258   5.282  10.724 -0.6428  0.2889 -1.3525
  112OSM     O311615   3.070   5.176  10.745 -0.7125  0.8446 -0.7239
  112OSM    HO311616   3.093   5.085  10.764  1.5350  1.4540 -0.2320
  112OSM    C4S11617   3.131   5.290  10.557 -0.2775  0.6116  0.2688
  112OSM    H4S11618   3.114   5.226  10.469  2.2934  1.3643 -0.8405
  112OSM    C5S11619   3.115   5.420  10.552 -0.3115 -0.1354  0.1572
  112OSM    H5S11620   3.144   5.487  10.634  2.8843  0.5147 -1.3521
  112OSM    C6S11621   3.067   5.491  10.430 -0.1666 -0.0291 -0.0653
  112OSM    H6S11622   3.077   5.600  10.450  3.3634 -0.4562  1.2504
  112OSM    H6T11623   2.960   5.478  10.404  0.0084 -0.1196 -0.7398
  112OSM    C7S11624   3.159   5.459  10.315  0.1578  0.5050  0.2489
  112OSM    H7S11625   3.153   5.349  10.297 -3.6566  0.3877  1.2160
  112OSM    H7T11626   3.267   5.479  10.332 -0.3398  2.0822  1.8681
  112OSM    C8S11627   3.113   5.540  10.195 -0.5790  0.2370  0.8990
  112OSM    H8S11628   3.133   5.646  10.220 -0.0506  0.2362  0.4894
  112OSM    H8T11629   3.004   5.537  10.173 -0.8623  1.0385  2.1172
  112OSM    C9S11630   3.198   5.494  10.072 -0.0014  0.4315  0.2109
  112OSM    H9S11631   3.198   5.390  10.033  1.3871  0.9173 -1.2031
  112OSM    H9T11632   3.304   5.519  10.094 -0.2782 -0.6751  3.3443
  112OSM   C10S11633   3.167   5.590   9.948 -0.2293  0.2314  0.9278
  112OSM   H10S11634   3.252   5.591   9.877  1.0754 -0.3928  2.4335
  112OSM   H10T11635   3.162   5.697   9.980  1.5083  0.0204  1.9956
  112OSM   C11S11636   3.035   5.551   9.879 -0.6342 -0.0716  0.0998
  112OSM   H11S11637   2.956   5.601   9.938 -0.7268 -1.8180  1.5301
  112OSM   H11T11638   3.032   5.440   9.872 -1.3379  0.0359 -2.3462
  112OSM   C12S11639   3.026   5.604   9.735 -0.0413  0.1170  0.5188
  112OSM   H12S11640   3.043   5.713   9.726 -0.2254  0.1026 -0.0384
  112OSM   H12T11641   2.917   5.601   9.713  0.4864 -2.2838 -2.3726
  112OSM   C13S11642   3.113   5.542   9.627 -0.0540  0.8102  0.3306
  112OSM   H13S11643   3.080   5.439   9.602 -1.2661  1.0678  0.7994
  112OSM   H13T11644   3.217   5.536   9.665  0.8320 -0.6789 -2.0552
  112OSM   C14S11645   3.108   5.609   9.492 -0.0113  0.7827  0.0878
  112OSM   H14S11646   3.188   5.561   9.432 -2.6048 -0.5060 -2.5624
  112OSM   H14T11647   3.136   5.714   9.518  1.4945  0.4512 -0.1222
  112OSM   C15S11648   2.983   5.604   9.405  0.2940 -0.5226  0.9789
  112OSM   H15S11649   2.942   5.703   9.438 -0.6671 -0.0833 -1.3406
  112OSM   H15T11650   2.930   5.519   9.453 -1.2908 -0.5598 -0.7437
  112OSM   C16S11651   3.001   5.598   9.256 -0.0456  0.2880 -0.6526
  112OSM   H16S11652   2.906   5.605   9.198 -0.6747 -0.3372  0.2499
  112OSM   H16T11653   3.045   5.498   9.236  0.3051  0.1346  0.7520
  112OSM   C17S11654   3.091   5.707   9.193 -0.2421  0.0344  0.9421
  112OSM   H17S11655   3.192   5.710   9.240  0.4610 -1.2318 -0.4109
  112OSM   H17T11656   3.033   5.799   9.215 -0.8201 -0.1573  0.2630
  112OSM   C18S11657   3.099   5.711   9.038 -0.8135  0.8571 -0.2830
  112OSM   H18S11658   3.026   5.782   8.993 -0.2215  1.0344 -0.9771
  112OSM   H18T11659   3.073   5.606   9.013 -3.2108  1.4322 -0.4829
  112OSM   H18U11660   3.202   5.733   9.002 -0.5491 -1.8578 -1.4053
  112OSM    C1F11661   3.463   5.042  10.479  0.9107  0.5278 -0.1155
  112OSM     OF11662   3.419   4.927  10.467  0.2313  0.2357 -0.3684
  112OSM    C2F11663   3.585   5.081  10.420 -0.4023  0.2280  0.1071
  112OSM    H2F11664   3.674   5.030  10.463 -0.0595  1.6247  1.1151
  112OSM    H2G11665   3.605   5.190  10.423  1.2159  0.0191 -1.1584
  112OSM    C3F11666   3.579   5.036  10.271  0.5451 -0.7063 -0.1802
  112OSM    H3F11667   3.566   4.926  10.259 -0.1217 -0.8302  1.3824
  112OSM    H3G11668   3.676   5.058  10.222 -0.2598 -2.1803 -2.6066
  112OSM    C4F11669   3.473   5.118  10.195 -0.3281  0.2098  1.1018
  112OSM    H4F11670   3.479   5.219  10.241  6.9401  1.2456 -0.8290
  112OSM    H4G11671   3.373   5.070  10.200 -0.2977 -0.0669 -0.4797
  112OSM    C5F11672   3.517   5.139  10.051  0.3013 -0.1287  0.2841
  112OSM    H5F11673   3.519   5.039  10.003  0.4788  0.4050 -0.8474
  112OSM    H5G11674   3.623   5.170  10.052  0.7866 -1.5579 -1.4600
  112OSM    C6F11675   3.430   5.231   9.959 -0.4808  0.6370  0.8953
  112OSM    H6F11676   3.436   5.335  10.000 -0.5925  0.9480  0.1440
  112OSM    H6G11677   3.324   5.198   9.959  0.5902 -3.4777 -1.5414
  112OSM    C7F11678   3.482   5.240   9.820  0.2074  0.4458  0.4865
  112OSM    H7F11679   3.512   5.145   9.770 -3.1068 -1.5887  2.0271
  112OSM    H7G11680   3.562   5.317   9.814 -1.2762  1.9430 -1.4952
  112OSM    C8F11681   3.363   5.289   9.727 -0.7955  0.3347 -0.0055
  112OSM    H8F11682   3.414   5.320   9.633  0.1447  1.9009  0.9660
  112OSM    H8G11683   3.323   5.381   9.774  0.3143  0.0216  1.6359
  112OSM    C9F11684   3.246   5.197   9.704  0.3695 -0.0392 -0.2438
  112OSM    H9F11685   3.192   5.181   9.798  2.4630  1.0554  1.2437
  112OSM   C10F11686   3.211   5.151   9.583 -0.3171  0.5847 -0.6966
  112OSM   H10F11687   3.124   5.085   9.569 -1.1752  1.9145 -1.9140
  112OSM   C11F11688   3.283   5.183   9.446 -0.0548  0.1415  0.2945
  112OSM   H11F11689   3.353   5.103   9.414  1.4524  0.4368  2.6206
  112OSM   H11G11690   3.342   5.276   9.457  0.5423 -0.4724  3.1996
  112OSM   C12F11691   3.172   5.208   9.336  0.6462  0.3093  0.0013
  112OSM   H12F11692   3.145   5.312   9.365 -0.4047  0.1750 -0.4558
  112OSM   H12G11693   3.099   5.127   9.355  0.5834  0.6185  1.1503
  112OSM   C13F11694   3.217   5.213   9.191  0.4799 -0.5101 -0.1080
  112OSM   H13F11695   3.323   5.247   9.197  0.5824 -0.5591 -1.3772
  112OSM   H13G11696   3.155   5.287   9.137  0.8613  0.0604  0.2183
  112OSM   C14F11697   3.225   5.069   9.129 -1.1374  0.5063 -0.3661
  112OSM   H14F11698   3.119   5.037   9.142 -0.5437 -1.9065 -1.1018
  112OSM   H14G11699   3.286   5.002   9.193 -0.3270 -1.2320 -2.8400
  112OSM   C15F11700   3.272   5.065   8.983  0.5703 -0.0832  0.2525
  112OSM   H15F11701   3.378   5.095   8.966  1.1048 -2.0477 -0.1906
  112OSM   H15G11702   3.209   5.140   8.932  1.1404  0.2313 -0.0063
  112OSM   C16F11703   3.245   4.928   8.921  0.8559 -0.0561 -0.3385
  112OSM   H16F11704   3.136   4.910   8.936  0.3253  1.5250 -1.8558
  112OSM   H16G11705   3.293   4.844   8.974  0.7668  1.5027  2.3809
  112OSM   C17F11706   3.275   4.935   8.775 -0.0066 -0.4791  0.5772
  112OSM   H17F11707   3.377   4.969   8.747  0.7421  0.4051  4.0115
  112OSM   H17G11708   3.203   5.007   8.729  0.2669 -0.6416 -0.1248
  112OSM   C18F11709   3.244   4.801   8.720 -0.3177  0.4591 -0.5021
  112OSM   H18F11710   3.251   4.796   8.610 -0.0092  0.0380 -0.4659
  112OSM   H18G11711   3.143   4.769   8.752  0.3773 -1.5457 -0.1278
  112OSM   H18H11712   3.323   4.737   8.765 -0.6886  2.3193  3.2468
  113OSM      N11713   6.521   2.786  11.302 -0.5621  0.4151  0.2710
  113OSM    C1511714   6.437   2.686  11.226 -0.2392 -0.5450  0.2532
  113OSM   H15A11715   6.499   2.633  11.156 -0.2878 -0.4372  0.1278
  113OSM   H15B11716   6.354   2.730  11.173 -1.8004 -0.1621  2.8074
  113OSM   H15C11717   6.402   2.605  11.289  1.5100 -0.9772  0.7200
  113OSM    C1411718   6.483   2.774  11.445 -0.3277  0.0994  0.5148
  113OSM   H14A11719   6.376   2.761  11.449 -0.3607  0.5937  1.4739
  113OSM   H14B11720   6.504   2.869  11.493 -1.8717  0.7987 -0.1322
  113OSM   H14C11721   6.534   2.689  11.488  1.6565  0.5189 -0.8855
  113OSM    C1311722   6.669   2.739  11.291  0.0516  0.4841 -0.1076
  113OSM   H13A11723   6.744   2.799  11.340  1.8250  0.0009 -2.0970
  113OSM   H13B11724   6.694   2.740  11.186 -1.9549  0.8251 -0.6377
  113OSM   H13C11725   6.670   2.636  11.325 -2.4308  0.7425  0.9664
  113OSM    C1211726   6.509   2.930  11.246  0.5314  0.0939 -0.2225
  113OSM   H12A11727   6.571   2.997  11.303  1.0230  0.0621 -0.7147
  113OSM   H12B11728   6.403   2.951  11.244  0.5114 -0.0242 -0.5582
  113OSM    C1111729   6.549   2.960  11.102 -0.2548 -0.2590  0.6805
  113OSM   H11A11730   6.506   3.059  11.077  0.0612 -0.3557 -0.2616
  113OSM   H11B11731   6.523   2.886  11.023  1.2353  0.7421 -0.8006
  113OSM      P11732   6.775   3.097  11.130  0.3716  0.2588  0.2898
  113OSM    O1311733   6.748   3.122  11.271  0.1986  0.3123  0.4956
  113OSM    O1411734   6.918   3.072  11.087  0.9208 -0.8876 -0.1474
  113OSM    O1111735   6.709   3.202  11.027 -0.5489 -0.0523  0.1100
  113OSM    O1211736   6.693   2.967  11.091  0.5267  0.0850  0.2896
  113OSM    C1S11737   6.752   3.191  10.891 -0.2645 -0.4813  0.0690
  113OSM    H1S11738   6.821   3.109  10.864  1.2738  1.1727 -1.3493
  113OSM    H1T11739   6.799   3.284  10.850  0.3998 -0.8561 -0.0339
  113OSM     NF11740   6.659   3.166  10.665  0.6343  0.4537 -0.5232
  113OSM    HNF11741   6.645   3.245  10.605 -1.4915  2.6264  2.5149
  113OSM    C2S11742   6.617   3.173  10.802 -0.8820 -0.0338 -0.4674
  113OSM    H2S11743   6.569   3.077  10.831 -0.8622  0.1911  0.3574
  113OSM    C3S11744   6.512   3.285  10.842 -0.4454  1.3878  0.1527
  113OSM    H3S11745   6.572   3.377  10.832  2.2187 -0.2525  0.0673
  113OSM     O311746   6.460   3.278  10.976 -0.5905  0.3176 -0.5988
  113OSM    HO311747   6.521   3.232  11.033 -1.4080  2.7334  2.5239
  113OSM    C4S11748   6.398   3.287  10.738  0.2892  0.1869 -0.1042
  113OSM    H4S11749   6.423   3.345  10.649 -2.2615  1.4622 -0.0924
  113OSM    C5S11750   6.271   3.243  10.760  0.2148 -0.0569 -0.0401
  113OSM    H5S11751   6.249   3.184  10.850 -0.8526  1.6299  0.8626
  113OSM    C6S11752   6.158   3.262  10.657 -0.0534  0.4265 -0.2729
  113OSM    H6S11753   6.132   3.366  10.626 -1.1080  0.7677  1.5551
  113OSM    H6T11754   6.066   3.217  10.700 -0.5591  0.5096 -1.2408
  113OSM    C7S11755   6.187   3.180  10.527 -0.0226  0.6193  0.3660
  113OSM    H7S11756   6.243   3.085  10.532 -0.6361  0.2571  0.4693
  113OSM    H7T11757   6.246   3.232  10.449 -0.0763 -0.1336 -0.1882
  113OSM    C8S11758   6.056   3.143  10.454 -0.6140 -0.0410  0.5105
  113OSM    H8S11759   5.999   3.233  10.422  0.2859  0.1464 -0.6550
  113OSM    H8T11760   5.993   3.095  10.531 -0.8042  0.2145  0.5129
  113OSM    C9S11761   6.082   3.041  10.341 -0.1026  0.5446 -0.4294
  113OSM    H9S11762   5.991   2.978  10.331 -0.9560  1.7487 -0.4314
  113OSM    H9T11763   6.174   2.981  10.358 -0.6816 -0.4786 -0.8069
  113OSM   C10S11764   6.116   3.102  10.207 -0.2949  0.0709  0.3943
  113OSM   H10S11765   6.153   3.030  10.132  0.0460  1.2682 -0.6181
  113OSM   H10T11766   6.199   3.174  10.226 -0.0868  0.0716 -0.4980
  113OSM   C11S11767   6.005   3.175  10.139  0.3231  0.0886  1.0991
  113OSM   H11S11768   5.970   3.252  10.211  0.2551  0.1894  0.9608
  113OSM   H11T11769   5.921   3.106  10.118 -0.9930  1.3474  2.0007
  113OSM   C12S11770   6.051   3.238  10.003 -0.8275 -0.0993  0.2609
  113OSM   H12S11771   6.133   3.310  10.019  0.8773 -2.0225  0.5570
  113OSM   H12T11772   5.961   3.289   9.963 -1.2620 -1.4181 -0.4976
  113OSM   C13S11773   6.097   3.130   9.902  0.2719  0.3547 -0.4088
  113OSM   H13S11774   6.013   3.059   9.887 -0.4829  1.1824 -0.1528
  113OSM   H13T11775   6.178   3.059   9.930  0.3131  0.1051 -1.1338
  113OSM   C14S11776   6.149   3.187   9.766 -0.2577  0.4578  0.4357
  113OSM   H14S11777   6.224   3.266   9.789  0.1120 -0.4265  2.5185
  113OSM   H14T11778   6.062   3.242   9.724 -0.6513  0.1718  0.8681
  113OSM   C15S11779   6.182   3.082   9.665 -0.3564  0.1655 -0.3165
  113OSM   H15S11780   6.099   3.018   9.628  1.7656 -2.6092 -0.5379
  113OSM   H15T11781   6.256   3.009   9.702 -2.1893 -1.5693  0.0447
  113OSM   C16S11782   6.245   3.153   9.541 -0.0531 -0.6226 -0.2684
  113OSM   H16S11783   6.289   3.086   9.464  0.0611 -1.1451  0.2486
  113OSM   H16T11784   6.326   3.224   9.569  1.2399 -1.8727 -0.7168
  113OSM   C17S11785   6.143   3.238   9.465  0.2520 -0.2113  0.2466
  113OSM   H17S11786   6.132   3.331   9.526  2.9902  1.3240 -1.3812
  113OSM   H17T11787   6.056   3.177   9.435  2.1082 -1.9272 -1.9565
  113OSM   C18S11788   6.221   3.282   9.347  0.3401 -0.6879  0.0141
  113OSM   H18S11789   6.172   3.369   9.298  0.1488 -0.2430  0.9700
  113OSM   H18T11790   6.235   3.202   9.271  0.9575 -1.7463  1.1980
  113OSM   H18U11791   6.323   3.314   9.379  0.0443 -0.5573  0.8437
  113OSM    C1F11792   6.723   3.064  10.608  0.3188 -0.2265  0.8200
  113OSM     OF11793   6.764   2.972  10.667  0.0904  0.1082 -0.6066
  113OSM    C2F11794   6.724   3.066  10.453  0.2072  0.5558 -0.0625
  113OSM    H2F11795   6.673   3.161  10.425 -1.5941  0.0853  1.4407
  113OSM    H2G11796   6.664   2.984  10.408  0.5243  0.7942 -0.9576
  113OSM    C3F11797   6.864   3.063  10.384  0.3300 -0.1650  0.4352
  113OSM    H3F11798   6.921   2.978  10.427 -0.1163 -0.1863  1.0045
  113OSM    H3G11799   6.920   3.158  10.400  2.1821 -0.3311 -3.7114
  113OSM    C4F11800   6.859   3.046  10.228 -0.9114  0.0810  0.0075
  113OSM    H4F11801   6.832   3.138  10.172 -1.9615 -1.7297 -2.6490
  113OSM    H4G11802   6.783   2.967  10.211  0.7929 -1.7292  0.4228
  113OSM    C5F11803   6.998   3.009  10.169 -0.5185 -0.3463  0.1039
  113OSM    H5F11804   7.045   2.944  10.247 -0.6673  0.9850  1.3285
  113OSM    H5G11805   7.054   3.103  10.155 -1.5993  0.1803 -0.8355
  113OSM    C6F11806   6.995   2.939  10.030 -0.4756 -0.2671  0.2338
  113OSM    H6F11807   6.909   2.987   9.978 -0.1658  0.7527  0.6277
  113OSM    H6G11808   6.964   2.835  10.050 -1.2811  0.2774  2.0554
  113OSM    C7F11809   7.128   2.940   9.950  0.4309  0.3052  0.4102
  113OSM    H7F11810   7.203   2.884  10.009 -1.6148  0.0957  2.9979
  113OSM    H7G11811   7.174   3.039   9.929 -1.7267  1.3958  0.5940
  113OSM    C8F11812   7.113   2.860   9.817  0.0337  0.7340  0.1680
  113OSM    H8F11813   7.196   2.878   9.745 -1.2053  0.2417 -1.4545
  113OSM    H8G11814   7.043   2.913   9.748 -0.9896 -0.4652  0.2381
  113OSM    C9F11815   7.059   2.717   9.830  0.5858 -0.4652  0.7999
  113OSM    H9F11816   6.965   2.707   9.886 -0.9321 -2.4517 -1.8892
  113OSM   C10F11817   7.121   2.609   9.795 -0.4794  0.1916 -0.1138
  113OSM   H10F11818   7.069   2.516   9.825  1.1855 -0.8482 -0.3187
  113OSM   C11F11819   7.259   2.603   9.736  0.0066  0.3805  0.2859
  113OSM   H11F11820   7.321   2.531   9.794 -2.7204 -2.6558 -0.3163
  113OSM   H11G11821   7.313   2.700   9.747  1.1974 -0.5074  3.4644
  113OSM   C12F11822   7.250   2.553   9.588  0.3887  0.0901 -0.9306
  113OSM   H12F11823   7.211   2.449   9.586 -1.7398  0.7610  0.9876
  113OSM   H12G11824   7.350   2.569   9.544  0.9530  0.6161  0.4990
  113OSM   C13F11825   7.180   2.656   9.501  0.4118 -0.3687 -0.5938
  113OSM   H13F11826   7.213   2.758   9.531 -1.3254  0.6665 -2.0197
  113OSM   H13G11827   7.071   2.653   9.523  0.5238 -0.2543 -0.0011
  113OSM   C14F11828   7.202   2.626   9.353  0.2180  0.3410 -0.3426
  113OSM   H14F11829   7.154   2.528   9.332 -1.0425  1.2439 -1.9654
  113OSM   H14G11830   7.309   2.618   9.324 -0.1894  1.2094 -2.2789
  113OSM   C15F11831   7.128   2.728   9.267 -0.2900  0.2743 -0.0442
  113OSM   H15F11832   7.175   2.824   9.296  1.8887 -1.4560  2.5039
  113OSM   H15G11833   7.021   2.728   9.298 -1.0825  0.9999 -2.5227
  113OSM   C16F11834   7.137   2.694   9.117  0.0734 -0.2254  0.0778
  113OSM   H16F11835   7.082   2.600   9.096 -0.1495 -0.4937  1.7669
  113OSM   H16G11836   7.246   2.681   9.100  0.2387  0.2534  0.7214
  113OSM   C17F11837   7.074   2.805   9.030 -0.0399  1.0191 -0.1798
  113OSM   H17F11838   7.133   2.898   9.044  0.0001  0.7700  1.4080
  113OSM   H17G11839   6.969   2.821   9.063 -0.0642  0.1382  0.1935
  113OSM   C18F11840   7.074   2.762   8.883  0.4100 -0.0185  0.1522
  113OSM   H18F11841   7.027   2.844   8.824  1.5568 -0.4758 -1.4608
  113OSM   H18G11842   7.026   2.663   8.870 -1.4249  0.5277  2.1655
  113OSM   H18H11843   7.181   2.766   8.852  0.2157  0.8880 -0.4428
  114OSM      N11844   2.070   5.075  11.059  0.4175  0.2145  0.6356
  114OSM    C1511845   2.197   5.010  11.110  0.0231 -0.1375 -0.0377
  114OSM   H15A11846   2.239   5.065  11.193  1.9880  0.4889 -1.3643
  114OSM   H15B11847   2.273   5.020  11.034  0.8329  1.9013  0.9573
  114OSM   H15C11848   2.189   4.903  11.122  0.6378 -0.0378  1.3976
  114OSM    C1411849   1.970   5.068  11.170 -0.1017  0.1495  0.0670
  114OSM   H14A11850   1.942   4.965  11.185 -0.6671  0.1521 -0.8868
  114OSM   H14B11851   1.876   5.119  11.150 -1.3969 -1.5453  1.5401
  114OSM   H14C11852   2.007   5.106  11.264  1.0330 -1.6964  0.4042
  114OSM    C1311853   2.102   5.216  11.022  0.2211  0.0812 -0.2855
  114OSM   H13A11854   2.010   5.263  10.990 -0.0143  2.1823  3.0830
  114OSM   H13B11855   2.168   5.224  10.936  0.3464 -1.7423 -0.3916
  114OSM   H13C11856   2.141   5.269  11.107  0.4417  0.9440 -0.9029
  114OSM    C1211857   2.022   5.009  10.932  0.4984  0.1029 -0.0486
  114OSM   H12A11858   2.002   4.904  10.950 -3.8806  0.8217  0.2739
  114OSM   H12B11859   2.096   5.008  10.853 -1.5576  1.2846 -2.1433
  114OSM    C1111860   1.891   5.063  10.872 -0.2374  0.5864  0.3078
  114OSM   H11A11861   1.887   5.034  10.765 -0.8128  0.1199  0.4470
  114OSM   H11B11862   1.897   5.173  10.874  1.3320  0.5574 -1.2962
  114OSM      P11863   1.737   4.862  10.969 -0.4002  0.3805  0.3173
  114OSM    O1311864   1.853   4.785  11.028 -0.4410  0.1140 -0.0444
  114OSM    O1411865   1.612   4.878  11.041  0.4233 -0.0217 -0.4574
  114OSM    O1111866   1.714   4.822  10.822  0.1588  0.5307 -0.1687
  114OSM    O1211867   1.777   5.020  10.946  0.3998 -0.4301  0.6051
  114OSM    C1S11868   1.611   4.882  10.741 -0.0833  0.7052  0.3246
  114OSM    H1S11869   1.605   4.992  10.755 -1.6461  1.0871 -2.4926
  114OSM    H1T11870   1.509   4.853  10.773 -0.6323  0.3871 -1.5475
  114OSM     NF11871   1.514   4.915  10.502 -0.2839  0.0868  0.3582
  114OSM    HNF11872   1.434   4.864  10.471  0.8106 -0.9609 -0.8847
  114OSM    C2S11873   1.621   4.850  10.583  0.4878 -0.7979 -0.2434
  114OSM    H2S11874   1.712   4.906  10.553  0.3854 -2.2738 -3.7954
  114OSM    C3S11875   1.638   4.696  10.551  0.2950 -0.4060  0.4129
  114OSM    H3S11876   1.545   4.648  10.588  0.0981 -0.0231  0.4179
  114OSM     O311877   1.747   4.638  10.625 -0.4961 -0.5752 -0.2894
  114OSM    HO311878   1.759   4.704  10.694  0.5211 -1.0497  0.0115
  114OSM    C4S11879   1.649   4.666  10.401 -0.3462  0.2082 -0.4781
  114OSM    H4S11880   1.551   4.653  10.353 -0.4932 -0.7147  0.0606
  114OSM    C5S11881   1.752   4.633  10.323 -0.0273  0.6086  0.1129
  114OSM    H5S11882   1.851   4.617  10.369 -0.5583 -0.6123  0.8928
  114OSM    C6S11883   1.749   4.617  10.173 -0.7907 -0.2930 -0.2077
  114OSM    H6S11884   1.809   4.698  10.126 -0.4947 -1.0253 -1.1107
  114OSM    H6T11885   1.645   4.630  10.135 -1.0120  1.2396  0.7983
  114OSM    C7S11886   1.782   4.475  10.135  0.0492  0.4040  0.0132
  114OSM    H7S11887   1.714   4.409  10.194  0.7110 -0.4819 -0.1843
  114OSM    H7T11888   1.888   4.445  10.154  0.1246  0.2000 -0.7216
  114OSM    C8S11889   1.736   4.451   9.987 -0.6158 -0.1037  0.0907
  114OSM    H8S11890   1.627   4.469   9.985 -0.7894 -1.1100 -0.0628
  114OSM    H8T11891   1.736   4.341   9.975 -1.2687  0.0265 -1.2923
  114OSM    C9S11892   1.821   4.530   9.881 -0.1652  0.7675 -0.3154
  114OSM    H9S11893   1.931   4.526   9.891 -0.2959 -1.6619  0.7578
  114OSM    H9T11894   1.776   4.631   9.867 -1.0248  0.9735  3.0196
  114OSM   C10S11895   1.823   4.467   9.738 -0.6609 -0.5547  0.7783
  114OSM   H10S11896   1.857   4.361   9.737 -2.2903 -1.1032  1.2600
  114OSM   H10T11897   1.890   4.526   9.670 -2.4490 -0.8989 -1.3999
  114OSM   C11S11898   1.697   4.481   9.659 -0.6649 -0.2085 -0.1302
  114OSM   H11S11899   1.679   4.589   9.641  1.5790  1.0936  4.1004
  114OSM   H11T11900   1.609   4.450   9.720 -0.5047  0.0592  0.2397
  114OSM   C12S11901   1.691   4.397   9.534 -0.5068  0.0405  0.3959
  114OSM   H12S11902   1.590   4.394   9.488  0.0768  0.2465 -0.9261
  114OSM   H12T11903   1.723   4.293   9.557 -1.6646 -0.4986 -0.3708
  114OSM   C13S11904   1.772   4.450   9.412 -0.2658  0.0225 -0.1328
  114OSM   H13S11905   1.882   4.441   9.429  0.4389  3.2483 -2.2355
  114OSM   H13T11906   1.758   4.558   9.396 -0.9017  0.0122  0.3127
  114OSM   C14S11907   1.737   4.381   9.276  0.2359  0.3046 -0.5238
  114OSM   H14S11908   1.666   4.297   9.290  0.3977  0.3181  0.4654
  114OSM   H14T11909   1.833   4.342   9.236  0.8624  1.5964 -0.3564
  114OSM   C15S11910   1.675   4.480   9.180 -0.4388  0.2680  0.5327
  114OSM   H15S11911   1.674   4.580   9.228  0.1468  0.7117 -0.3530
  114OSM   H15T11912   1.571   4.443   9.161 -0.6395  1.1272 -0.1404
  114OSM   C16S11913   1.753   4.484   9.051 -0.2122  0.5533 -0.0038
  114OSM   H16S11914   1.767   4.380   9.016 -3.3886  0.6789 -2.0713
  114OSM   H16T11915   1.852   4.530   9.073  0.1979 -1.2701  2.2381
  114OSM   C17S11916   1.695   4.573   8.944  0.0899  0.1075  0.4724
  114OSM   H17S11917   1.595   4.535   8.912  0.2015 -0.5265  0.8651
  114OSM   H17T11918   1.758   4.578   8.852 -0.4901  2.5538  0.1292
  114OSM   C18S11919   1.670   4.720   8.977 -0.1641  0.1998  0.3545
  114OSM   H18S11920   1.590   4.765   8.914  0.0125 -2.2193 -1.7454
  114OSM   H18T11921   1.752   4.790   8.949  1.2020 -0.5049  2.3772
  114OSM   H18U11922   1.639   4.740   9.082  1.1094 -0.6872  0.9212
  114OSM    C1F11923   1.493   5.046  10.483  1.4592 -0.0264 -0.8467
  114OSM     OF11924   1.568   5.136  10.514  0.0223 -0.5837 -0.5545
  114OSM    C2F11925   1.353   5.074  10.439 -0.2273 -0.2159 -0.0588
  114OSM    H2F11926   1.305   5.126  10.525  2.2797  0.4615  1.0209
  114OSM    H2G11927   1.304   4.980  10.405  0.8336 -0.7721 -0.0982
  114OSM    C3F11928   1.357   5.185  10.324  0.4082 -0.0463  0.0142
  114OSM    H3F11929   1.404   5.273  10.373  1.4053 -0.9293  0.6853
  114OSM    H3G11930   1.252   5.209  10.296  0.4443 -0.4283 -0.4588
  114OSM    C4F11931   1.442   5.152  10.207  0.0046  0.2583  0.4498
  114OSM    H4F11932   1.551   5.144  10.226  0.1718 -1.3106 -0.9524
  114OSM    H4G11933   1.435   5.237  10.136 -0.8201  1.8429  2.3407
  114OSM    C5F11934   1.393   5.024  10.125 -0.1837 -0.6892 -0.1551
  114OSM    H5F11935   1.283   5.037  10.112 -0.2777  0.7995  1.7770
  114OSM    H5G11936   1.424   4.936  10.185  2.8597  1.7961  2.2558
  114OSM    C6F11937   1.449   5.021   9.978 -0.1346  0.4780 -0.4021
  114OSM    H6F11938   1.414   5.116   9.932 -0.8263  0.3401 -0.1753
  114OSM    H6G11939   1.404   4.937   9.921 -0.9583  1.2717 -0.9449
  114OSM    C7F11940   1.603   4.997   9.964  0.2744  0.1574 -0.3512
  114OSM    H7F11941   1.610   4.886   9.966  1.3926  0.2156 -0.3374
  114OSM    H7G11942   1.657   5.053  10.044 -1.6742 -0.0534  1.1864
  114OSM    C8F11943   1.646   5.041   9.824  0.4802 -0.7133 -0.2891
  114OSM    H8F11944   1.636   5.152   9.827  0.1951 -0.6974 -1.4938
  114OSM    H8G11945   1.574   5.005   9.748 -1.9118 -0.5900  1.7724
  114OSM    C9F11946   1.791   5.013   9.801 -0.1466  0.7519 -0.0910
  114OSM    H9F11947   1.843   5.010   9.898  0.7587 -0.5791 -0.5750
  114OSM   C10F11948   1.852   4.954   9.700  0.1501  0.0081  0.0780
  114OSM   H10F11949   1.960   4.935   9.709  0.6109  2.3761  0.2207
  114OSM   C11F11950   1.797   4.918   9.570 -0.2020  0.5891  0.1919
  114OSM   H11F11951   1.686   4.911   9.569 -0.1407 -0.4824 -1.0775
  114OSM   H11G11952   1.834   4.817   9.543 -0.1650 -0.0097  2.2953
  114OSM   C12F11953   1.841   5.012   9.458  0.2286 -0.4205 -0.3571
  114OSM   H12F11954   1.950   5.028   9.473  0.3112  1.0349 -2.2297
  114OSM   H12G11955   1.793   5.110   9.476  1.1577 -0.2805  1.5984
  114OSM   C13F11956   1.803   4.974   9.311 -0.0325 -0.2175 -1.0129
  114OSM   H13F11957   1.695   4.969   9.286 -0.0234 -0.6561 -0.9635
  114OSM   H13G11958   1.851   4.883   9.270 -0.5237 -1.1015  0.2921
  114OSM   C14F11959   1.842   5.096   9.225  0.2333 -0.7680  0.1992
  114OSM   H14F11960   1.949   5.122   9.241 -0.2746  2.7703 -1.3555
  114OSM   H14G11961   1.784   5.186   9.256  2.8357  0.3047  2.4194
  114OSM   C15F11962   1.804   5.072   9.080  0.5682  0.1311  0.3250
  114OSM   H15F11963   1.709   5.016   9.066  1.9670 -2.2581 -0.1820
  114OSM   H15G11964   1.886   5.010   9.039  0.8720  0.5387  0.3149
  114OSM   C16F11965   1.791   5.200   8.998 -0.5260  0.1611  0.7573
  114OSM   H16F11966   1.737   5.275   9.060  0.8450  0.1423  2.0408
  114OSM   H16G11967   1.743   5.172   8.902  1.0096  0.3486 -0.1043
  114OSM   C17F11968   1.927   5.255   8.953 -0.0307  0.1108 -0.0592
  114OSM   H17F11969   1.981   5.181   8.889 -0.1825  0.6016 -0.7648
  114OSM   H17G11970   1.988   5.285   9.041 -0.0054  3.2184 -1.0390
  114OSM   C18F11971   1.911   5.386   8.865 -0.1725 -0.9960  0.4048
  114OSM   H18F11972   1.850   5.465   8.916 -1.0021 -1.4662  0.1562
  114OSM   H18G11973   1.860   5.359   8.771 -1.8779 -3.0161  1.8208
  114OSM   H18H11974   2.015   5.420   8.847 -0.3335 -0.6547  0.1026
  115OSM      N11975   5.682   5.562  11.145 -1.3331 -0.0408 -0.1548
  115OSM    C1511976   5.633   5.658  11.243 -0.2129 -0.4850  0.5546
  115OSM   H15A11977   5.564   5.722  11.189 -0.1264 -2.6740 -2.3490
  115OSM   H15B11978   5.715   5.722  11.271  0.6503  0.1722 -2.9975
  115OSM   H15C11979   5.581   5.613  11.326  0.5339 -1.1343  0.6748
  115OSM    C1411980   5.771   5.632  11.049  0.0412  0.7250 -0.0230
  115OSM   H14A11981   5.833   5.699  11.107  2.9788 -1.3690 -0.4969
  115OSM   H14B11982   5.729   5.699  10.976 -1.1885 -0.7050 -0.6832
  115OSM   H14C11983   5.847   5.572  11.003  1.8484  2.0575  1.0696
  115OSM    C1311984   5.767   5.453  11.211 -0.1866 -0.4063  0.5764
  115OSM   H13A11985   5.871   5.480  11.204  0.0117 -1.5090 -1.7578
  115OSM   H13B11986   5.756   5.365  11.149 -0.2979  1.4202 -2.1513
  115OSM   H13C11987   5.726   5.434  11.309  0.0603  1.6132  1.1016
  115OSM    C1211988   5.568   5.505  11.074  0.1148 -0.1357 -0.1452
  115OSM   H12A11989   5.600   5.425  11.010  1.3859 -2.0488  2.7168
  115OSM   H12B11990   5.533   5.578  11.002 -1.8216  0.7816  1.6054
  115OSM    C1111991   5.453   5.451  11.156 -0.4458 -0.3564  0.2972
  115OSM   H11A11992   5.415   5.550  11.189  2.8576  1.6727 -1.4145
  115OSM   H11B11993   5.493   5.395  11.243 -1.2428  0.3530  1.1330
  115OSM      P11994   5.385   5.231  11.051 -0.2221  0.1762 -0.1793
  115OSM    O1311995   5.521   5.209  10.988  0.7275 -0.2154  0.1228
  115OSM    O1411996   5.345   5.145  11.162  0.5956  0.3924  0.1450
  115OSM    O1111997   5.284   5.198  10.934 -0.3039  0.0657 -0.0453
  115OSM    O1211998   5.362   5.383  11.080  0.1732  1.0471  0.0994
  115OSM    C1S11999   5.274   5.274  10.812 -0.0862 -0.0160 -0.5135
  115OSM    H1S12000   5.322   5.373  10.826  0.1884 -0.1667 -0.3730
  115OSM    H1T12001   5.164   5.288  10.803 -0.2007  0.1848  0.8608
  115OSM     NF12002   5.339   5.296  10.565 -0.3322  0.5439  0.6196
  115OSM    HNF12003   5.297   5.262  10.481  2.6462  1.0066 -1.2039
  115OSM    C2S12004   5.337   5.213  10.682 -0.3181 -0.0805  0.0527
  115OSM    H2S12005   5.441   5.186  10.709 -0.0946  0.9157  0.2153
  115OSM    C3S12006   5.268   5.071  10.658 -0.5837  0.1695 -0.0664
  115OSM    H3S12007   5.160   5.087  10.637 -1.0900 -0.2001  2.0320
  115OSM     O312008   5.282   4.989  10.769  0.2465 -0.2500 -0.5647
  115OSM    HO312009   5.324   5.049  10.831  2.1854 -0.2456 -1.7989
  115OSM    C4S12010   5.328   5.013  10.532  0.5227 -0.2373 -0.6504
  115OSM    H4S12011   5.257   5.010  10.449 -0.8173 -0.4840  0.4641
  115OSM    C5S12012   5.444   4.944  10.518 -0.1908  0.1627 -0.6071
  115OSM    H5S12013   5.507   4.926  10.606 -0.4430  1.0434 -0.2301
  115OSM    C6S12014   5.506   4.877  10.397 -0.1902 -0.0567  0.5527
  115OSM    H6S12015   5.483   4.769  10.409  0.8612 -0.1195  2.3468
  115OSM    H6T12016   5.616   4.876  10.412  0.0309 -0.7132 -0.9756
  115OSM    C7S12017   5.454   4.932  10.259 -0.6838  0.4098  0.0692
  115OSM    H7S12018   5.475   5.041  10.257 -1.6872  0.6409  1.0233
  115OSM    H7T12019   5.347   4.900  10.267 -0.1947 -2.3984 -2.5993
  115OSM    C8S12020   5.517   4.855  10.144 -0.5619 -0.2816  0.1287
  115OSM    H8S12021   5.495   4.747  10.152 -1.0228 -0.2377 -0.4535
  115OSM    H8T12022   5.624   4.883  10.138 -0.8225  0.4789 -1.9190
  115OSM    C9S12023   5.451   4.879  10.008  0.3410 -0.4197 -0.7758
  115OSM    H9S12024   5.438   4.989   9.998  1.8375  0.4312  4.0822
  115OSM    H9T12025   5.352   4.831   9.994  0.4813 -0.4849 -1.6340
  115OSM   C10S12026   5.539   4.838   9.892  0.1015 -0.0507 -0.3334
  115OSM   H10S12027   5.561   4.730   9.902 -0.0697 -0.0728 -0.1788
  115OSM   H10T12028   5.634   4.896   9.892  0.4709 -0.5591  2.1158
  115OSM   C11S12029   5.454   4.875   9.767  0.5513  0.0891  0.3941
  115OSM   H11S12030   5.437   4.984   9.754 -0.6299 -0.2464 -1.2952
  115OSM   H11T12031   5.356   4.823   9.766  1.0621 -0.8952  0.3870
  115OSM   C12S12032   5.532   4.819   9.639  0.0208 -0.3933 -0.4956
  115OSM   H12S12033   5.581   4.724   9.670 -0.5989 -0.1483  1.3448
  115OSM   H12T12034   5.609   4.890   9.601 -0.3214  0.6033  0.6345
  115OSM   C13S12035   5.440   4.801   9.524 -0.3729 -0.6726  0.0670
  115OSM   H13S12036   5.376   4.892   9.521  0.8673  0.2176 -0.1990
  115OSM   H13T12037   5.370   4.719   9.553 -0.7504  0.6855  3.4371
  115OSM   C14S12038   5.508   4.765   9.389  1.0387 -0.4685 -0.2935
  115OSM   H14S12039   5.572   4.680   9.425 -1.3516 -2.7062 -1.0398
  115OSM   H14T12040   5.574   4.849   9.359  0.6001  0.1815  0.5357
  115OSM   C15S12041   5.404   4.713   9.290  0.5547  0.6476  0.0779
  115OSM   H15S12042   5.325   4.649   9.334  0.2341  0.8964 -0.1253
  115OSM   H15T12043   5.455   4.640   9.224 -1.4692 -1.5609  0.7941
  115OSM   C16S12044   5.347   4.817   9.181  0.4733  0.1009 -0.0885
  115OSM   H16S12045   5.345   4.917   9.229 -2.3570  0.0187  0.1331
  115OSM   H16T12046   5.243   4.797   9.147 -0.2628 -0.6439  2.3979
  115OSM   C17S12047   5.412   4.811   9.038  0.1410 -0.2146 -0.7094
  115OSM   H17S12048   5.393   4.717   8.982 -1.5294 -0.5669  0.4019
  115OSM   H17T12049   5.520   4.836   9.026 -0.0057 -0.4899 -3.2463
  115OSM   C18S12050   5.351   4.912   8.947 -0.5229 -0.1613  0.4428
  115OSM   H18S12051   5.254   4.883   8.900  0.3214 -0.6174 -1.0575
  115OSM   H18T12052   5.413   4.945   8.861 -0.1171 -1.1052  0.3572
  115OSM   H18U12053   5.337   5.006   9.004  1.8728 -1.1070  2.8507
  115OSM    C1F12054   5.412   5.407  10.567  0.3798 -0.2506  0.3275
  115OSM     OF12055   5.488   5.429  10.658  0.4980  0.0947 -0.6487
  115OSM    C2F12056   5.403   5.501  10.456  0.2906  0.0555  0.3823
  115OSM    H2F12057   5.303   5.549  10.447 -0.1160 -0.7608  0.4771
  115OSM    H2G12058   5.411   5.442  10.362 -1.9771  2.8327 -1.7508
  115OSM    C3F12059   5.526   5.600  10.457 -0.6013  0.7685 -0.1889
  115OSM    H3F12060   5.608   5.528  10.442 -2.1328 -0.9265 -0.7276
  115OSM    H3G12061   5.545   5.648  10.555  1.4477 -0.4460  0.0757
  115OSM    C4F12062   5.531   5.704  10.340  0.3056  0.5391 -0.5438
  115OSM    H4F12063   5.605   5.785  10.355 -0.9257  1.5847  0.0333
  115OSM    H4G12064   5.431   5.753  10.333 -0.4710 -0.9579 -0.3428
  115OSM    C5F12065   5.554   5.644  10.201 -0.2930 -0.0011  0.5711
  115OSM    H5F12066   5.473   5.571  10.183 -0.3233  0.2621 -0.4411
  115OSM    H5G12067   5.642   5.578  10.213 -2.8574 -3.2736  3.0694
  115OSM    C6F12068   5.556   5.751  10.096 -0.3368 -0.7630 -0.1758
  115OSM    H6F12069   5.646   5.815  10.107 -2.7592  2.5832  2.3148
  115OSM    H6G12070   5.468   5.818  10.106  0.0154 -0.4092  0.6542
  115OSM    C7F12071   5.555   5.700   9.947  0.5452 -0.3299 -0.6843
  115OSM    H7F12072   5.451   5.662   9.937  0.5189  0.2404 -2.9602
  115OSM    H7G12073   5.632   5.619   9.952  0.3077 -0.5449 -0.5030
  115OSM    C8F12074   5.590   5.803   9.839  0.3996  0.7248 -1.1379
  115OSM    H8F12075   5.701   5.811   9.838  0.6491 -1.5476  0.7044
  115OSM    H8G12076   5.552   5.903   9.868 -1.2040  0.3842 -1.9018
  115OSM    C9F12077   5.528   5.766   9.706 -0.2627 -0.2731 -0.2547
  115OSM    H9F12078   5.420   5.779   9.693 -0.4223  0.7558  1.7675
  115OSM   C10F12079   5.597   5.725   9.595 -0.2457 -0.1306 -0.4469
  115OSM   H10F12080   5.542   5.709   9.501 -0.8373 -1.0629  0.0425
  115OSM   C11F12081   5.752   5.715   9.581 -0.0720 -1.0366 -0.1474
  115OSM   H11F12082   5.772   5.616   9.627  0.3734 -1.2684 -0.8238
  115OSM   H11G12083   5.801   5.796   9.640  0.7913 -0.7439 -1.2328
  115OSM   C12F12084   5.801   5.733   9.434  0.5948  0.1492 -0.9769
  115OSM   H12F12085   5.911   5.746   9.443  0.7519 -1.6438  0.1275
  115OSM   H12G12086   5.758   5.822   9.384 -1.8117  0.0397  0.7301
  115OSM   C13F12087   5.774   5.607   9.342 -0.6220 -0.6775  0.2230
  115OSM   H13F12088   5.670   5.606   9.304 -0.9059  2.7012  0.6209
  115OSM   H13G12089   5.782   5.512   9.400  1.9730 -0.2717  0.6581
  115OSM   C14F12090   5.877   5.605   9.225  0.5719 -0.0273 -0.4686
  115OSM   H14F12091   5.960   5.542   9.263  0.5841 -0.5735 -1.3611
  115OSM   H14G12092   5.916   5.709   9.219  1.5795 -0.3149  0.8256
  115OSM   C15F12093   5.828   5.550   9.092 -0.1747 -0.5079  0.5177
  115OSM   H15F12094   5.780   5.450   9.090  0.2795 -0.7172 -0.0329
  115OSM   H15G12095   5.924   5.519   9.046 -0.6370 -2.6512  0.8951
  115OSM   C16F12096   5.733   5.638   9.008  0.1678 -0.6749  0.3613
  115OSM   H16F12097   5.790   5.729   8.978 -1.2820  0.1921  0.1231
  115OSM   H16G12098   5.652   5.676   9.073  0.4613 -1.3402  1.1292
  115OSM   C17F12099   5.702   5.579   8.868  0.8654  0.0082  0.4072
  115OSM   H17F12100   5.622   5.644   8.826 -1.8552 -1.5330  2.8411
  115OSM   H17G12101   5.660   5.476   8.874  0.5711  0.1660  1.1843
  115OSM   C18F12102   5.815   5.586   8.769 -0.5222  0.0165 -0.2733
  115OSM   H18F12103   5.893   5.512   8.798 -2.6104 -1.9221  0.7663
  115OSM   H18G12104   5.864   5.685   8.764  1.2193 -0.5723  2.4404
  115OSM   H18H12105   5.780   5.545   8.672 -2.1258  0.7217 -0.0105
  116OSM      N12106   2.355   1.614  11.281 -0.9389 -0.2302 -0.3837
  116OSM    C1512107   2.496   1.628  11.343  0.2920 -0.1499 -0.2384
  116OSM   H15A12108   2.566   1.653  11.265 -0.3638 -1.5948 -1.3320
  116OSM   H15B12109   2.526   1.538  11.394  1.3361  0.5624  0.4472
  116OSM   H15C12110   2.498   1.711  11.413 -1.0246 -1.5272  1.5384
  116OSM    C1412111   2.264   1.552  11.384  0.4918  0.8732 -0.0344
  116OSM   H14A12112   2.269   1.615  11.472  0.7683 -0.0141  0.5923
  116OSM   H14B12113   2.299   1.454  11.411 -1.0853  0.3515  0.2347
  116OSM   H14C12114   2.166   1.521  11.350  1.8392 -2.7367 -0.9837
  116OSM    C1312115   2.310   1.753  11.245  0.9889 -0.6119  0.2649
  116OSM   H13A12116   2.215   1.749  11.194  1.6037 -0.0058 -0.9519
  116OSM   H13B12117   2.385   1.794  11.180 -0.5069 -0.4551 -1.4201
  116OSM   H13C12118   2.293   1.808  11.336 -1.4796 -0.5454 -0.1795
  116OSM    C1212119   2.358   1.529  11.155 -0.4009  0.3356 -0.1810
  116OSM   H12A12120   2.256   1.531  11.119 -1.1756  1.7582  1.8628
  116OSM   H12B12121   2.386   1.428  11.182 -1.2114  0.2806  0.4940
  116OSM    C1112122   2.446   1.568  11.036 -0.9642 -0.5747  0.0235
  116OSM   H11A12123   2.409   1.668  11.007  2.1516  1.1740  1.5114
  116OSM   H11B12124   2.428   1.500  10.950  0.2641  1.1441 -1.6868
  116OSM      P12125   2.687   1.449  11.052 -0.2795 -0.2293 -0.5612
  116OSM    O1312126   2.821   1.502  11.031  0.0332  0.1286  0.1468
  116OSM    O1412127   2.659   1.350  11.161  0.2718 -0.1345  0.3424
  116OSM    O1112128   2.643   1.384  10.911  0.1977  0.2364  0.0281
  116OSM    O1212129   2.584   1.572  11.072 -0.0434  0.1133  0.1581
  116OSM    C1S12130   2.653   1.463  10.792 -0.0415  0.1293 -0.1905
  116OSM    H1S12131   2.761   1.464  10.763  0.7256  2.4801  2.3255
  116OSM    H1T12132   2.614   1.566  10.809 -2.3074 -0.7524  0.2289
  116OSM     NF12133   2.570   1.514  10.571 -0.1312  0.3102 -0.1917
  116OSM    HNF12134   2.486   1.567  10.566 -1.2817 -1.3550  0.4749
  116OSM    C2S12135   2.572   1.412  10.672  0.0770  0.5194 -0.1242
  116OSM    H2S12136   2.627   1.323  10.634 -2.3178 -0.8202 -0.6632
  116OSM    C3S12137   2.433   1.372  10.714  1.4826  0.3779  0.7178
  116OSM    H3S12138   2.365   1.454  10.744  0.5547  0.3906 -1.2529
  116OSM     O312139   2.420   1.275  10.817 -0.2866  0.1735 -0.0171
  116OSM    HO312140   2.505   1.284  10.862 -0.2707 -1.6723  0.4240
  116OSM    C4S12141   2.361   1.301  10.588 -0.0446 -0.3315  0.2830
  116OSM    H4S12142   2.396   1.200  10.562 -0.4722 -0.8068  1.4896
  116OSM    C5S12143   2.280   1.355  10.497 -0.2330 -0.3229  0.3926
  116OSM    H5S12144   2.256   1.462  10.508 -0.0523  0.1074 -2.5817
  116OSM    C6S12145   2.225   1.275  10.385 -0.7803  0.3712 -0.1870
  116OSM    H6S12146   2.115   1.290  10.386 -0.5320  2.5203  0.8803
  116OSM    H6T12147   2.238   1.165  10.388 -2.9084  0.1023  2.0341
  116OSM    C7S12148   2.272   1.324  10.249 -0.4479 -0.1162 -0.5469
  116OSM    H7S12149   2.382   1.317  10.240 -0.5282 -0.2170 -1.6507
  116OSM    H7T12150   2.248   1.432  10.241  2.6669  0.7121 -0.0346
  116OSM    C8S12151   2.211   1.257  10.135  0.1245  0.1268  0.7615
  116OSM    H8S12152   2.114   1.308  10.120  0.7156  0.9938 -0.2216
  116OSM    H8T12153   2.186   1.149  10.141 -1.8363 -0.0124 -4.4722
  116OSM    C9S12154   2.298   1.276  10.010  0.4675  0.3482 -0.2394
  116OSM    H9S12155   2.400   1.238  10.032  0.1138 -0.4923  0.0142
  116OSM    H9T12156   2.312   1.385  10.003 -1.4550  0.6426  0.0176
  116OSM   C10S12157   2.221   1.227   9.890  0.3684  0.3239  0.0082
  116OSM   H10S12158   2.114   1.250   9.913  1.0424  2.7174  1.0958
  116OSM   H10T12159   2.250   1.123   9.865  2.1417  1.1259 -1.4472
  116OSM   C11S12160   2.275   1.310   9.777 -0.2492  0.4724  0.4537
  116OSM   H11S12161   2.384   1.300   9.763 -0.6605 -1.1230 -2.2247
  116OSM   H11T12162   2.252   1.417   9.797  1.1748  0.5742  1.7530
  116OSM   C12S12163   2.201   1.275   9.647  0.4178 -0.6897  0.4533
  116OSM   H12S12164   2.093   1.298   9.639  0.6246 -0.0837 -0.8878
  116OSM   H12T12165   2.196   1.164   9.655  1.4367 -0.7668  0.2004
  116OSM   C13S12166   2.253   1.331   9.513  0.4104  0.8958 -0.0558
  116OSM   H13S12167   2.363   1.315   9.513  0.2321 -0.6142  1.3672
  116OSM   H13T12168   2.232   1.440   9.503  0.6953  1.4406  3.7054
  116OSM   C14S12169   2.184   1.273   9.391  0.6608  0.0457  0.4751
  116OSM   H14S12170   2.076   1.299   9.396  0.1794 -1.2684 -1.6153
  116OSM   H14T12171   2.182   1.162   9.396  0.9394 -0.2576 -3.3470
  116OSM   C15S12172   2.242   1.311   9.258  0.7519  0.0635  0.4779
  116OSM   H15S12173   2.347   1.345   9.266  0.6149  0.3840  0.9624
  116OSM   H15T12174   2.181   1.399   9.226 -0.7824 -1.1411 -0.0835
  116OSM   C16S12175   2.231   1.212   9.138 -0.5099 -0.2855 -0.5484
  116OSM   H16S12176   2.130   1.194   9.093  0.0400 -1.6392 -1.3124
  116OSM   H16T12177   2.271   1.112   9.167  0.7044  0.5696  0.8136
  116OSM   C17S12178   2.326   1.261   9.023  0.8185  0.3609  0.2641
  116OSM   H17S12179   2.421   1.289   9.074  1.8144  2.4750 -2.5044
  116OSM   H17T12180   2.281   1.348   8.971 -1.3424 -0.0687  1.3251
  116OSM   C18S12181   2.358   1.150   8.907  0.5690 -0.1337 -0.3140
  116OSM   H18S12182   2.443   1.197   8.853  0.9417 -0.1555  0.2389
  116OSM   H18T12183   2.265   1.135   8.848  0.8327 -0.2232 -0.7055
  116OSM   H18U12184   2.387   1.054   8.955  1.5529 -0.6892 -1.9610
  116OSM    C1F12185   2.679   1.556  10.503  0.1187  0.4659 -0.5936
  116OSM     OF12186   2.793   1.514  10.527  0.0841  0.3063  0.1029
  116OSM    C2F12187   2.661   1.663  10.399  0.2026 -0.1319  0.1585
  116OSM    H2F12188   2.744   1.737  10.406 -1.4084  1.7722  0.1826
  116OSM    H2G12189   2.569   1.715  10.435  0.6991  0.5328  0.4944
  116OSM    C3F12190   2.676   1.593  10.269 -0.4688 -0.0958 -0.0853
  116OSM    H3F12191   2.595   1.517  10.267 -0.5027 -0.0767  0.3513
  116OSM    H3G12192   2.774   1.541  10.273  0.1868  1.0578 -0.7384
  116OSM    C4F12193   2.675   1.685  10.151 -0.0920 -0.3247 -0.0154
  116OSM    H4F12194   2.769   1.745  10.147 -2.1626  3.3415  1.0249
  116OSM    H4G12195   2.598   1.762  10.172 -2.7193 -2.2428 -1.8736
  116OSM    C5F12196   2.623   1.626  10.018  0.0589  0.8718  0.0487
  116OSM    H5F12197   2.543   1.550  10.033  1.2069 -0.5676 -0.7553
  116OSM    H5G12198   2.715   1.574   9.982  0.0614  0.4830  0.6042
  116OSM    C6F12199   2.565   1.726   9.910  0.2007  0.9602  0.4074
  116OSM    H6F12200   2.641   1.806   9.896  2.3675 -0.6449  2.2613
  116OSM    H6G12201   2.469   1.762   9.953 -1.7208 -1.7649 -1.2726
  116OSM    C7F12202   2.511   1.641   9.800 -0.0140 -0.0319 -0.1495
  116OSM    H7F12203   2.433   1.574   9.842 -0.8609 -0.3594 -2.1712
  116OSM    H7G12204   2.583   1.575   9.746  2.3043  1.8925  0.4206
  116OSM    C8F12205   2.434   1.725   9.700 -0.4410 -0.8584 -0.6521
  116OSM    H8F12206   2.365   1.789   9.761 -0.5918 -2.0363  0.4606
  116OSM    H8G12207   2.363   1.657   9.649  1.4247 -4.3979  1.1313
  116OSM    C9F12208   2.527   1.787   9.603  0.0431 -0.0812  0.6227
  116OSM    H9F12209   2.579   1.881   9.628  0.1743  0.8103 -2.5129
  116OSM   C10F12210   2.558   1.742   9.480 -0.0483  0.6129 -0.2054
  116OSM   H10F12211   2.620   1.802   9.412  0.1784  4.4486  3.0021
  116OSM   C11F12212   2.502   1.618   9.417 -0.4176 -0.2041 -0.3308
  116OSM   H11F12213   2.426   1.567   9.479 -1.1183 -0.1645 -1.1374
  116OSM   H11G12214   2.572   1.532   9.420  1.5471  1.3178  0.2419
  116OSM   C12F12215   2.435   1.645   9.281 -0.4152  0.4391  0.3445
  116OSM   H12F12216   2.343   1.706   9.291 -0.4877  0.2294  1.0168
  116OSM   H12G12217   2.401   1.552   9.230  1.0322  0.2669 -0.3597
  116OSM   C13F12218   2.525   1.711   9.172  0.1174  0.3810  0.1204
  116OSM   H13F12219   2.626   1.665   9.180  0.3015  0.8805  0.8140
  116OSM   H13G12220   2.534   1.822   9.177 -0.6593  0.4456  0.1570
  116OSM   C14F12221   2.461   1.683   9.029 -0.0615 -0.4580  0.2636
  116OSM   H14F12222   2.357   1.721   9.036  0.3250  0.8283 -0.6264
  116OSM   H14G12223   2.463   1.574   9.009  1.1835 -0.9251  2.5443
  116OSM   C15F12224   2.523   1.754   8.910  0.6156 -1.0138 -0.2219
  116OSM   H15F12225   2.493   1.714   8.810  1.9234  1.5941 -1.7863
  116OSM   H15G12226   2.633   1.738   8.911  0.4405 -2.2407  0.5170
  116OSM   C16F12227   2.501   1.910   8.917  0.2321 -0.9337 -0.9713
  116OSM   H16F12228   2.568   1.945   8.998 -1.0077 -1.1355  0.1851
  116OSM   H16G12229   2.395   1.941   8.933  0.4837 -0.8578  0.7530
  116OSM   C17F12230   2.548   1.983   8.795 -0.2024 -0.4216 -0.0262
  116OSM   H17F12231   2.508   1.927   8.708 -0.3743 -1.1276  0.4972
  116OSM   H17G12232   2.659   1.976   8.804 -0.3467 -0.7115  2.5472
  116OSM   C18F12233   2.504   2.124   8.787  0.6038 -0.3670 -0.2676
  116OSM   H18F12234   2.529   2.185   8.877  0.5646  1.3336 -1.3660
  116OSM   H18G12235   2.393   2.115   8.781  0.7478 -2.2777 -0.7027
  116OSM   H18H12236   2.542   2.176   8.696  0.6699  1.1404  0.5813
  117OSM      N12237   6.533   2.039  10.932  0.1366 -0.3406  0.3772
  117OSM    C1512238   6.453   1.919  10.975  0.2373 -0.1525  0.7269
  117OSM   H15A12239   6.391   1.953  11.057  0.7630  0.0719  1.0313
  117OSM   H15B12240   6.510   1.834  11.009  0.5229  0.4194  1.7106
  117OSM   H15C12241   6.396   1.891  10.888  1.1788  1.0672 -0.3102
  117OSM    C1412242   6.621   2.068  11.055 -0.3184 -0.8400 -0.7576
  117OSM   H14A12243   6.700   1.995  11.066 -0.6305 -1.0946 -0.1346
  117OSM   H14B12244   6.563   2.055  11.146  0.9424 -1.7294 -0.0577
  117OSM   H14C12245   6.658   2.169  11.050  1.9599 -1.6598 -1.5529
  117OSM    C1312246   6.620   2.008  10.819 -0.7170 -0.0549  0.4589
  117OSM   H13A12247   6.686   1.927  10.845  0.6326  1.2099  1.0782
  117OSM   H13B12248   6.690   2.086  10.797  0.2714 -0.9181  0.4685
  117OSM   H13C12249   6.571   1.989  10.724  1.0640 -0.2908 -0.4460
  117OSM    C1212250   6.450   2.167  10.911 -0.0185  0.4174  0.5981
  117OSM   H12A12251   6.409   2.198  11.006 -0.8561 -1.4526  0.8963
  117OSM   H12B12252   6.365   2.143  10.848  0.6554 -2.7494  0.6987
  117OSM    C1112253   6.540   2.280  10.852 -0.0304 -0.1361  0.0442
  117OSM   H11A12254   6.471   2.361  10.820  1.6944  2.1009  1.7090
  117OSM   H11B12255   6.594   2.250  10.760  0.3060 -1.2332  0.5852
  117OSM      P12256   6.595   2.420  11.065 -0.0866 -0.0734  0.0563
  117OSM    O1312257   6.457   2.405  11.094  0.2287 -0.4208  0.0584
  117OSM    O1412258   6.691   2.408  11.172  0.1172  0.4440  0.0105
  117OSM    O1112259   6.602   2.566  11.008  0.3951 -0.0460 -0.0758
  117OSM    O1212260   6.641   2.335  10.943 -0.4558 -0.3663  0.3073
  117OSM    C1S12261   6.712   2.624  10.936  0.1759  0.4821  0.5075
  117OSM    H1S12262   6.805   2.563  10.934 -0.7203 -1.0070 -2.8976
  117OSM    H1T12263   6.732   2.727  10.971 -1.2240  0.3266  1.8479
  117OSM     NF12264   6.800   2.704  10.712 -0.6351  0.5012  0.0229
  117OSM    HNF12265   6.798   2.803  10.700 -0.0841  0.3963 -1.0255
  117OSM    C2S12266   6.677   2.649  10.786 -0.4307 -0.7958 -0.0292
  117OSM    H2S12267   6.665   2.553  10.731 -1.2773  0.2553 -1.7649
  117OSM    C3S12268   6.544   2.726  10.751  0.1246  0.0940 -0.5361
  117OSM    H3S12269   6.553   2.836  10.761  1.4259 -0.0160 -0.1997
  117OSM     O312270   6.428   2.681  10.826  0.4530  0.4544 -0.0959
  117OSM    HO312271   6.466   2.622  10.891 -0.7487  0.9957  1.1321
  117OSM    C4S12272   6.508   2.709  10.605 -0.4720  0.3213  0.4534
  117OSM    H4S12273   6.534   2.622  10.543 -3.2520 -0.3283  0.0654
  117OSM    C5S12274   6.455   2.805  10.529 -0.0283  0.5251  0.3469
  117OSM    H5S12275   6.438   2.902  10.578  0.8985  0.9792 -0.1862
  117OSM    C6S12276   6.429   2.802  10.379  0.5873 -0.1813  0.0785
  117OSM    H6S12277   6.409   2.906  10.344 -1.1458 -0.5954 -0.2415
  117OSM    H6T12278   6.337   2.743  10.360  1.5909 -1.6604 -0.3193
  117OSM    C7S12279   6.541   2.730  10.292  0.0718  0.4827 -0.0056
  117OSM    H7S12280   6.568   2.633  10.339 -1.2417 -1.4602 -2.9889
  117OSM    H7T12281   6.632   2.794  10.290 -0.1838  0.8898  0.8238
  117OSM    C8S12282   6.501   2.699  10.148 -0.3656 -0.1154  0.5942
  117OSM    H8S12283   6.437   2.777  10.103 -1.4156 -1.5168 -0.4086
  117OSM    H8T12284   6.452   2.600  10.155  1.2112 -1.0893 -1.3068
  117OSM    C9S12285   6.619   2.681  10.055  0.2951 -0.5692  0.5157
  117OSM    H9S12286   6.688   2.596  10.073  1.9683  0.5485 -0.3673
  117OSM    H9T12287   6.685   2.770  10.050  0.2928 -0.5552  0.7074
  117OSM   C10S12288   6.578   2.651   9.907  0.0638  0.3037 -0.2102
  117OSM   H10S12289   6.520   2.739   9.872  0.1289  1.5334  2.5221
  117OSM   H10T12290   6.507   2.566   9.899  0.2995  0.0046  0.7025
  117OSM   C11S12291   6.702   2.630   9.826 -0.5843  0.0426 -0.2866
  117OSM   H11S12292   6.771   2.557   9.874 -2.2843 -1.0760  0.5486
  117OSM   H11T12293   6.758   2.725   9.810  1.0524 -0.4736  1.9195
  117OSM   C12S12294   6.676   2.570   9.688 -0.0726 -0.4072  0.1518
  117OSM   H12S12295   6.627   2.643   9.621 -0.9648 -0.3978  0.7990
  117OSM   H12T12296   6.607   2.484   9.699 -1.2685  0.2582 -1.6665
  117OSM   C13S12297   6.801   2.529   9.610 -0.5426  0.0058  0.7086
  117OSM   H13S12298   6.878   2.476   9.670 -0.4386 -0.6565  0.0067
  117OSM   H13T12299   6.856   2.615   9.567 -0.6005 -0.4001 -0.1980
  117OSM   C14S12300   6.754   2.441   9.491 -0.8430 -1.3741 -0.9930
  117OSM   H14S12301   6.681   2.500   9.432  0.2016  1.0610  0.0361
  117OSM   H14T12302   6.705   2.355   9.542 -2.4884  0.1569  0.0930
  117OSM   C15S12303   6.878   2.396   9.404 -0.2457  0.1477  0.2263
  117OSM   H15S12304   6.960   2.363   9.471 -0.5532 -1.0091  0.0577
  117OSM   H15T12305   6.917   2.474   9.335 -1.6900  0.8326  0.1422
  117OSM   C16S12306   6.845   2.263   9.330  1.0477  0.0226  0.1266
  117OSM   H16S12307   6.763   2.278   9.256  1.6267  0.3132 -0.4705
  117OSM   H16T12308   6.821   2.191   9.410 -1.4797  1.1131  0.4312
  117OSM   C17S12309   6.966   2.231   9.242 -0.1068 -0.3378 -0.1304
  117OSM   H17S12310   6.961   2.124   9.214  0.1044 -0.0069 -1.5534
  117OSM   H17T12311   7.056   2.227   9.306  1.6235 -2.3645 -2.4925
  117OSM   C18S12312   6.985   2.319   9.119 -0.9869  0.0911  0.1219
  117OSM   H18S12313   7.016   2.420   9.155 -0.1655  0.8549 -2.4872
  117OSM   H18T12314   6.889   2.345   9.068  0.4453  2.0013 -1.8398
  117OSM   H18U12315   7.065   2.284   9.050  0.1111  2.3927  0.1305
  117OSM    C1F12316   6.918   2.645  10.698  0.2729  0.6066 -0.2459
  117OSM     OF12317   6.943   2.529  10.724  0.4775  0.1465  0.7507
  117OSM    C2F12318   7.029   2.732  10.654  0.4608 -0.2637 -0.3620
  117OSM    H2F12319   7.106   2.730  10.734  1.0962  0.0445 -0.9556
  117OSM    H2G12320   6.995   2.838  10.645 -1.6361 -0.9817 -2.0046
  117OSM    C3F12321   7.108   2.693  10.530  0.1043  0.6282  1.2627
  117OSM    H3F12322   7.159   2.598  10.557 -0.6649 -0.6021 -1.3343
  117OSM    H3G12323   7.188   2.766  10.507  1.9616 -1.0590  2.0120
  117OSM    C4F12324   7.015   2.673  10.402 -0.0634 -0.0856 -0.2125
  117OSM    H4F12325   6.952   2.764  10.402 -1.2988 -0.9041  1.2741
  117OSM    H4G12326   6.953   2.584  10.424  0.5107 -1.0681 -2.2678
  117OSM    C5F12327   7.097   2.641  10.274  0.1266  0.2855 -0.5650
  117OSM    H5F12328   7.173   2.721  10.259  1.1919 -0.6681 -0.4268
  117OSM    H5G12329   7.019   2.632  10.196 -0.7689 -0.6351  0.4004
  117OSM    C6F12330   7.183   2.509  10.281  0.2299  0.0984 -0.7408
  117OSM    H6F12331   7.132   2.410  10.279  0.6844 -0.3747  3.2192
  117OSM    H6G12332   7.241   2.512  10.376  1.4768  0.0837 -1.4777
  117OSM    C7F12333   7.277   2.504  10.158 -0.1248  0.1943 -0.3902
  117OSM    H7F12334   7.356   2.581  10.154 -0.4008  0.5297  0.3774
  117OSM    H7G12335   7.209   2.518  10.071 -1.9976 -1.0619  0.7803
  117OSM    C8F12336   7.346   2.364  10.152 -0.4742 -0.3288 -0.3542
  117OSM    H8F12337   7.274   2.281  10.136 -1.7069  0.4368  0.9954
  117OSM    H8G12338   7.386   2.342  10.253 -0.1754 -0.8272 -0.5802
  117OSM    C9F12339   7.455   2.363  10.046 -0.3732 -0.3248 -0.3123
  117OSM    H9F12340   7.544   2.423  10.071 -0.9695 -0.0929  1.4199
  117OSM   C10F12341   7.471   2.305   9.922 -0.2813 -0.6963 -0.0464
  117OSM   H10F12342   7.563   2.316   9.863 -2.3348  2.0544 -3.1396
  117OSM   C11F12343   7.359   2.223   9.855 -0.0353 -0.0040  0.6143
  117OSM   H11F12344   7.306   2.293   9.788  0.2174  0.7362  1.1749
  117OSM   H11G12345   7.284   2.184   9.927 -0.2415 -2.0470 -0.6067
  117OSM   C12F12346   7.435   2.106   9.783  0.5865  0.2457  0.2226
  117OSM   H12F12347   7.354   2.030   9.770  0.2673  0.2678  1.8601
  117OSM   H12G12348   7.512   2.061   9.848  1.2781  0.2517 -0.5678
  117OSM   C13F12349   7.483   2.135   9.641  0.7158 -0.6921 -0.0293
  117OSM   H13F12350   7.540   2.048   9.601  1.5875 -0.8140  1.3985
  117OSM   H13G12351   7.541   2.229   9.644 -3.4318  2.1704 -0.5701
  117OSM   C14F12352   7.370   2.167   9.541 -0.3949 -0.4443  0.3736
  117OSM   H14F12353   7.307   2.249   9.580 -1.2471 -2.0115  2.5163
  117OSM   H14G12354   7.297   2.084   9.526  1.2408 -1.7129 -1.0053
  117OSM   C15F12355   7.428   2.208   9.410  0.3098 -1.1133  0.5524
  117OSM   H15F12356   7.462   2.115   9.360  0.0068 -0.2656 -1.3119
  117OSM   H15G12357   7.516   2.275   9.423 -2.3008  2.1966  3.1874
  117OSM   C16F12358   7.339   2.288   9.322  0.2080 -0.8345  0.2884
  117OSM   H16F12359   7.325   2.384   9.376 -2.1007  0.2752 -2.0383
  117OSM   H16G12360   7.243   2.232   9.320 -0.0699 -0.3634  0.2170
  117OSM   C17F12361   7.378   2.308   9.178 -0.0858  0.1099 -0.3910
  117OSM   H17F12362   7.470   2.370   9.177  0.0031  0.3438  3.8080
  117OSM   H17G12363   7.298   2.378   9.145  0.7503  0.8703 -0.8509
  117OSM   C18F12364   7.388   2.195   9.082  0.2635  0.5803  0.0630
  117OSM   H18F12365   7.420   2.224   8.979  1.7818  1.2255  0.6840
  117OSM   H18G12366   7.285   2.158   9.066  0.0113  0.6596  1.3742
  117OSM   H18H12367   7.454   2.112   9.114 -1.7764 -0.6717  1.1897
  118OSM      N12368   6.643   3.583  11.200  0.4420 -0.0856 -0.1141
  118OSM    C1512369   6.769   3.660  11.241 -0.7485  0.9521 -0.2602
  118OSM   H15A12370   6.769   3.691  11.344  0.2053 -0.2997  0.1317
  118OSM   H15B12371   6.778   3.750  11.182 -0.4534  0.2657 -1.2923
  118OSM   H15C12372   6.854   3.598  11.218 -0.7190  0.8304  0.1733
  118OSM    C1412373   6.627   3.466  11.284 -0.2518  0.0052  0.0905
  118OSM   H14A12374   6.659   3.497  11.382 -0.7587  0.7293  0.0310
  118OSM   H14B12375   6.693   3.386  11.253  0.8490  1.0972 -0.4694
  118OSM   H14C12376   6.527   3.424  11.283 -1.0509  1.8234 -0.8410
  118OSM    C1312377   6.523   3.671  11.232 -0.7416  0.1212  0.3665
  118OSM   H13A12378   6.429   3.629  11.199  0.1645 -1.4276 -0.3490
  118OSM   H13B12379   6.544   3.771  11.197 -0.6739  0.3836  1.1400
  118OSM   H13C12380   6.506   3.678  11.339  0.9693  0.3175  0.6500
  118OSM    C1212381   6.648   3.537  11.054  0.0117 -0.8527 -0.3035
  118OSM   H12A12382   6.574   3.461  11.032 -1.6606  0.7631 -0.5427
  118OSM   H12B12383   6.743   3.486  11.054  0.5615  0.0871  1.5320
  118OSM    C1112384   6.645   3.640  10.943  0.7609 -0.1335  0.4883
  118OSM   H11A12385   6.554   3.701  10.962  0.1900 -0.9913  0.5762
  118OSM   H11B12386   6.622   3.595  10.843 -1.7818  1.6106  0.1809
  118OSM      P12387   6.895   3.665  10.886 -0.2439 -0.0470  0.0460
  118OSM    O1312388   6.999   3.770  10.882  0.5283 -0.6262 -0.0340
  118OSM    O1412389   6.932   3.541  10.961  0.2134 -0.0964  0.4466
  118OSM    O1112390   6.866   3.627  10.738 -0.1304 -0.1140  0.1234
  118OSM    O1212391   6.759   3.718  10.938 -0.0139  0.2103 -0.2567
  118OSM    C1S12392   6.806   3.732  10.652 -0.0268  0.0832  0.1639
  118OSM    H1S12393   6.871   3.823  10.646 -1.6351  1.2016 -1.3889
  118OSM    H1T12394   6.706   3.759  10.692  0.7262 -0.0564  2.2655
  118OSM     NF12395   6.718   3.777  10.425 -0.6136  0.5829 -0.6673
  118OSM    HNF12396   6.618   3.768  10.418 -0.6398  0.8045 -0.5831
  118OSM    C2S12397   6.782   3.676  10.506  0.1443  0.0731  0.4076
  118OSM    H2S12398   6.884   3.650  10.471  0.9324  0.1243  2.4789
  118OSM    C3S12399   6.694   3.542  10.510 -0.2341  0.2545 -0.3358
  118OSM    H3S12400   6.609   3.567  10.577  1.0147 -0.1393  1.4741
  118OSM     O312401   6.760   3.432  10.573 -0.2144  0.1908  0.4155
  118OSM    HO312402   6.823   3.474  10.632 -0.5725 -0.0956  1.0107
  118OSM    C4S12403   6.656   3.496  10.373 -0.4118 -0.3276  0.1905
  118OSM    H4S12404   6.739   3.505  10.301 -0.4640  1.0081  0.2651
  118OSM    C5S12405   6.540   3.430  10.347 -0.8105  0.6153 -0.7648
  118OSM    H5S12406   6.478   3.410  10.436 -0.6521  2.3015 -0.2434
  118OSM    C6S12407   6.485   3.363  10.227 -0.4896  0.4285  0.0726
  118OSM    H6S12408   6.437   3.444  10.168  1.9006  1.0869 -1.1216
  118OSM    H6T12409   6.398   3.300  10.255  0.0262 -0.6733 -0.7324
  118OSM    C7S12410   6.594   3.280  10.155  0.1906 -0.8437 -0.0428
  118OSM    H7S12411   6.624   3.194  10.219  2.7330  0.1284  0.1791
  118OSM    H7T12412   6.679   3.346  10.130  0.1807  0.1703  2.3454
  118OSM    C8S12413   6.547   3.218  10.022 -0.2532  0.1893  0.0381
  118OSM    H8S12414   6.504   3.296   9.957  0.5479  1.0855  0.5535
  118OSM    H8T12415   6.466   3.143  10.038  1.5543 -2.3664 -1.8379
  118OSM    C9S12416   6.652   3.135   9.949 -0.4642 -0.4388 -0.4734
  118OSM    H9S12417   6.689   3.050  10.010 -0.7084 -1.5521 -1.8128
  118OSM    H9T12418   6.728   3.214   9.935 -2.4144  1.2253 -2.3233
  118OSM   C10S12419   6.598   3.090   9.813  0.4956 -0.0682  0.1420
  118OSM   H10S12420   6.553   3.178   9.763  0.3293 -0.9545 -1.3435
  118OSM   H10T12421   6.520   3.011   9.824  1.2303 -1.0866 -1.5167
  118OSM   C11S12422   6.685   3.009   9.714 -0.3170 -0.4460  0.4435
  118OSM   H11S12423   6.723   2.920   9.769 -0.1987 -0.2400  0.6975
  118OSM   H11T12424   6.765   3.082   9.689 -2.9894  2.7377  0.5799
  118OSM   C12S12425   6.615   2.979   9.583  0.3044  0.5007 -0.1736
  118OSM   H12S12426   6.564   3.065   9.533 -1.6509 -0.5479 -0.1074
  118OSM   H12T12427   6.539   2.902   9.607  3.0740 -1.3516  3.5973
  118OSM   C13S12428   6.715   2.916   9.490  0.6246  0.5975 -0.2155
  118OSM   H13S12429   6.762   2.830   9.542 -0.1403 -0.0203 -0.5161
  118OSM   H13T12430   6.778   3.005   9.466 -2.5337  2.0933 -4.2140
  118OSM   C14S12431   6.646   2.864   9.355 -0.3820 -0.8502 -0.9613
  118OSM   H14S12432   6.600   2.950   9.301  1.7633 -0.0315 -1.5862
  118OSM   H14T12433   6.569   2.795   9.395  0.4387 -0.3542  1.6578
  118OSM   C15S12434   6.737   2.775   9.274 -0.0173  0.5510 -0.2145
  118OSM   H15S12435   6.788   2.696   9.333 -1.4080  0.2302  0.6048
  118OSM   H15T12436   6.819   2.835   9.228  1.8964  0.7076  3.0836
  118OSM   C16S12437   6.661   2.690   9.168 -0.2358  0.1667 -0.3244
  118OSM   H16S12438   6.616   2.758   9.093  0.8483  1.3523  0.0539
  118OSM   H16T12439   6.587   2.639   9.233  1.6611  0.7344  2.4690
  118OSM   C17S12440   6.749   2.591   9.105 -0.2355  0.2100  0.0270
  118OSM   H17S12441   6.773   2.510   9.178  2.0477 -0.7420 -1.6748
  118OSM   H17T12442   6.844   2.641   9.080 -0.5250  0.7678  0.0247
  118OSM   C18S12443   6.696   2.536   8.973  0.7701  0.0223 -0.3004
  118OSM   H18S12444   6.760   2.451   8.941 -0.9490 -1.9619  1.2112
  118OSM   H18T12445   6.692   2.610   8.890  1.3178 -0.2843 -0.6057
  118OSM   H18U12446   6.594   2.493   8.982  0.9529 -0.4510 -0.4908
  118OSM    C1F12447   6.797   3.881  10.378 -0.2643  0.8790 -0.1597
  118OSM     OF12448   6.917   3.879  10.398 -0.0535 -0.0031  0.2240
  118OSM    C2F12449   6.736   3.996  10.312  0.8011  0.2411  0.9675
  118OSM    H2F12450   6.803   4.036  10.232  0.6760 -0.0266  0.7271
  118OSM    H2G12451   6.717   4.075  10.388 -1.3607  1.1074 -0.3779
  118OSM    C3F12452   6.597   3.978  10.240 -0.1370  0.1691  0.2170
  118OSM    H3F12453   6.534   4.070  10.246  0.0103  0.2266  1.0035
  118OSM    H3G12454   6.538   3.900  10.292 -1.1753 -0.4602 -1.7961
  118OSM    C4F12455   6.614   3.936  10.092 -0.2150 -0.2725 -0.0512
  118OSM    H4F12456   6.684   3.850  10.093 -1.4763 -1.3324 -0.3568
  118OSM    H4G12457   6.642   4.006  10.010  1.9223 -0.3981  0.5165
  118OSM    C5F12458   6.488   3.863  10.037 -0.5613 -0.0483  0.1485
  118OSM    H5F12459   6.394   3.922  10.029 -2.1545 -2.1917  1.9421
  118OSM    H5G12460   6.465   3.773  10.098 -1.1300 -1.7658 -2.4677
  118OSM    C6F12461   6.525   3.804   9.900 -0.2801  0.7740 -0.2315
  118OSM    H6F12462   6.570   3.867   9.820 -0.2077  1.0342  0.0143
  118OSM    H6G12463   6.434   3.758   9.855  0.9234 -0.0260 -1.9547
  118OSM    C7F12464   6.617   3.681   9.915  0.6133  0.9244 -0.0548
  118OSM    H7F12465   6.577   3.610   9.990  0.3651  0.5424 -0.5425
  118OSM    H7G12466   6.725   3.704   9.930  0.6434  2.0971 -1.7128
  118OSM    C8F12467   6.620   3.601   9.785  0.2470 -0.1255  0.1535
  118OSM    H8F12468   6.514   3.587   9.755  0.5962 -1.3406 -0.5446
  118OSM    H8G12469   6.684   3.513   9.807 -0.5633 -0.3202  1.9054
  118OSM    C9F12470   6.687   3.671   9.669  0.2104  0.2010  0.6400
  118OSM    H9F12471   6.723   3.774   9.684 -2.2640  1.5176 -1.5719
  118OSM   C10F12472   6.717   3.611   9.552  0.4390  0.4382 -0.5386
  118OSM   H10F12473   6.749   3.675   9.468  0.8263  0.3459 -0.4608
  118OSM   C11F12474   6.687   3.462   9.524  0.2713 -0.0022  0.1589
  118OSM   H11F12475   6.688   3.406   9.620 -0.9298 -0.9301 -0.3449
  118OSM   H11G12476   6.765   3.422   9.455 -0.3877 -0.3650 -0.3827
  118OSM   C12F12477   6.553   3.446   9.439  0.2194 -0.4563 -0.7491
  118OSM   H12F12478   6.471   3.499   9.493  2.4002 -0.7075  3.2254
  118OSM   H12G12479   6.526   3.338   9.439 -0.6135 -0.3792  2.4639
  118OSM   C13F12480   6.553   3.492   9.293  0.2320 -0.0839 -0.2567
  118OSM   H13F12481   6.581   3.598   9.272  1.5543  0.1487  2.3343
  118OSM   H13G12482   6.447   3.491   9.260  0.0222 -0.6745  0.4173
  118OSM   C14F12483   6.629   3.409   9.195  0.5012  0.3138  0.0915
  118OSM   H14F12484   6.612   3.303   9.221 -1.0448 -0.5941 -3.9056
  118OSM   H14G12485   6.736   3.439   9.188  0.3202  1.0498  0.2997
  118OSM   C15F12486   6.574   3.419   9.050 -0.3110  0.1010 -0.0728
  118OSM   H15F12487   6.654   3.408   8.973 -0.0597 -2.5464  0.4624
  118OSM   H15G12488   6.527   3.520   9.045 -0.9159 -0.1110  1.0069
  118OSM   C16F12489   6.457   3.323   9.027  0.1078 -0.4305  0.1967
  118OSM   H16F12490   6.362   3.337   9.084  1.4691  0.3548  2.3789
  118OSM   H16G12491   6.490   3.219   9.048  1.3967  0.0205  0.4354
  118OSM   C17F12492   6.402   3.329   8.881  0.5584  0.0950  0.6412
  118OSM   H17F12493   6.485   3.347   8.809  1.0089 -0.6989  0.9502
  118OSM   H17G12494   6.321   3.405   8.878 -0.4062 -0.9131 -2.2346
  118OSM   C18F12495   6.342   3.194   8.841 -0.3443  0.6873  0.6035
  118OSM   H18F12496   6.348   3.188   8.730  2.0924 -0.0323  0.7065
  118OSM   H18G12497   6.233   3.195   8.859 -0.5948  2.3272 -0.7093
  118OSM   H18H12498   6.396   3.113   8.895 -0.6312 -1.0647 -1.5999
  119OSM      N12499   0.271   2.397  11.118 -0.3781 -0.2044 -0.4170
  119OSM    C1512500   0.180   2.493  11.181  0.3905  0.0163 -0.6567
  119OSM   H15A12501   0.078   2.484  11.145  0.4426  0.6249 -0.9651
  119OSM   H15B12502   0.205   2.594  11.152 -1.2100  1.2610  1.8987
  119OSM   H15C12503   0.182   2.479  11.288  0.8938  0.9169 -0.5459
  119OSM    C1412504   0.398   2.388  11.202  0.2184  0.0647  0.2561
  119OSM   H14A12505   0.461   2.314  11.154 -1.6258 -0.3025 -1.7876
  119OSM   H14B12506   0.364   2.361  11.301 -1.5646 -1.4650 -0.6968
  119OSM   H14C12507   0.458   2.477  11.200 -0.1664  0.3424 -2.4378
  119OSM    C1312508   0.198   2.267  11.110  0.0089 -1.0749  0.0516
  119OSM   H13A12509   0.150   2.234  11.201 -1.4915 -0.5506 -0.5345
  119OSM   H13B12510   0.269   2.194  11.073  0.4157  0.0501 -1.5220
  119OSM   H13C12511   0.124   2.275  11.032 -1.7454 -0.5161  1.7151
  119OSM    C1212512   0.302   2.450  10.981 -0.5401  0.7285  1.3479
  119OSM   H12A12513   0.342   2.550  10.975 -0.5091  0.6526 -3.5422
  119OSM   H12B12514   0.216   2.456  10.917  1.4389  0.0448 -1.5581
  119OSM    C1112515   0.392   2.359  10.894 -0.2343 -1.0109  0.4902
  119OSM   H11A12516   0.378   2.393  10.790  0.6765 -1.3393  0.2519
  119OSM   H11B12517   0.360   2.253  10.890  2.5815 -1.9058 -0.8028
  119OSM      P12518   0.612   2.497  10.889  0.5570  0.2386  0.0278
  119OSM    O1312519   0.542   2.619  10.910 -0.2152  0.1874 -0.1554
  119OSM    O1412520   0.752   2.501  10.936  0.5847 -0.3110 -0.6915
  119OSM    O1112521   0.621   2.475  10.739  0.9567  0.1027 -0.3665
  119OSM    O1212522   0.538   2.368  10.933  0.0388  0.3874 -0.3459
  119OSM    C1S12523   0.668   2.355  10.684 -0.0614  0.1674 -0.2185
  119OSM    H1S12524   0.592   2.274  10.695  0.5552 -0.2058  1.7196
  119OSM    H1T12525   0.758   2.312  10.733  0.4075 -2.1503 -2.8529
  119OSM     NF12526   0.739   2.241  10.470 -0.2334 -0.1961 -0.4506
  119OSM    HNF12527   0.834   2.236  10.442  0.4501 -2.8737  1.8270
  119OSM    C2S12528   0.701   2.366  10.533 -0.4708 -0.6120 -0.2953
  119OSM    H2S12529   0.619   2.416  10.477  0.8933  0.4909 -1.3864
  119OSM    C3S12530   0.817   2.477  10.522  0.2835 -0.4366 -0.2155
  119OSM    H3S12531   0.897   2.433  10.587  0.2266  1.7561  1.4797
  119OSM     O312532   0.777   2.601  10.591 -0.5795  0.4136 -0.3119
  119OSM    HO312533   0.703   2.572  10.646 -0.1129 -1.8266 -0.7454
  119OSM    C4S12534   0.869   2.501  10.381 -0.6515 -0.2612  0.2527
  119OSM    H4S12535   0.966   2.451  10.368 -1.0715 -1.2683  0.8524
  119OSM    C5S12536   0.816   2.593  10.301 -0.1962  0.4876 -0.4652
  119OSM    H5S12537   0.745   2.666  10.342  2.5791  1.2122  3.7038
  119OSM    C6S12538   0.862   2.636  10.163 -0.4453  0.0443 -0.5611
  119OSM    H6S12539   0.888   2.743  10.171  0.1679 -0.2180  1.3093
  119OSM    H6T12540   0.773   2.627  10.096 -0.8594 -0.9562  0.0999
  119OSM    C7S12541   0.980   2.552  10.100  0.3312  0.0277 -0.2639
  119OSM    H7S12542   0.962   2.443  10.093  1.2378 -0.0606 -1.5160
  119OSM    H7T12543   1.064   2.565  10.172  0.3938  0.0835 -0.3468
  119OSM    C8S12544   1.024   2.590   9.955  0.2305  0.6410 -0.5101
  119OSM    H8S12545   1.127   2.549   9.943 -0.5923 -2.0447  0.8893
  119OSM    H8T12546   1.034   2.700   9.945  1.8465  0.7844  1.9186
  119OSM    C9S12547   0.936   2.535   9.839  0.0912 -0.3329  0.5243
  119OSM    H9S12548   0.835   2.564   9.873 -0.4867  1.1448 -2.1704
  119OSM    H9T12549   0.954   2.427   9.821 -1.8936 -0.4615 -1.0159
  119OSM   C10S12550   0.975   2.610   9.710  0.0228 -0.2821  0.0697
  119OSM   H10S12551   1.085   2.604   9.700  0.3628  3.4322  0.0931
  119OSM   H10T12552   0.954   2.719   9.709  0.8074 -0.1280 -0.3044
  119OSM   C11S12553   0.914   2.557   9.577  0.1792 -0.2516  0.4855
  119OSM   H11S12554   0.803   2.558   9.585  0.1487  1.7905  0.2704
  119OSM   H11T12555   0.934   2.448   9.573 -0.0693 -0.2648 -0.9964
  119OSM   C12S12556   0.972   2.641   9.460 -0.1648  0.0062  0.1958
  119OSM   H12S12557   1.083   2.647   9.465 -0.2651  1.2738  1.5119
  119OSM   H12T12558   0.945   2.749   9.465 -2.2150 -0.4449 -0.1442
  119OSM   C13S12559   0.912   2.596   9.326  0.3508  0.3034 -0.4718
  119OSM   H13S12560   0.804   2.619   9.315 -0.1484 -2.5974 -3.0177
  119OSM   H13T12561   0.922   2.486   9.315 -1.2778  0.0073  0.5424
  119OSM   C14S12562   0.984   2.660   9.211 -0.5728  0.0418 -0.0105
  119OSM   H14S12563   1.092   2.634   9.213 -0.3660  0.9106  0.5659
  119OSM   H14T12564   0.963   2.768   9.225 -1.1244 -0.0408 -0.1649
  119OSM   C15S12565   0.936   2.617   9.070 -0.9606 -0.4857 -0.4140
  119OSM   H15S12566   0.965   2.510   9.067  1.7148  0.0103  2.1482
  119OSM   H15T12567   0.992   2.683   8.999 -0.5762 -0.8383 -0.4414
  119OSM   C16S12568   0.791   2.642   9.053  0.1671  0.0261  0.1651
  119OSM   H16S12569   0.775   2.752   9.052 -1.2006 -0.1415 -1.5028
  119OSM   H16T12570   0.735   2.583   9.129 -0.2943  2.0036  1.4184
  119OSM   C17S12571   0.755   2.590   8.913 -0.0687 -0.3649  0.0008
  119OSM   H17S12572   0.795   2.487   8.905  1.1283  0.1208 -0.3921
  119OSM   H17T12573   0.811   2.660   8.848  0.3922 -0.3211  0.4357
  119OSM   C18S12574   0.609   2.616   8.871 -0.0554 -0.2337 -0.4954
  119OSM   H18S12575   0.552   2.547   8.938 -0.0874  0.4057  0.1535
  119OSM   H18T12576   0.590   2.606   8.762  1.5040  1.1763 -0.9410
  119OSM   H18U12577   0.582   2.719   8.904 -0.5308 -0.1485 -1.1356
  119OSM    C1F12578   0.653   2.137  10.458 -0.0057  1.3594 -0.2902
  119OSM     OF12579   0.537   2.143  10.498  0.3152 -0.2255  0.3721
  119OSM    C2F12580   0.711   2.009  10.389 -0.2141  0.1582 -0.3876
  119OSM    H2F12581   0.763   1.955  10.471  0.8035  1.8578  0.1356
  119OSM    H2G12582   0.764   2.057  10.304 -0.0612 -1.5757 -1.3246
  119OSM    C3F12583   0.587   1.927  10.332 -0.0412 -1.1524  0.2515
  119OSM    H3F12584   0.531   1.987  10.258  1.7089  1.0412  0.6116
  119OSM    H3G12585   0.526   1.892  10.418 -0.8402 -1.1016 -0.2859
  119OSM    C4F12586   0.612   1.795  10.247  0.3574 -0.1066 -0.2625
  119OSM    H4F12587   0.517   1.742  10.223 -0.5920  1.4170 -0.0185
  119OSM    H4G12588   0.677   1.729  10.308 -0.3020  0.4358  1.0601
  119OSM    C5F12589   0.684   1.818  10.112  0.1715 -0.3093  0.1422
  119OSM    H5F12590   0.786   1.853  10.141 -0.3590  0.0697  1.6274
  119OSM    H5G12591   0.628   1.892  10.051  0.5264 -0.6659 -0.6250
  119OSM    C6F12592   0.698   1.682  10.040  0.4350  0.5347  0.4437
  119OSM    H6F12593   0.597   1.637  10.032  0.3096  1.0004 -0.8957
  119OSM    H6G12594   0.766   1.627  10.108  1.2399 -0.9147 -1.4371
  119OSM    C7F12595   0.754   1.694   9.896  0.0940 -0.2509  0.0039
  119OSM    H7F12596   0.847   1.754   9.899 -0.1881  0.1635  1.4456
  119OSM    H7G12597   0.684   1.740   9.823  0.0518 -1.0357 -0.4663
  119OSM    C8F12598   0.791   1.559   9.834 -0.4697 -0.3549  0.9784
  119OSM    H8F12599   0.867   1.511   9.900  0.7455  1.6447  1.1139
  119OSM    H8G12600   0.846   1.572   9.738  0.0360 -0.7208  1.2112
  119OSM    C9F12601   0.679   1.473   9.810  0.4236  0.3653  0.5479
  119OSM    H9F12602   0.612   1.449   9.894 -2.1384  0.5935 -1.3028
  119OSM   C10F12603   0.636   1.408   9.691 -0.0138  0.5130  0.0001
  119OSM   H10F12604   0.547   1.346   9.705 -0.6179  1.5830  1.1443
  119OSM   C11F12605   0.695   1.406   9.551 -0.3248  0.3414 -0.4032
  119OSM   H11F12606   0.780   1.476   9.540 -0.8920  0.9598 -0.9110
  119OSM   H11G12607   0.618   1.445   9.482 -0.3587 -0.9376 -1.1313
  119OSM   C12F12608   0.759   1.276   9.501 -0.4264  0.2815 -0.4931
  119OSM   H12F12609   0.683   1.195   9.493  0.8211 -1.0494  0.6975
  119OSM   H12G12610   0.835   1.243   9.575  0.2896  0.3154 -1.1977
  119OSM   C13F12611   0.831   1.311   9.369 -0.3237 -0.2881 -0.6845
  119OSM   H13F12612   0.905   1.386   9.403 -0.1873 -1.3391  1.5336
  119OSM   H13G12613   0.746   1.355   9.313 -0.2246  2.1149  0.9157
  119OSM   C14F12614   0.893   1.199   9.288 -0.4408 -0.4022  0.4747
  119OSM   H14F12615   0.814   1.125   9.264 -0.1773 -0.7054  0.5431
  119OSM   H14G12616   0.969   1.143   9.347  2.8989  0.9492 -2.2049
  119OSM   C15F12617   0.969   1.256   9.169  0.0013  0.0643 -0.6796
  119OSM   H15F12618   1.066   1.297   9.204 -0.4482  0.2238  0.4439
  119OSM   H15G12619   0.902   1.332   9.123  0.4712 -0.0699 -1.5956
  119OSM   C16F12620   0.996   1.142   9.063 -0.2581 -0.2119  0.5705
  119OSM   H16F12621   0.908   1.078   9.041  0.2689 -0.8129  0.1766
  119OSM   H16G12622   1.081   1.079   9.096  0.4973  0.4007 -0.1713
  119OSM   C17F12623   1.023   1.218   8.930 -0.2636 -0.2513 -0.2710
  119OSM   H17F12624   0.923   1.265   8.916 -1.3912 -2.3531  0.2313
  119OSM   H17G12625   1.034   1.139   8.853 -1.8537 -0.0130 -0.7852
  119OSM   C18F12626   1.139   1.322   8.920 -0.2229  0.1320  0.6758
  119OSM   H18F12627   1.238   1.274   8.934 -0.5668 -1.2193 -1.1825
  119OSM   H18G12628   1.120   1.414   8.980  1.1609  1.4805 -0.8384
  119OSM   H18H12629   1.137   1.366   8.818  0.2974  2.0545  1.4427
  120OSM      N12630   0.925   0.597  10.765  0.3315 -0.1688  0.4568
  120OSM    C1512631   0.908   0.734  10.702  0.0447  0.3002  0.1188
  120OSM   H15A12632   0.921   0.804  10.783  2.0194  1.6265 -1.2529
  120OSM   H15B12633   0.810   0.739  10.655 -0.2699 -2.8753  0.1972
  120OSM   H15C12634   0.980   0.751  10.624 -0.8908  0.9769 -0.6263
  120OSM    C1412635   1.052   0.595  10.843 -0.2190 -0.2742 -0.1754
  120OSM   H14A12636   1.060   0.688  10.898 -0.0242 -0.9526  0.9907
  120OSM   H14B12637   1.134   0.598  10.774  0.8067  1.5269  1.0564
  120OSM   H14C12638   1.047   0.510  10.910 -3.4687 -1.3679 -1.5748
  120OSM    C1312639   0.806   0.569  10.854 -0.3408 -0.0920 -0.2153
  120OSM   H13A12640   0.827   0.478  10.908  1.7026  0.1464 -0.5461
  120OSM   H13B12641   0.718   0.563  10.791 -0.7035  0.9677  0.1722
  120OSM   H13C12642   0.781   0.646  10.925 -1.0840 -2.1056  1.8405
  120OSM    C1212643   0.927   0.483  10.651 -0.5331 -0.7006 -0.1973
  120OSM   H12A12644   0.933   0.387  10.702 -0.3581 -0.0357  1.0747
  120OSM   H12B12645   1.016   0.492  10.591 -0.5080 -0.2937 -0.1003
  120OSM    C1112646   0.801   0.485  10.554  0.2366  0.4923 -0.6047
  120OSM   H11A12647   0.825   0.414  10.471 -0.3455  0.4595 -0.7461
  120OSM   H11B12648   0.786   0.588  10.515 -0.7765  0.7124  0.3418
  120OSM      P12649   0.589   0.333  10.585  0.1291 -0.2286  0.6705
  120OSM    O1312650   0.663   0.208  10.604 -0.0250 -0.3050  0.6963
  120OSM    O1412651   0.465   0.351  10.667 -0.8104  0.1001  0.0498
  120OSM    O1112652   0.544   0.347  10.436 -0.0162  0.8403  0.6575
  120OSM    O1212653   0.680   0.454  10.613 -0.8870  0.0374 -0.7314
  120OSM    C1S12654   0.517   0.475  10.374  0.1400  0.3311 -0.3819
  120OSM    H1S12655   0.571   0.561  10.419  0.0960  0.2328 -0.1405
  120OSM    H1T12656   0.410   0.480  10.405  0.7808 -2.4913  2.9268
  120OSM     NF12657   0.511   0.607  10.159 -0.5060  0.2726 -0.8670
  120OSM    HNF12658   0.430   0.617  10.101 -1.0508  3.1147  0.2113
  120OSM    C2S12659   0.527   0.473  10.220  0.0086  0.0376 -0.3867
  120OSM    H2S12660   0.625   0.435  10.185  0.7578  1.1047  0.4806
  120OSM    C3S12661   0.418   0.368  10.169  0.2474 -0.1459  0.2976
  120OSM    H3S12662   0.315   0.404  10.191 -0.1528  0.8020 -2.6304
  120OSM     O312663   0.425   0.234  10.220 -0.9262 -0.1127  0.0754
  120OSM    HO312664   0.463   0.252  10.306 -2.0223 -2.3970  1.1171
  120OSM    C4S12665   0.421   0.335  10.022  0.1196 -0.1195  0.0178
  120OSM    H4S12666   0.500   0.270   9.982 -0.3282  1.3177 -3.5935
  120OSM    C5S12667   0.322   0.386   9.945  0.5584 -0.1019 -0.3384
  120OSM    H5S12668   0.248   0.461   9.976  0.4657  0.0443 -0.8989
  120OSM    C6S12669   0.319   0.356   9.795  0.1700  0.3079  0.1378
  120OSM    H6S12670   0.274   0.444   9.745  3.6568  1.8676 -0.5197
  120OSM    H6T12671   0.263   0.264   9.766  0.9023  0.0647 -0.5341
  120OSM    C7S12672   0.456   0.340   9.736 -0.3647  0.0050  0.7342
  120OSM    H7S12673   0.499   0.244   9.770 -0.5924  0.3038  1.8873
  120OSM    H7T12674   0.519   0.416   9.788  0.7489 -1.1667  1.1453
  120OSM    C8S12675   0.467   0.361   9.584  0.4433  0.0820 -0.7388
  120OSM    H8S12676   0.397   0.285   9.542 -0.7535  0.2550  0.8454
  120OSM    H8T12677   0.571   0.337   9.553  0.8389  0.6813  0.0801
  120OSM    C9S12678   0.438   0.502   9.535 -0.5918  0.0387  0.6396
  120OSM    H9S12679   0.507   0.566   9.593  1.1540 -0.4357 -0.8290
  120OSM    H9T12680   0.330   0.516   9.558 -0.2342 -0.2210  2.6553
  120OSM   C10S12681   0.455   0.505   9.382  0.1898  0.0102  0.3582
  120OSM   H10S12682   0.388   0.426   9.342  0.2932 -0.1001  0.4019
  120OSM   H10T12683   0.561   0.495   9.350  0.4743  1.8457  0.6259
  120OSM   C11S12684   0.422   0.643   9.318 -0.2471  0.4601  0.6000
  120OSM   H11S12685   0.489   0.725   9.351  0.7869 -0.2063  0.2202
  120OSM   H11T12686   0.317   0.664   9.344 -1.3681 -2.1060 -1.4280
  120OSM   C12S12687   0.430   0.611   9.169 -0.8053  0.0603  0.0236
  120OSM   H12S12688   0.379   0.513   9.154  0.5045 -0.6372  0.0225
  120OSM   H12T12689   0.532   0.596   9.130 -0.4080  2.1639  0.1260
  120OSM   C13S12690   0.351   0.705   9.077 -0.1540  0.3866 -0.1810
  120OSM   H13S12691   0.395   0.805   9.093 -0.9316  0.6488  0.4022
  120OSM   H13T12692   0.244   0.688   9.104 -0.2086 -0.5937 -0.9305
  120OSM   C14S12693   0.374   0.671   8.929  0.4199  0.1001  0.3000
  120OSM   H14S12694   0.327   0.576   8.895  1.3839 -0.3978  0.3235
  120OSM   H14T12695   0.483   0.671   8.907  0.6959 -0.7249  1.6017
  120OSM   C15S12696   0.311   0.774   8.841 -0.2424 -0.4101 -0.5016
  120OSM   H15S12697   0.321   0.874   8.888 -1.4163 -1.8159  3.1239
  120OSM   H15T12698   0.203   0.747   8.835 -0.2433 -2.6222  4.3310
  120OSM   C16S12699   0.377   0.758   8.703  0.5921 -0.0867 -0.2649
  120OSM   H16S12700   0.380   0.648   8.690  0.7274 -0.2153  0.7793
  120OSM   H16T12701   0.482   0.787   8.683  1.2127 -1.7177  0.4816
  120OSM   C17S12702   0.285   0.822   8.594 -0.0835  0.1388  0.1488
  120OSM   H17S12703   0.266   0.926   8.629  0.8111  0.2853  0.2110
  120OSM   H17T12704   0.184   0.776   8.590 -0.4508  1.0219 -1.4471
  120OSM   C18S12705   0.332   0.818   8.454  0.5359 -0.3196 -0.1317
  120OSM   H18S12706   0.276   0.888   8.388 -2.0347 -0.7068  1.5073
  120OSM   H18T12707   0.309   0.717   8.411 -2.1213  0.7415 -1.4442
  120OSM   H18U12708   0.441   0.836   8.449  0.4474  0.5157  0.7383
  120OSM    C1F12709   0.594   0.709  10.173 -0.4562 -0.1037 -0.0607
  120OSM     OF12710   0.707   0.705  10.216  0.2683 -0.0370  0.7132
  120OSM    C2F12711   0.532   0.833  10.121 -0.8381  0.4842  0.3961
  120OSM    H2F12712   0.535   0.900  10.210 -0.5850  0.3546  0.4857
  120OSM    H2G12713   0.430   0.826  10.078  0.1915  1.4545 -2.4043
  120OSM    C3F12714   0.607   0.895  10.002 -0.8763  0.1198  0.2367
  120OSM    H3F12715   0.708   0.919  10.041 -0.1350  0.4929 -1.8268
  120OSM    H3G12716   0.566   0.995   9.978  0.3785  0.0951 -2.2946
  120OSM    C4F12717   0.639   0.803   9.884 -0.8398  0.2654  0.9956
  120OSM    H4F12718   0.547   0.774   9.830  0.0256  2.8224 -2.1789
  120OSM    H4G12719   0.691   0.707   9.903 -1.8304 -0.5949 -0.5193
  120OSM    C5F12720   0.713   0.876   9.770 -0.0062 -0.5079  0.0649
  120OSM    H5F12721   0.811   0.904   9.815 -0.8050  0.3056  1.3664
  120OSM    H5G12722   0.672   0.976   9.749 -0.4957 -0.7740 -0.2616
  120OSM    C6F12723   0.725   0.784   9.644 -0.7138 -1.0059 -0.5971
  120OSM    H6F12724   0.625   0.776   9.596 -1.3157  0.6130  0.2864
  120OSM    H6G12725   0.753   0.683   9.679 -0.9875 -0.4203  1.4800
  120OSM    C7F12726   0.821   0.841   9.542 -0.5679  0.5973 -0.1271
  120OSM    H7F12727   0.918   0.844   9.595 -0.5991 -1.9256  0.2093
  120OSM    H7G12728   0.793   0.944   9.513  0.2691  0.7240 -0.4800
  120OSM    C8F12729   0.836   0.748   9.422  0.6785  1.2340 -0.1594
  120OSM    H8F12730   0.733   0.721   9.390  0.4745  2.0704 -0.2356
  120OSM    H8G12731   0.883   0.658   9.466 -1.9067  0.0109  0.2712
  120OSM    C9F12732   0.920   0.805   9.314 -0.7571 -0.2364  0.5112
  120OSM    H9F12733   1.015   0.851   9.345 -1.4270  1.5326  0.0602
  120OSM   C10F12734   0.896   0.794   9.182 -0.1947 -0.3295  0.1463
  120OSM   H10F12735   0.965   0.846   9.115 -1.0541 -0.1505 -0.6109
  120OSM   C11F12736   0.778   0.729   9.122  0.8074 -0.6186  0.1060
  120OSM   H11F12737   0.689   0.796   9.124  0.9479 -0.3409 -1.6737
  120OSM   H11G12738   0.749   0.641   9.183 -2.4054  0.3550  0.1570
  120OSM   C12F12739   0.810   0.690   8.978  0.0958 -0.4393 -0.2818
  120OSM   H12F12740   0.727   0.617   8.969  0.7033 -1.4059  1.4334
  120OSM   H12G12741   0.903   0.629   8.974  0.1858 -0.4348  1.0925
  120OSM   C13F12742   0.827   0.804   8.878 -0.5840 -0.0987  0.1323
  120OSM   H13F12743   0.923   0.852   8.905  0.1404 -0.3612 -1.7976
  120OSM   H13G12744   0.743   0.877   8.887 -0.1088  0.2317  2.3540
  120OSM   C14F12745   0.841   0.756   8.729 -0.2655 -0.0826 -0.3729
  120OSM   H14F12746   0.743   0.721   8.690 -0.2586 -1.3292  0.6561
  120OSM   H14G12747   0.909   0.668   8.727  2.0088  1.5195  1.3474
  120OSM   C15F12748   0.904   0.863   8.636  0.3039 -0.2467  0.2416
  120OSM   H15F12749   1.005   0.879   8.677  2.7452 -0.1462 -4.9600
  120OSM   H15G12750   0.844   0.956   8.639 -0.2003 -0.5514 -0.1197
  120OSM   C16F12751   0.919   0.813   8.488 -0.4470 -0.6398 -0.0772
  120OSM   H16F12752   0.818   0.814   8.442  0.1224  0.2395 -1.3485
  120OSM   H16G12753   0.963   0.711   8.479  0.4578 -0.2716  0.0165
  120OSM   C17F12754   1.002   0.910   8.400  0.2767  0.0040 -0.5692
  120OSM   H17F12755   1.107   0.907   8.438 -0.1499 -1.0105  0.6143
  120OSM   H17G12756   0.946   1.004   8.414  0.3423  0.2627 -1.9093
  120OSM   C18F12757   1.003   0.871   8.251  0.2240 -0.3974  0.4565
  120OSM   H18F12758   1.062   0.944   8.192 -2.1313  2.0496  0.8990
  120OSM   H18G12759   0.899   0.870   8.212  0.9678 -0.3539 -1.6381
  120OSM   H18H12760   1.054   0.773   8.244 -0.4980 -0.7136 -0.6967
  121OSM      N12761   5.758   2.266  10.985 -0.1638 -0.6466 -0.1567
  121OSM    C1512762   5.644   2.240  10.901  0.8663  0.0714  0.2049
  121OSM   H15A12763   5.550   2.251  10.953 -0.0344  1.6700 -1.6084
  121OSM   H15B12764   5.649   2.140  10.861 -1.8736 -1.5452  3.4124
  121OSM   H15C12765   5.627   2.316  10.825 -1.8137 -2.0576 -1.5352
  121OSM    C1412766   5.712   2.367  11.087 -0.0634 -0.1050 -0.0607
  121OSM   H14A12767   5.795   2.419  11.132 -0.9253  1.3937 -0.1236
  121OSM   H14B12768   5.666   2.307  11.165 -1.7793 -0.5050 -1.3171
  121OSM   H14C12769   5.652   2.439  11.034 -1.0601 -0.2996  0.7791
  121OSM    C1312770   5.779   2.135  11.060 -0.1508 -0.4697  0.4948
  121OSM   H13A12771   5.684   2.111  11.106 -2.5629  0.3812 -3.6065
  121OSM   H13B12772   5.857   2.134  11.136 -0.1395 -0.0396  0.4907
  121OSM   H13C12773   5.800   2.063  10.983 -1.2016  0.5778 -0.8122
  121OSM    C1212774   5.880   2.317  10.909 -0.1561  0.2552  0.7180
  121OSM   H12A12775   5.971   2.320  10.967  2.3287 -0.9225 -2.8141
  121OSM   H12B12776   5.869   2.414  10.864  1.7809 -0.5000 -1.5996
  121OSM    C1112777   5.933   2.245  10.775 -0.3543 -0.8869  0.1582
  121OSM   H11A12778   6.014   2.303  10.727 -1.8609  0.9380 -0.2759
  121OSM   H11B12779   5.852   2.245  10.700 -1.5120  0.9339  1.3394
  121OSM      P12780   6.108   2.075  10.872  0.2654  0.1051 -0.1274
  121OSM    O1312781   6.153   2.169  10.979 -0.5779  0.0704  0.0014
  121OSM    O1412782   6.110   1.929  10.918 -0.5131  0.6864 -0.0666
  121OSM    O1112783   6.210   2.083  10.749  0.3851 -0.1848  0.4095
  121OSM    O1212784   5.970   2.111  10.803  0.6639  0.2204  0.1673
  121OSM    C1S12785   6.212   1.987  10.637 -0.3963 -0.2229 -0.9378
  121OSM    H1S12786   6.167   1.890  10.666  0.0470  0.0234  0.7148
  121OSM    H1T12787   6.319   1.968  10.615  0.1473  0.5962  0.8011
  121OSM     NF12788   6.159   1.945  10.401 -0.8160  0.4202  0.1749
  121OSM    HNF12789   6.246   1.930  10.355 -0.9607 -1.1180  0.3513
  121OSM    C2S12790   6.154   2.052  10.504 -0.2476  0.1454 -0.7522
  121OSM    H2S12791   6.051   2.087  10.526 -1.1777 -2.5484 -0.3753
  121OSM    C3S12792   6.239   2.177  10.468 -0.3341 -0.0355 -0.2513
  121OSM    H3S12793   6.343   2.140  10.460 -0.0732 -0.1088  2.5432
  121OSM     O312794   6.249   2.268  10.571  0.1405 -0.0328 -0.0374
  121OSM    HO312795   6.226   2.215  10.648  1.5251 -2.1409 -0.9904
  121OSM    C4S12796   6.173   2.254  10.351  0.0697  0.9191 -0.2925
  121OSM    H4S12797   6.067   2.282  10.364  0.2026  0.6530  1.6893
  121OSM    C5S12798   6.241   2.291  10.239 -0.6867  0.1081 -0.1564
  121OSM    H5S12799   6.350   2.273  10.236 -0.7560 -0.1273 -2.5232
  121OSM    C6S12800   6.177   2.363  10.114 -0.3376  0.7933  0.2606
  121OSM    H6S12801   6.240   2.454  10.103  0.1836  0.7677  2.5059
  121OSM    H6T12802   6.076   2.397  10.143 -0.3395  1.3805 -0.4214
  121OSM    C7S12803   6.177   2.276   9.986 -0.4738  0.0180 -0.2526
  121OSM    H7S12804   6.115   2.321   9.906 -0.7201  0.2871  0.0885
  121OSM    H7T12805   6.124   2.183  10.014  1.1965 -0.5520  1.1737
  121OSM    C8S12806   6.314   2.237   9.930  0.6640  0.0505  0.9941
  121OSM    H8S12807   6.376   2.181  10.004  2.4618  2.2131  1.2205
  121OSM    H8T12808   6.367   2.333   9.912 -1.3806  0.6902 -2.3972
  121OSM    C9S12809   6.300   2.157   9.801 -0.3289 -0.2614 -0.5172
  121OSM    H9S12810   6.275   2.228   9.719 -0.1757 -1.6154 -1.7695
  121OSM    H9T12811   6.205   2.100   9.808 -1.4816  1.5389 -0.7797
  121OSM   C10S12812   6.431   2.082   9.771 -0.2237 -0.2983  0.7727
  121OSM   H10S12813   6.437   1.992   9.835  1.4804 -0.3773  0.5481
  121OSM   H10T12814   6.515   2.151   9.792 -0.9786  0.9775 -0.1848
  121OSM   C11S12815   6.444   2.041   9.618 -0.0996  0.3114 -0.3253
  121OSM   H11S12816   6.364   1.965   9.602  0.0663 -0.2188  1.1741
  121OSM   H11T12817   6.541   1.991   9.596 -1.6180 -3.2274  0.2505
  121OSM   C12S12818   6.440   2.151   9.513  0.0265  0.0010  0.2585
  121OSM   H12S12819   6.517   2.230   9.529 -1.6171  1.7198  0.1005
  121OSM   H12T12820   6.342   2.202   9.529 -0.9508 -0.3697 -3.5448
  121OSM   C13S12821   6.452   2.098   9.372  0.0740  0.1300 -0.6691
  121OSM   H13S12822   6.363   2.033   9.363  0.8153 -1.2834  1.5118
  121OSM   H13T12823   6.545   2.037   9.369 -0.4694 -0.6746 -3.1334
  121OSM   C14S12824   6.456   2.210   9.269  0.3875  0.3597 -0.3280
  121OSM   H14S12825   6.517   2.174   9.183 -0.0035  0.0714 -0.4886
  121OSM   H14T12826   6.522   2.285   9.317  0.2733 -0.0045  0.4099
  121OSM   C15S12827   6.321   2.292   9.243  0.6015 -0.0552  0.1373
  121OSM   H15S12828   6.286   2.341   9.337 -1.2339  3.4340 -2.1018
  121OSM   H15T12829   6.240   2.220   9.221  1.3542 -0.9253  0.1772
  121OSM   C16S12830   6.342   2.401   9.135 -0.1555 -0.6188  0.2606
  121OSM   H16S12831   6.438   2.447   9.169  0.4271 -0.4288 -1.5642
  121OSM   H16T12832   6.271   2.486   9.143 -1.0139 -1.4044  1.4808
  121OSM   C17S12833   6.353   2.351   8.992 -0.0542 -0.0176  0.2826
  121OSM   H17S12834   6.275   2.275   8.974 -0.5806 -0.5051  3.9018
  121OSM   H17T12835   6.453   2.306   8.977 -0.7133 -1.1493 -0.9904
  121OSM   C18S12836   6.333   2.460   8.878 -0.3473  0.4610 -0.5331
  121OSM   H18S12837   6.378   2.437   8.779  0.7676  1.3510 -0.2623
  121OSM   H18T12838   6.380   2.557   8.908  0.0447  0.4076 -0.9600
  121OSM   H18U12839   6.227   2.483   8.854 -0.6071 -0.9593 -0.8042
  121OSM    C1F12840   6.070   1.848  10.406  0.3267  0.4065  0.1509
  121OSM     OF12841   5.970   1.855  10.479 -1.1593 -0.6131  0.2000
  121OSM    C2F12842   6.092   1.721  10.317  0.4402  0.1231  0.0069
  121OSM    H2F12843   6.012   1.645  10.327 -1.2796  1.8670  0.1144
  121OSM    H2G12844   6.181   1.675  10.366  0.0621 -1.1866 -0.5214
  121OSM    C3F12845   6.131   1.740  10.169  0.7776 -0.6438  0.4467
  121OSM    H3F12846   6.151   1.644  10.119  1.0652 -0.2192 -0.2693
  121OSM    H3G12847   6.230   1.790  10.168 -0.1689  1.3593 -0.1946
  121OSM    C4F12848   6.032   1.834  10.092  0.2837 -0.0199  0.4099
  121OSM    H4F12849   6.013   1.928  10.147  3.8080  1.5850 -0.8068
  121OSM    H4G12850   5.933   1.788  10.071  0.3620  0.5552 -1.3957
  121OSM    C5F12851   6.085   1.874   9.957  0.3471 -0.3035 -0.2237
  121OSM    H5F12852   6.177   1.932   9.982  0.5177 -1.1246  1.1700
  121OSM    H5G12853   6.019   1.948   9.907  1.5764  1.4714  0.6531
  121OSM    C6F12854   6.107   1.756   9.862  0.0368  0.0126  0.4733
  121OSM    H6F12855   6.010   1.706   9.842  0.6232 -0.9591 -0.0146
  121OSM    H6G12856   6.176   1.677   9.898  0.2999 -1.3183 -2.6144
  121OSM    C7F12857   6.154   1.793   9.719  0.0353 -0.4910 -0.0786
  121OSM    H7F12858   6.238   1.726   9.693  0.3228 -0.2551  0.2324
  121OSM    H7G12859   6.200   1.893   9.731 -1.2530  0.0414  0.6692
  121OSM    C8F12860   6.047   1.798   9.612 -0.0760 -0.5114 -0.5241
  121OSM    H8F12861   5.948   1.820   9.658 -0.5695 -1.0534 -1.2984
  121OSM    H8G12862   6.016   1.702   9.564 -2.0423 -0.1640 -0.0302
  121OSM    C9F12863   6.069   1.904   9.507  0.2108  0.4597 -0.1152
  121OSM    H9F12864   5.998   1.987   9.518 -1.6427 -0.8525 -1.6779
  121OSM   C10F12865   6.155   1.893   9.406  0.6739 -0.0103  0.2994
  121OSM   H10F12866   6.166   1.983   9.343 -1.2893 -0.1551 -0.3064
  121OSM   C11F12867   6.246   1.776   9.371  0.3910 -0.8894  0.2356
  121OSM   H11F12868   6.230   1.691   9.441 -2.6072 -0.0074  0.7465
  121OSM   H11G12869   6.351   1.813   9.377  0.0883  0.4896 -1.8923
  121OSM   C12F12870   6.234   1.715   9.234  0.0849  0.5207  1.1454
  121OSM   H12F12871   6.131   1.684   9.209  0.4268  0.3401 -0.1083
  121OSM   H12G12872   6.300   1.626   9.236  0.5847  0.9004  1.7302
  121OSM   C13F12873   6.281   1.808   9.124  0.2001 -0.3868 -0.0457
  121OSM   H13F12874   6.385   1.846   9.131 -0.3043  1.2274 -0.6477
  121OSM   H13G12875   6.214   1.897   9.130 -1.2343 -1.4964  1.2400
  121OSM   C14F12876   6.272   1.749   8.987 -0.5151 -0.0569 -0.7365
  121OSM   H14F12877   6.187   1.678   8.997  0.3728 -0.7491  3.4547
  121OSM   H14G12878   6.366   1.695   8.963  0.2998  1.7651 -1.8692
  121OSM   C15F12879   6.255   1.855   8.878  0.2218  0.4978 -0.1367
  121OSM   H15F12880   6.167   1.917   8.905 -0.1920  0.4406 -1.2985
  121OSM   H15G12881   6.224   1.795   8.789 -2.0189 -2.2043  2.2608
  121OSM   C16F12882   6.372   1.947   8.842  0.2003 -0.1407  0.0079
  121OSM   H16F12883   6.466   1.891   8.826  0.7108 -0.5218  3.4541
  121OSM   H16G12884   6.400   2.015   8.926 -1.2169 -1.4127  1.5714
  121OSM   C17F12885   6.329   2.029   8.717 -0.0394 -0.1425 -0.3079
  121OSM   H17F12886   6.231   2.073   8.746  0.8811  0.5843  1.9104
  121OSM   H17G12887   6.315   1.947   8.643 -2.0368  0.5428 -0.7446
  121OSM   C18F12888   6.432   2.139   8.682  0.3614  0.2760 -0.0370
  121OSM   H18F12889   6.523   2.086   8.648  0.6365 -0.7012  2.0732
  121OSM   H18G12890   6.463   2.196   8.772  2.1200  0.1521 -0.5316
  121OSM   H18H12891   6.397   2.211   8.604 -1.5200 -1.2598 -0.6959
  122OSM      N12892   0.473   6.661  11.174 -0.0705 -0.3035  0.1408
  122OSM    C1512893   0.330   6.678  11.205  1.7084 -0.2380  0.1543
  122OSM   H15A12894   0.284   6.762  11.154  0.2437 -1.1272 -0.0203
  122OSM   H15B12895   0.315   6.692  11.311  0.5746 -0.8721  0.0918
  122OSM   H15C12896   0.277   6.594  11.164  4.0953 -1.3856 -0.7494
  122OSM    C1412897   0.551   6.757  11.257  0.5908 -0.0587 -0.2148
  122OSM   H14A12898   0.541   6.858  11.220 -1.8856 -0.1957 -0.1068
  122OSM   H14B12899   0.652   6.720  11.254  0.8541  0.7052 -1.6143
  122OSM   H14C12900   0.516   6.741  11.358 -0.7707  0.2622 -0.6234
  122OSM    C1312901   0.508   6.519  11.226  0.1974 -0.6976  0.1608
  122OSM   H13A12902   0.615   6.511  11.231  0.6060  3.4888  1.3784
  122OSM   H13B12903   0.462   6.449  11.157  0.2335 -0.2946 -0.2760
  122OSM   H13C12904   0.476   6.500  11.327  0.1270  1.1339  0.5053
  122OSM    C1212905   0.500   6.674  11.027 -0.0295  0.0834  0.0489
  122OSM   H12A12906   0.477   6.583  10.976  1.0315  0.5492 -1.3266
  122OSM   H12B12907   0.606   6.686  11.013  0.0746  0.3789  0.9739
  122OSM    C1112908   0.441   6.791  10.934 -0.4464  0.7089 -0.5323
  122OSM   H11A12909   0.521   6.803  10.857  2.1597 -0.8319  1.7460
  122OSM   H11B12910   0.454   6.882  10.995  0.8615 -1.4658  2.7088
  122OSM      P12911   0.263   6.663  10.804  0.1189  0.3104 -0.1018
  122OSM    O1312912   0.371   6.565  10.798  0.2945  0.5443  0.3157
  122OSM    O1412913   0.125   6.629  10.842  1.1464  0.2696 -0.0527
  122OSM    O1112914   0.247   6.746  10.668 -0.0450  0.1563  0.4385
  122OSM    O1212915   0.306   6.773  10.909 -0.1711  0.2911 -0.2497
  122OSM    C1S12916   0.346   6.764  10.570 -0.0346  0.3905 -0.1329
  122OSM    H1S12917   0.434   6.698  10.587  1.5535  2.1351 -1.0632
  122OSM    H1T12918   0.388   6.867  10.580 -0.2423  0.4960 -0.3423
  122OSM     NF12919   0.405   6.759  10.333 -0.1544  0.0479 -0.2598
  122OSM    HNF12920   0.426   6.846  10.289  1.9324 -0.9848 -1.4579
  122OSM    C2S12921   0.292   6.757  10.428 -0.0733 -0.0620 -0.0520
  122OSM    H2S12922   0.244   6.661  10.400  0.8505 -0.6852  0.4672
  122OSM    C3S12923   0.188   6.871  10.405 -0.1958  0.0661  0.2983
  122OSM    H3S12924   0.232   6.971  10.425  1.0088 -0.0947 -1.3187
  122OSM     O312925   0.089   6.881  10.503  0.5015  0.7877 -0.0782
  122OSM    HO312926   0.111   6.815  10.569 -2.5052 -1.3593 -1.0288
  122OSM    C4S12927   0.127   6.876  10.270 -0.1841 -0.0424 -0.1859
  122OSM    H4S12928   0.196   6.926  10.201 -1.4323  0.9403 -0.7683
  122OSM    C5S12929   0.008   6.819  10.228  0.2901 -0.1150 -0.9757
  122OSM    H5S12930  -0.060   6.769  10.298  1.6160 -0.0797  0.3752
  122OSM    C6S12931  -0.059   6.819  10.093  0.0352  0.8315  0.4916
  122OSM    H6S12932  -0.155   6.874  10.103 -0.1808  1.0599 -2.0888
  122OSM    H6T12933  -0.081   6.712  10.071  0.6703  1.2057 -2.2393
  122OSM    C7S12934   0.024   6.888   9.987 -0.1394 -0.0195  0.5873
  122OSM    H7S12935   0.122   6.838   9.971 -0.8461 -0.9087 -1.2392
  122OSM    H7T12936   0.045   6.996  10.004 -0.8843 -0.0541  1.8397
  122OSM    C8S12937  -0.056   6.891   9.853 -0.0776  0.0665 -0.6654
  122OSM    H8S12938  -0.157   6.933   9.870 -0.6698 -1.6657  0.2860
  122OSM    H8T12939  -0.078   6.786   9.825 -0.1802 -0.3592  0.9157
  122OSM    C9S12940   0.016   6.953   9.731 -0.6602 -0.1679 -0.0663
  122OSM    H9S12941   0.113   6.901   9.718  1.4340  2.9579  1.7281
  122OSM    H9T12942   0.050   7.056   9.757  4.5925 -1.5451 -0.3635
  122OSM   C10S12943  -0.063   6.956   9.606  0.1877 -0.7211  0.5711
  122OSM   H10S12944  -0.159   7.002   9.635  1.6938  1.9217  1.6557
  122OSM   H10T12945  -0.078   6.856   9.560  2.0119 -0.5899 -0.4343
  122OSM   C11S12946  -0.000   7.041   9.495 -0.1515  0.7121 -0.3225
  122OSM   H11S12947   0.104   7.010   9.475 -0.3513  1.5518 -3.0444
  122OSM   H11T12948   0.006   7.148   9.527 -3.9490  0.9781 -0.0176
  122OSM   C12S12949  -0.073   7.047   9.356 -0.5859  0.2657  0.2805
  122OSM   H12S12950  -0.176   7.085   9.371 -2.2918 -3.7853  0.2001
  122OSM   H12T12951  -0.094   6.943   9.322  0.8758 -0.3115  1.0572
  122OSM   C13S12952   0.003   7.120   9.251  0.4708 -0.8261  0.4953
  122OSM   H13S12953   0.096   7.065   9.225  1.7895  1.4015  0.2127
  122OSM   H13T12954   0.048   7.216   9.283  0.7804 -0.9865  0.5469
  122OSM   C14S12955  -0.074   7.136   9.117 -0.4863  0.4008  0.5535
  122OSM   H14S12956  -0.182   7.161   9.132 -0.9288 -1.3743  0.4761
  122OSM   H14T12957  -0.074   7.043   9.057 -0.6853  0.0288  1.1211
  122OSM   C15S12958  -0.014   7.251   9.035  0.0540  0.1531 -0.4524
  122OSM   H15S12959   0.082   7.207   9.003 -0.5376 -0.8702 -0.8693
  122OSM   H15T12960   0.004   7.337   9.103  0.9401 -1.0405  0.8876
  122OSM   C16S12961  -0.103   7.290   8.920 -0.6714  0.0784 -0.5249
  122OSM   H16S12962  -0.211   7.305   8.943 -1.0215 -0.2489 -1.8660
  122OSM   H16T12963  -0.113   7.207   8.847 -3.0820  1.8082 -2.3091
  122OSM   C17S12964  -0.052   7.410   8.849  0.5648  0.5251 -0.4457
  122OSM   H17S12965   0.052   7.381   8.823  0.6021 -0.7977  0.9986
  122OSM   H17T12966  -0.046   7.493   8.922  2.3325 -1.3715  1.7357
  122OSM   C18S12967  -0.128   7.453   8.729  0.3954  0.0149 -0.3509
  122OSM   H18S12968  -0.157   7.364   8.669 -0.4952 -1.1636  1.6786
  122OSM   H18T12969  -0.057   7.508   8.664 -0.4408 -0.5065 -1.7398
  122OSM   H18U12970  -0.221   7.509   8.753 -1.0240 -2.9565  1.8793
  122OSM    C1F12971   0.484   6.648  10.311  1.1245 -0.0428 -0.0923
  122OSM     OF12972   0.466   6.555  10.386 -0.1589  0.7842 -0.5847
  122OSM    C2F12973   0.577   6.642  10.197 -0.2896  0.2251 -0.0780
  122OSM    H2F12974   0.653   6.564  10.218 -1.3043 -0.6000  0.6196
  122OSM    H2G12975   0.622   6.743  10.189 -2.7396  1.3299 -0.6096
  122OSM    C3F12976   0.507   6.590  10.072 -0.3319 -0.3444  0.6152
  122OSM    H3F12977   0.434   6.667  10.042  1.9195  1.2317 -1.1905
  122OSM    H3G12978   0.462   6.493  10.104 -1.7419  0.7110  1.9922
  122OSM    C4F12979   0.603   6.572   9.955 -0.5710  0.3290 -0.3910
  122OSM    H4F12980   0.554   6.521   9.870 -0.9189  1.7725 -1.0930
  122OSM    H4G12981   0.702   6.530   9.984 -0.6124  2.0510  2.6715
  122OSM    C5F12982   0.647   6.712   9.905 -0.1131 -0.1323  0.3371
  122OSM    H5F12983   0.695   6.783   9.976  1.0163 -0.8286  0.2904
  122OSM    H5G12984   0.552   6.757   9.868 -0.5615 -0.6411  0.8356
  122OSM    C6F12985   0.739   6.701   9.783  0.4742  1.0633  0.0368
  122OSM    H6F12986   0.841   6.662   9.804  0.4342 -0.1996 -1.8694
  122OSM    H6G12987   0.761   6.795   9.729  0.1471  1.3738  0.4364
  122OSM    C7F12988   0.688   6.603   9.665 -0.4931  0.1008 -0.0902
  122OSM    H7F12989   0.589   6.638   9.629  0.8155  2.5671 -1.5447
  122OSM    H7G12990   0.693   6.500   9.707 -0.7175 -0.1554 -0.6840
  122OSM    C8F12991   0.773   6.616   9.537  0.4426  0.4589 -0.1932
  122OSM    H8F12992   0.870   6.661   9.565 -0.2512  1.5839  0.4970
  122OSM    H8G12993   0.733   6.694   9.469  0.4230  1.7743  1.2564
  122OSM    C9F12994   0.793   6.484   9.466 -0.0355 -0.2715 -0.0888
  122OSM    H9F12995   0.807   6.399   9.534 -1.5228 -2.5078 -2.4156
  122OSM   C10F12996   0.797   6.465   9.331 -0.0012 -0.1393  0.2055
  122OSM   H10F12997   0.805   6.361   9.297 -0.4817  0.3682 -1.5280
  122OSM   C11F12998   0.795   6.574   9.226 -0.5577  0.1602 -0.1987
  122OSM   H11F12999   0.726   6.657   9.253 -0.3074  0.8754 -1.6522
  122OSM   H11G13000   0.755   6.533   9.131 -2.7303 -1.6071  1.3740
  122OSM   C12F13001   0.939   6.633   9.203 -0.0439 -0.2479  0.4611
  122OSM   H12F13002   1.007   6.559   9.156  2.8927  2.0912  0.6992
  122OSM   H12G13003   0.992   6.670   9.294  0.9243  1.4296 -0.7182
  122OSM   C13F13004   0.940   6.745   9.095 -0.1589  0.6074 -0.4009
  122OSM   H13F13005   1.048   6.772   9.084  0.5182 -1.4980  0.5361
  122OSM   H13G13006   0.893   6.842   9.122 -0.8144 -0.1732  1.3404
  122OSM   C14F13007   0.888   6.712   8.954  0.4504 -0.1117 -0.4755
  122OSM   H14F13008   0.777   6.705   8.960  0.6003 -2.2812  0.8516
  122OSM   H14G13009   0.931   6.616   8.919  1.0497  0.7798 -2.3255
  122OSM   C15F13010   0.935   6.823   8.857  0.0516 -0.1296  0.3126
  122OSM   H15F13011   1.043   6.841   8.873  0.5042 -0.3433 -2.1569
  122OSM   H15G13012   0.874   6.915   8.868 -0.8023 -0.8557  2.0740
  122OSM   C16F13013   0.913   6.761   8.716  0.3957 -0.2428  0.3917
  122OSM   H16F13014   0.811   6.717   8.709  1.3499 -2.4237 -0.8701
  122OSM   H16G13015   0.986   6.678   8.712  0.8880  0.0449  2.3450
  122OSM   C17F13016   0.937   6.847   8.599 -0.6983 -0.0769 -0.2955
  122OSM   H17F13017   0.905   6.951   8.620 -2.5959 -0.8198  0.7802
  122OSM   H17G13018   0.871   6.794   8.528 -0.8107  0.0385 -0.2767
  122OSM   C18F13019   1.076   6.844   8.539  0.3463  0.1891  0.4896
  122OSM   H18F13020   1.083   6.892   8.439  0.0366  0.9002  0.7983
  122OSM   H18G13021   1.105   6.737   8.535 -2.2875 -0.6056  1.0788
  122OSM   H18H13022   1.139   6.895   8.615 -0.3548 -0.1128  1.2853
  123OSM      N13023   4.530   6.381   6.022 -0.2355  0.0347 -0.8663
  123OSM    C1513024   4.636   6.432   5.922  0.1098 -0.0201  0.4376
  123OSM   H15A13025   4.731   6.398   5.958 -0.0556 -0.4757  0.4558
  123OSM   H15B13026   4.643   6.539   5.928  3.0493 -0.1954  1.8413
  123OSM   H15C13027   4.617   6.383   5.827  2.8522 -0.8534  0.2498
  123OSM    C1413028   4.527   6.234   6.019  0.0968  0.6179  0.2467
  123OSM   H14A13029   4.519   6.197   5.918 -0.6289  0.1411  0.4705
  123OSM   H14B13030   4.450   6.187   6.079  0.9847  1.1761  1.8903
  123OSM   H14C13031   4.620   6.196   6.058 -0.4078 -2.7943 -1.4531
  123OSM    C1313032   4.575   6.425   6.160  0.1739 -0.4397  0.1470
  123OSM   H13A13033   4.507   6.373   6.226  0.3325 -0.7310  0.0827
  123OSM   H13B13034   4.568   6.533   6.164  1.1890 -0.3776  0.6697
  123OSM   H13C13035   4.674   6.399   6.193  0.0530  0.4839  1.2946
  123OSM    C1213036   4.390   6.434   5.990 -0.0622 -0.1044 -1.0050
  123OSM   H12A13037   4.320   6.397   6.062 -0.9168 -0.7704 -2.1359
  123OSM   H12B13038   4.352   6.405   5.893 -0.5518 -0.0034 -0.8443
  123OSM    C1113039   4.374   6.593   5.992 -0.4513 -0.0862  0.1499
  123OSM   H11A13040   4.266   6.621   5.984 -0.1765  0.9193 -0.1913
  123OSM   H11B13041   4.421   6.636   5.902 -0.9397 -2.8382 -1.5510
  123OSM      P13042   4.495   6.785   6.139  0.1849  0.1093  0.2014
  123OSM    O1313043   4.630   6.756   6.195 -0.8238  0.2382 -0.2207
  123OSM    O1413044   4.482   6.862   6.016  0.4945  0.0851  0.2374
  123OSM    O1113045   4.406   6.854   6.252  0.4137  0.9122  0.4443
  123OSM    O1213046   4.422   6.649   6.116 -0.4271  0.0303 -0.1739
  123OSM    C1S13047   4.389   6.782   6.381  0.3777 -0.0314  0.5052
  123OSM    H1S13048   4.378   6.671   6.371  4.0742 -0.4708  0.1803
  123OSM    H1T13049   4.298   6.821   6.431  0.3430  0.8620 -0.2356
  123OSM     NF13050   4.479   6.742   6.617  1.0365  0.6703  0.4102
  123OSM    HNF13051   4.433   6.776   6.699  0.6138  0.9011  0.0783
  123OSM    C2S13052   4.498   6.812   6.494 -0.3057  0.1479  0.1072
  123OSM    H2S13053   4.592   6.775   6.449 -0.7300 -0.1877 -0.5166
  123OSM    C3S13054   4.520   6.966   6.517 -0.1451  0.3387  0.6436
  123OSM    H3S13055   4.418   7.010   6.521 -0.1326  0.3490  0.8595
  123OSM     O313056   4.586   7.043   6.417  0.0535 -0.4872  0.0176
  123OSM    HO313057   4.571   6.987   6.341  1.5278 -1.2031  0.2172
  123OSM    C4S13058   4.598   7.002   6.641 -0.7435  0.8200 -0.1096
  123OSM    H4S13059   4.700   6.962   6.632 -0.8870 -0.2031  2.1086
  123OSM    C5S13060   4.562   7.085   6.738  0.4501  0.7012 -0.4787
  123OSM    H5S13061   4.457   7.118   6.741  0.1732 -0.2036  1.8493
  123OSM    C6S13062   4.635   7.134   6.858 -0.2029  0.5243 -0.6565
  123OSM    H6S13063   4.588   7.093   6.950 -1.7767  2.0635 -0.7193
  123OSM    H6T13064   4.629   7.244   6.872  1.8063  0.5014  0.7279
  123OSM    C7S13065   4.789   7.117   6.851  0.2051 -0.5527 -0.1212
  123OSM    H7S13066   4.824   7.160   6.755  1.2000 -0.4048  0.2873
  123OSM    H7T13067   4.813   7.010   6.871  1.3830  0.0062  1.6459
  123OSM    C8S13068   4.863   7.177   6.967  0.3844  0.2490 -0.0029
  123OSM    H8S13069   4.867   7.288   6.977  1.9289  0.1049  1.6214
  123OSM    H8T13070   4.966   7.136   6.974 -0.7980 -2.8074  1.2828
  123OSM    C9S13071   4.809   7.143   7.112 -0.6373  0.6543  0.4941
  123OSM    H9S13072   4.844   7.040   7.134  1.2385  1.6504  2.5326
  123OSM    H9T13073   4.698   7.152   7.115 -0.7183  0.1556 -0.4175
  123OSM   C10S13074   4.880   7.221   7.223  0.1878  0.2319 -0.2376
  123OSM   H10S13075   4.864   7.330   7.212  1.8995  0.4104 -1.2721
  123OSM   H10T13076   4.988   7.213   7.201  0.2154 -0.6410  0.1678
  123OSM   C11S13077   4.852   7.171   7.364 -0.1715 -0.9778  0.1748
  123OSM   H11S13078   4.884   7.066   7.377 -0.5440 -1.3163 -1.4883
  123OSM   H11T13079   4.745   7.193   7.386  0.9689  2.8903  3.1236
  123OSM   C12S13080   4.930   7.268   7.466  0.6491 -0.1404 -0.4133
  123OSM   H12S13081   4.918   7.373   7.433 -0.5144  0.0006  0.3888
  123OSM   H12T13082   5.039   7.250   7.458  0.5020 -1.1211 -0.3582
  123OSM   C13S13083   4.893   7.246   7.615  0.3823  0.4475  0.2945
  123OSM   H13S13084   4.784   7.226   7.610  0.1661  1.1452  1.8312
  123OSM   H13T13085   4.920   7.327   7.685 -0.9603  1.3714 -0.2117
  123OSM   C14S13086   4.948   7.117   7.672 -0.2934 -0.1399 -0.0341
  123OSM   H14S13087   5.053   7.101   7.640 -0.2297 -1.0231  0.5726
  123OSM   H14T13088   4.895   7.035   7.619 -0.4822  0.3186 -0.5579
  123OSM   C15S13089   4.942   7.106   7.826 -0.0235  0.2288  0.0235
  123OSM   H15S13090   4.836   7.102   7.862  0.0696 -0.0874  0.2735
  123OSM   H15T13091   4.986   7.201   7.861  0.6615  0.1977 -0.7472
  123OSM   C16S13092   5.022   6.993   7.886  0.8060  0.4704 -0.2449
  123OSM   H16S13093   5.131   6.998   7.862  0.9518 -2.2339 -0.5190
  123OSM   H16T13094   5.003   6.893   7.841  0.5797 -0.3203  1.5163
  123OSM   C17S13095   5.003   6.977   8.035 -0.4673  0.5756  0.5171
  123OSM   H17S13096   5.054   6.884   8.068  0.7964  1.0298 -0.0776
  123OSM   H17T13097   4.894   6.969   8.054 -0.4771  0.3607  0.3768
  123OSM   C18S13098   5.064   7.097   8.102  0.1006  0.1574  0.3514
  123OSM   H18S13099   5.165   7.111   8.058 -0.5090 -0.2025 -1.2495
  123OSM   H18T13100   5.061   7.094   8.213  0.7038 -1.8541  0.3449
  123OSM   H18U13101   5.017   7.193   8.072  1.1085  0.2680 -0.9919
  123OSM    C1F13102   4.499   6.612   6.621  0.0863  0.1747 -0.0230
  123OSM     OF13103   4.538   6.548   6.526  0.0183 -0.3769 -0.0904
  123OSM    C2F13104   4.471   6.541   6.748 -0.4948 -0.3659  0.2423
  123OSM    H2F13105   4.383   6.591   6.794 -1.1375 -2.2075  1.1248
  123OSM    H2G13106   4.551   6.559   6.822 -0.0142  0.2472 -0.4155
  123OSM    C3F13107   4.442   6.390   6.734 -0.4083  0.2080 -0.5507
  123OSM    H3F13108   4.528   6.344   6.680 -0.7340  0.4087 -1.2472
  123OSM    H3G13109   4.353   6.386   6.667 -1.8129  1.6199  1.1523
  123OSM    C4F13110   4.415   6.327   6.872 -0.4349  0.5618 -0.5634
  123OSM    H4F13111   4.307   6.308   6.884  0.3106 -3.2581  1.4829
  123OSM    H4G13112   4.445   6.402   6.949 -3.7244  0.4034  1.0515
  123OSM    C5F13113   4.496   6.193   6.883 -0.0968  0.0215 -0.2088
  123OSM    H5F13114   4.601   6.218   6.859 -0.2634  0.8768 -0.0788
  123OSM    H5G13115   4.442   6.131   6.808 -0.5856  0.2072 -0.0208
  123OSM    C6F13116   4.491   6.135   7.025 -0.4752  0.2128  0.3288
  123OSM    H6F13117   4.512   6.027   7.014  1.4336  0.4717  1.0761
  123OSM    H6G13118   4.395   6.162   7.074  1.0245  0.6498  3.2468
  123OSM    C7F13119   4.604   6.196   7.105  0.1880  0.2724  0.6954
  123OSM    H7F13120   4.590   6.300   7.142  1.4885 -0.1359  2.4994
  123OSM    H7G13121   4.702   6.175   7.058 -0.2484  0.4423 -0.3065
  123OSM    C8F13122   4.619   6.112   7.239  0.5494  0.0510 -0.0014
  123OSM    H8F13123   4.720   6.130   7.280  0.2911  0.5038  0.4601
  123OSM    H8G13124   4.604   6.006   7.209  2.1918 -0.1336 -0.2344
  123OSM    C9F13125   4.508   6.143   7.345  0.8082  0.0092 -0.3996
  123OSM    H9F13126   4.404   6.146   7.309  1.3118  0.0820 -1.9146
  123OSM   C10F13127   4.521   6.181   7.474 -0.2661 -0.5222  0.5464
  123OSM   H10F13128   4.436   6.193   7.543 -0.1284  1.3613  0.4434
  123OSM   C11F13129   4.654   6.200   7.539 -0.2872  0.6997 -0.4104
  123OSM   H11F13130   4.717   6.252   7.464 -2.3450 -0.7432 -3.3486
  123OSM   H11G13131   4.695   6.100   7.563 -0.9602  0.3291 -0.7608
  123OSM   C12F13132   4.648   6.281   7.667  0.0034 -0.1172 -0.5057
  123OSM   H12F13133   4.620   6.387   7.646  0.0408 -0.0715 -0.3250
  123OSM   H12G13134   4.748   6.292   7.713 -1.0542  1.6901  1.5750
  123OSM   C13F13135   4.549   6.224   7.780  0.1661 -0.1087  0.1139
  123OSM   H13F13136   4.443   6.244   7.754  0.5771 -0.3406 -1.9611
  123OSM   H13G13137   4.572   6.294   7.863 -1.1896 -1.9575  2.1401
  123OSM   C14F13138   4.583   6.089   7.835  0.4847 -0.5464  0.2051
  123OSM   H14F13139   4.671   6.055   7.775 -1.0203  2.5078 -4.2369
  123OSM   H14G13140   4.500   6.020   7.813  0.0057  0.1244 -0.1349
  123OSM   C15F13141   4.619   6.101   7.987  0.9404  0.0979  0.4134
  123OSM   H15F13142   4.607   5.998   8.028 -1.1078 -0.5936 -1.6874
  123OSM   H15G13143   4.550   6.170   8.040 -0.3390 -1.2365  0.5461
  123OSM   C16F13144   4.758   6.157   8.016 -0.1703  0.4851  0.3189
  123OSM   H16F13145   4.759   6.263   7.982 -3.4998  0.5588  0.0973
  123OSM   H16G13146   4.834   6.102   7.957  0.0287  1.0697  0.0236
  123OSM   C17F13147   4.788   6.153   8.164  0.1914  0.2823 -0.0701
  123OSM   H17F13148   4.898   6.152   8.180  0.0191  0.2667  1.1846
  123OSM   H17G13149   4.758   6.058   8.213  2.8481  0.2184  1.6650
  123OSM   C18F13150   4.721   6.267   8.246  0.3884  0.1131  0.1252
  123OSM   H18F13151   4.776   6.363   8.236 -0.2852  0.4439 -0.4307
  123OSM   H18G13152   4.724   6.245   8.355  4.1952  0.6011  0.2662
  123OSM   H18H13153   4.618   6.287   8.210  0.1978 -1.2060 -0.1506
  124OSM      N13154   5.071   4.686   6.094  0.1668 -0.2570 -0.1809
  124OSM    C1513155   4.981   4.792   6.047 -0.1045 -0.0207 -0.3129
  124OSM   H15A13156   4.974   4.803   5.939  3.9248  2.1762 -0.5555
  124OSM   H15B13157   5.017   4.883   6.093  0.5950 -0.6556  0.4083
  124OSM   H15C13158   4.885   4.779   6.095 -0.6399 -0.1105 -1.3743
  124OSM    C1413159   5.009   4.560   6.044  0.1418  0.0451 -0.3006
  124OSM   H14A13160   5.015   4.557   5.937 -1.1932 -0.4783 -0.3789
  124OSM   H14B13161   4.905   4.552   6.070  0.5613 -0.4069  1.4339
  124OSM   H14C13162   5.053   4.474   6.093  0.1623  0.9931  1.4526
  124OSM    C1313163   5.211   4.706   6.034 -0.9128 -0.3581 -0.2992
  124OSM   H13A13164   5.204   4.704   5.926  0.6098  5.1028 -0.7624
  124OSM   H13B13165   5.277   4.626   6.062  0.3738 -0.4028 -3.1637
  124OSM   H13C13166   5.260   4.799   6.058  0.6589 -0.9144 -1.1852
  124OSM    C1213167   5.070   4.690   6.243 -0.0632 -0.0900 -0.4790
  124OSM   H12A13168   5.151   4.629   6.280 -1.7356 -1.3867  1.1812
  124OSM   H12B13169   4.981   4.643   6.281  1.1483 -1.2476  1.0837
  124OSM    C1113170   5.076   4.841   6.315 -0.4887  0.4448 -0.3515
  124OSM   H11A13171   5.072   4.822   6.424  1.4122  0.9751 -0.1572
  124OSM   H11B13172   4.980   4.892   6.295 -0.6909  1.2220  2.2395
  124OSM      P13173   5.161   5.065   6.230 -0.3168  0.3635 -0.1014
  124OSM    O1313174   5.291   5.099   6.169 -0.0596 -0.0219 -0.0752
  124OSM    O1413175   5.040   5.078   6.147  0.1664  0.0861  0.4221
  124OSM    O1113176   5.148   5.147   6.360  0.1695  0.7458  0.3191
  124OSM    O1213177   5.179   4.921   6.275  0.2272  0.4030 -0.0287
  124OSM    C1S13178   5.232   5.106   6.471  0.7304  0.3304 -0.0566
  124OSM    H1S13179   5.318   5.176   6.467 -1.4858  3.2211 -0.7505
  124OSM    H1T13180   5.268   5.001   6.470  1.0484  0.4392 -0.3689
  124OSM     NF13181   5.269   5.105   6.713  0.4479  0.4243  0.1647
  124OSM    HNF13182   5.277   5.011   6.746 -0.5298 -0.0290 -0.8119
  124OSM    C2S13183   5.163   5.126   6.614 -0.4449  0.2817 -0.0396
  124OSM    H2S13184   5.146   5.236   6.621  0.0234  0.3411  0.2587
  124OSM    C3S13185   5.035   5.049   6.639 -0.1603  0.8003  0.1531
  124OSM    H3S13186   5.061   4.941   6.646 -0.7668  0.7492  2.0440
  124OSM     O313187   4.942   5.047   6.532  0.2759  0.0165  0.4423
  124OSM    HO313188   4.990   5.078   6.455  0.2811 -1.5028 -0.2135
  124OSM    C4S13189   4.969   5.082   6.769  0.1520  0.2049  0.5198
  124OSM    H4S13190   4.950   5.190   6.774  0.4041  0.2618  0.2696
  124OSM    C5S13191   4.930   4.992   6.864  0.0087 -0.2468  0.2044
  124OSM    H5S13192   4.951   4.884   6.859  0.5667 -0.1780  0.8566
  124OSM    C6S13193   4.859   5.035   6.995  0.1765  0.1467  0.6509
  124OSM    H6S13194   4.766   4.977   7.010  0.2451  0.2592  1.6021
  124OSM    H6T13195   4.825   5.140   6.979 -1.8792 -0.8687 -2.5516
  124OSM    C7S13196   4.950   5.016   7.115 -0.4836 -1.2079 -0.6722
  124OSM    H7S13197   5.039   5.081   7.100 -1.1525  0.3601  1.6078
  124OSM    H7T13198   4.981   4.910   7.121  0.2108 -0.9125  2.0416
  124OSM    C8S13199   4.875   5.070   7.240  0.0524 -0.1802  0.6584
  124OSM    H8S13200   4.792   4.997   7.251  0.9996 -1.7122 -1.6541
  124OSM    H8T13201   4.824   5.167   7.221 -0.0213 -0.0442  1.4955
  124OSM    C9S13202   4.959   5.076   7.364 -0.3697  0.5172  0.6962
  124OSM    H9S13203   5.050   5.135   7.338 -1.7728  1.4987 -2.6110
  124OSM    H9T13204   4.980   4.975   7.404 -2.3632 -0.0958  0.2923
  124OSM   C10S13205   4.879   5.145   7.480  0.4365  0.4787  0.0657
  124OSM   H10S13206   4.782   5.094   7.496  1.2580 -0.8055  1.1561
  124OSM   H10T13207   4.851   5.250   7.456  1.8500  0.6883 -0.8099
  124OSM   C11S13208   4.954   5.136   7.614 -0.0042 -0.4311  0.8988
  124OSM   H11S13209   5.054   5.183   7.605 -0.6099  1.5152  3.0561
  124OSM   H11T13210   4.968   5.030   7.642  1.1639 -1.0303 -1.7248
  124OSM   C12S13211   4.867   5.201   7.717  0.4057  0.4469  0.6010
  124OSM   H12S13212   4.764   5.164   7.702  0.5455  0.0918  0.5218
  124OSM   H12T13213   4.847   5.309   7.698 -1.9842 -0.0256  0.1551
  124OSM   C13S13214   4.918   5.191   7.865  0.7367 -0.0937  0.0319
  124OSM   H13S13215   5.013   5.247   7.877  0.1994  0.7016  0.6178
  124OSM   H13T13216   4.931   5.083   7.888 -0.4215  0.2768  2.9909
  124OSM   C14S13217   4.812   5.247   7.967  0.5791  0.2437  0.6011
  124OSM   H14S13218   4.729   5.174   7.963  1.5515 -1.0693  2.3383
  124OSM   H14T13219   4.782   5.351   7.943  0.6824  0.5314  1.6425
  124OSM   C15S13220   4.866   5.254   8.107 -0.1958 -0.6752  0.3264
  124OSM   H15S13221   4.921   5.348   8.129  0.6842 -0.7239 -1.4265
  124OSM   H15T13222   4.939   5.171   8.115  2.9698  1.8139 -0.2932
  124OSM   C16S13223   4.762   5.226   8.215  0.5083  0.0481 -0.0132
  124OSM   H16S13224   4.710   5.129   8.196 -3.8707  2.0145  0.6213
  124OSM   H16T13225   4.685   5.304   8.200  0.4313 -0.2968 -1.6928
  124OSM   C17S13226   4.812   5.224   8.358  0.1762 -0.3337 -0.5834
  124OSM   H17S13227   4.869   5.317   8.377 -0.8354  0.4416 -1.2674
  124OSM   H17T13228   4.889   5.145   8.371  1.2812  0.6776 -0.8000
  124OSM   C18S13229   4.710   5.203   8.466 -0.1136  0.6318  0.9935
  124OSM   H18S13230   4.653   5.110   8.445 -0.2117  0.6504  1.1806
  124OSM   H18T13231   4.641   5.290   8.467  0.4393  1.2779 -2.6410
  124OSM   H18U13232   4.758   5.197   8.566  0.2303  0.3787  0.8156
  124OSM    C1F13233   5.357   5.194   6.758  0.1022 -0.1397  0.3481
  124OSM     OF13234   5.345   5.315   6.742 -0.3895  0.1382  0.4976
  124OSM    C2F13235   5.469   5.137   6.835 -0.2545 -0.1223 -0.1140
  124OSM    H2F13236   5.517   5.051   6.784 -0.9562 -0.6940  0.1776
  124OSM    H2G13237   5.445   5.095   6.935  1.1571 -0.8520 -0.0480
  124OSM    C3F13238   5.576   5.247   6.851 -0.1734  0.6991 -0.2439
  124OSM    H3F13239   5.535   5.342   6.892  1.1516  0.7590  1.0513
  124OSM    H3G13240   5.610   5.265   6.747  1.6963 -0.1665  0.1748
  124OSM    C4F13241   5.701   5.199   6.917 -0.2504 -0.3023  0.0236
  124OSM    H4F13242   5.728   5.103   6.868 -1.0127  0.0747 -1.1631
  124OSM    H4G13243   5.676   5.174   7.022  2.1774 -2.0476  0.2787
  124OSM    C5F13244   5.819   5.291   6.906 -0.6152 -0.6184  0.1952
  124OSM    H5F13245   5.865   5.282   6.805  0.4965  3.1939  0.2070
  124OSM    H5G13246   5.903   5.255   6.970 -0.5001  1.6756  1.4295
  124OSM    C6F13247   5.787   5.433   6.950 -0.1113 -0.4823 -0.1725
  124OSM    H6F13248   5.703   5.471   6.888 -0.0230 -0.1791 -0.1058
  124OSM    H6G13249   5.876   5.499   6.945  0.2903 -1.0074 -0.1040
  124OSM    C7F13250   5.729   5.442   7.092  0.3032  0.0119  0.2244
  124OSM    H7F13251   5.644   5.371   7.107  0.5336 -0.2638  0.2507
  124OSM    H7G13252   5.682   5.540   7.112 -0.7829 -0.4253 -0.1351
  124OSM    C8F13253   5.844   5.420   7.198  0.2259  0.0352  0.1742
  124OSM    H8F13254   5.931   5.482   7.168 -1.5309  1.7476 -1.7676
  124OSM    H8G13255   5.894   5.322   7.199 -0.9814 -0.6069 -0.1297
  124OSM    C9F13256   5.794   5.469   7.329  0.2550 -0.4220  0.1234
  124OSM    H9F13257   5.773   5.576   7.338  2.6896  0.0921  0.1797
  124OSM   C10F13258   5.742   5.383   7.419 -0.4282 -0.1384 -0.0393
  124OSM   H10F13259   5.720   5.429   7.517 -0.1006 -0.6377  0.2732
  124OSM   C11F13260   5.728   5.232   7.410  0.3746 -0.1565 -0.0253
  124OSM   H11F13261   5.768   5.198   7.312 -1.3932  3.5100 -2.2339
  124OSM   H11G13262   5.623   5.195   7.406 -0.0897  1.2197 -2.0547
  124OSM   C12F13263   5.802   5.163   7.525  0.7396  0.8994 -0.2241
  124OSM   H12F13264   5.895   5.218   7.551  1.0830  0.9394 -1.4629
  124OSM   H12G13265   5.833   5.065   7.483 -2.2322 -0.9160  1.4642
  124OSM   C13F13266   5.716   5.118   7.651 -0.0918 -0.0540 -0.0963
  124OSM   H13F13267   5.636   5.052   7.611 -2.1475  1.5070  1.2422
  124OSM   H13G13268   5.668   5.202   7.706  1.2361  1.3623 -1.0221
  124OSM   C14F13269   5.807   5.048   7.755 -0.7359  0.5497  0.9281
  124OSM   H14F13270   5.895   5.112   7.774 -0.7784  0.2452  2.1938
  124OSM   H14G13271   5.851   4.957   7.710 -0.7372  0.5918  0.8413
  124OSM   C15F13272   5.729   5.013   7.885  0.4949 -0.0101  0.0594
  124OSM   H15F13273   5.786   4.936   7.941  0.4532 -0.9354 -1.1271
  124OSM   H15G13274   5.626   4.972   7.869 -0.3280  1.7497  0.5763
  124OSM   C16F13275   5.701   5.136   7.971  0.1074 -0.7767  0.0618
  124OSM   H16F13276   5.632   5.117   8.056 -0.6664  0.9120 -0.1418
  124OSM   H16G13277   5.642   5.207   7.908  0.2040 -0.3291  0.4695
  124OSM   C17F13278   5.828   5.187   8.039 -0.0194  0.3310  0.1661
  124OSM   H17F13279   5.799   5.283   8.088 -1.6058  0.7544 -1.5023
  124OSM   H17G13280   5.905   5.208   7.962  0.3405 -1.7128 -0.0826
  124OSM   C18F13281   5.883   5.088   8.151  0.4283  0.0810 -0.2666
  124OSM   H18F13282   5.963   5.142   8.206 -0.9261  0.0545  1.8358
  124OSM   H18G13283   5.915   4.992   8.106  1.3063 -0.4314  1.3594
  124OSM   H18H13284   5.800   5.063   8.221 -1.3608  0.6616 -2.0613
  125OSM      N13285   6.152   5.089   6.526 -0.0362 -0.4327  0.5695
  125OSM    C1513286   6.099   5.195   6.441  0.5436 -0.1687 -0.7266
  125OSM   H15A13287   6.177   5.269   6.429  1.2428 -1.0500 -1.7750
  125OSM   H15B13288   6.016   5.251   6.480  0.9368 -0.5078  0.6623
  125OSM   H15C13289   6.064   5.159   6.346 -1.4882  0.5432 -0.2966
  125OSM    C1413290   6.192   5.145   6.652  0.4306  0.0870  0.3649
  125OSM   H14A13291   6.218   5.080   6.734 -0.0694  0.7294  1.0546
  125OSM   H14B13292   6.115   5.216   6.681 -1.7977 -0.7834 -2.9040
  125OSM   H14C13293   6.282   5.204   6.649  0.2554  0.4663  1.7239
  125OSM    C1313294   6.049   4.993   6.560  0.6864  0.2078 -0.3361
  125OSM   H13A13295   6.001   4.954   6.471 -2.6755  1.5193  0.7698
  125OSM   H13B13296   5.981   5.056   6.614  3.2241  0.5024  2.8195
  125OSM   H13C13297   6.088   4.909   6.616 -0.3301  0.8501  1.3983
  125OSM    C1213298   6.279   5.024   6.471 -0.6345  0.6689  0.1173
  125OSM   H12A13299   6.297   4.925   6.512 -0.6923  0.5642 -0.1098
  125OSM   H12B13300   6.366   5.082   6.499 -0.3945 -0.7005  2.4745
  125OSM    C1113301   6.290   5.009   6.320 -0.1731  0.1302  0.3514
  125OSM   H11A13302   6.196   4.954   6.295 -0.3982  1.5945 -2.4854
  125OSM   H11B13303   6.376   4.949   6.286 -0.2525  1.0599 -1.6307
  125OSM      P13304   6.397   5.232   6.218  0.1148 -0.4924  0.0121
  125OSM    O1313305   6.471   5.197   6.090 -0.3538  0.3831  0.2065
  125OSM    O1413306   6.323   5.359   6.218 -1.0124  0.0007 -0.1248
  125OSM    O1113307   6.498   5.229   6.336 -0.0324 -0.1793  0.4655
  125OSM    O1213308   6.286   5.128   6.245 -0.1758  0.7623 -0.7533
  125OSM    C1S13309   6.527   5.361   6.407  0.2813  0.3044  0.2505
  125OSM    H1S13310   6.437   5.380   6.468  1.8887 -0.8640  3.1715
  125OSM    H1T13311   6.551   5.447   6.341 -0.9038 -0.1245 -0.7847
  125OSM     NF13312   6.626   5.452   6.604 -0.7778  0.6463 -0.6367
  125OSM    HNF13313   6.686   5.531   6.612 -2.3924  1.7104  3.5834
  125OSM    C2S13314   6.645   5.343   6.501  0.7484 -1.1079 -0.7792
  125OSM    H2S13315   6.634   5.244   6.550  0.4230 -0.9877 -0.6025
  125OSM    C3S13316   6.782   5.343   6.424 -0.3294 -0.6172  0.1307
  125OSM    H3S13317   6.791   5.436   6.365 -2.4390  0.9013  2.0293
  125OSM     O313318   6.804   5.236   6.338 -0.6879  0.1054  0.0092
  125OSM    HO313319   6.724   5.184   6.326  1.0781 -2.5464 -1.1598
  125OSM    C4S13320   6.890   5.353   6.532  0.0670  0.0794  0.4065
  125OSM    H4S13321   6.907   5.457   6.565 -0.1832  0.6553 -1.2104
  125OSM    C5S13322   6.962   5.250   6.591  0.1213 -0.5038  0.4053
  125OSM    H5S13323   6.949   5.148   6.551  1.8947 -0.9465  0.9062
  125OSM    C6S13324   7.061   5.269   6.703 -0.3257 -0.5057 -0.2123
  125OSM    H6S13325   7.099   5.373   6.699  1.5605 -1.1535  0.0605
  125OSM    H6T13326   7.151   5.205   6.688 -0.7472 -1.2334  0.2767
  125OSM    C7S13327   7.001   5.246   6.847  0.6287 -0.7842  0.2018
  125OSM    H7S13328   6.991   5.137   6.864 -0.8625 -1.1469 -2.4500
  125OSM    H7T13329   6.893   5.270   6.859  0.6205 -1.2697  1.1997
  125OSM    C8S13330   7.084   5.321   6.957  0.5025 -0.5779  0.0242
  125OSM    H8S13331   7.092   5.429   6.933 -0.6081 -0.1251  1.5594
  125OSM    H8T13332   7.180   5.267   6.973  0.0211 -1.9077 -1.3484
  125OSM    C9S13333   7.026   5.326   7.097 -0.0671  0.5118  0.1575
  125OSM    H9S13334   6.995   5.223   7.123 -0.8645  0.7905  0.3676
  125OSM    H9T13335   6.936   5.392   7.104 -1.1624 -1.1456  3.3883
  125OSM   C10S13336   7.134   5.364   7.196 -0.2734  0.3963 -0.6528
  125OSM   H10S13337   7.136   5.475   7.198 -1.5680  0.4248  0.0563
  125OSM   H10T13338   7.231   5.321   7.163 -0.7640 -0.1062 -1.4525
  125OSM   C11S13339   7.107   5.310   7.340 -0.1658  0.1081  0.1366
  125OSM   H11S13340   7.107   5.199   7.337 -1.2733  0.1015 -2.2727
  125OSM   H11T13341   7.005   5.342   7.370  0.3783  0.2460  1.9554
  125OSM   C12S13342   7.209   5.353   7.447 -0.3831  0.5042 -0.1598
  125OSM   H12S13343   7.247   5.456   7.432 -1.4361  0.6199 -2.4323
  125OSM   H12T13344   7.291   5.278   7.445 -0.1978  0.6932  0.2995
  125OSM   C13S13345   7.152   5.355   7.589  0.1535  0.0799  0.4096
  125OSM   H13S13346   7.111   5.252   7.593  1.3831 -0.4801 -0.5612
  125OSM   H13T13347   7.075   5.434   7.591 -0.5180 -0.5793  1.4321
  125OSM   C14S13348   7.254   5.380   7.686  0.0542 -0.0662  0.1096
  125OSM   H14S13349   7.306   5.472   7.652  2.4190 -1.2366  0.3519
  125OSM   H14T13350   7.327   5.296   7.688  0.2024 -0.0607 -2.3640
  125OSM   C15S13351   7.212   5.411   7.830  0.2741  0.2494 -0.7464
  125OSM   H15S13352   7.146   5.328   7.863  0.5147  0.3146 -0.1009
  125OSM   H15T13353   7.146   5.500   7.843  0.2514 -0.2073  3.7555
  125OSM   C16S13354   7.333   5.441   7.924  0.1059 -0.4012 -0.2586
  125OSM   H16S13355   7.377   5.531   7.875 -1.0559  0.6443  0.5393
  125OSM   H16T13356   7.408   5.360   7.919  0.0810 -0.4535  0.2461
  125OSM   C17S13357   7.289   5.474   8.065  0.6010 -0.3311  0.0519
  125OSM   H17S13358   7.206   5.547   8.069 -0.6182 -1.7154  1.4530
  125OSM   H17T13359   7.366   5.528   8.123 -0.6273  2.3133 -0.6534
  125OSM   C18S13360   7.259   5.351   8.145 -0.0133 -0.6707 -0.2534
  125OSM   H18S13361   7.210   5.380   8.240 -0.6004  1.2818 -1.0942
  125OSM   H18T13362   7.350   5.293   8.172  0.3815  1.1960  2.9214
  125OSM   H18U13363   7.187   5.288   8.089 -0.6305  2.2608 -3.0657
  125OSM    C1F13364   6.523   5.440   6.690 -0.0580  0.0016 -0.0397
  125OSM     OF13365   6.464   5.333   6.697 -0.1052  0.0657  0.0317
  125OSM    C2F13366   6.475   5.548   6.776  0.4373 -0.9254  0.1810
  125OSM    H2F13367   6.392   5.603   6.727  0.8523 -1.3183 -1.0136
  125OSM    H2G13368   6.566   5.609   6.794 -0.3181  0.4656 -0.5534
  125OSM    C3F13369   6.420   5.506   6.915  0.0554  0.3568 -0.0441
  125OSM    H3F13370   6.506   5.472   6.978 -2.3847 -1.0268  2.8079
  125OSM    H3G13371   6.342   5.428   6.904 -1.2857  1.1870  2.8319
  125OSM    C4F13372   6.360   5.627   6.985  0.1004  0.7111  0.3277
  125OSM    H4F13373   6.274   5.668   6.927 -0.4425  2.6301  2.3263
  125OSM    H4G13374   6.440   5.700   7.010  0.0736  0.1074  2.4289
  125OSM    C5F13375   6.310   5.594   7.130 -0.2595 -0.0040 -0.1437
  125OSM    H5F13376   6.398   5.565   7.191 -2.0456 -4.0089  0.8364
  125OSM    H5G13377   6.235   5.514   7.115  0.7077 -1.2120  1.1564
  125OSM    C6F13378   6.252   5.718   7.208  0.1939  0.0790  0.1677
  125OSM    H6F13379   6.180   5.775   7.146  0.7099  2.7493  1.8784
  125OSM    H6G13380   6.340   5.784   7.222  0.4665 -0.5611  1.6881
  125OSM    C7F13381   6.200   5.707   7.354 -0.0009 -0.0093 -0.1428
  125OSM    H7F13382   6.094   5.674   7.355 -0.0280 -0.0181 -1.5361
  125OSM    H7G13383   6.202   5.805   7.406 -4.1813 -0.7323  1.8230
  125OSM    C8F13384   6.273   5.616   7.451  0.2042  0.8959 -0.6331
  125OSM    H8F13385   6.276   5.513   7.408  0.2204  1.7306 -2.7449
  125OSM    H8G13386   6.214   5.608   7.545 -0.9811  0.8417 -1.3742
  125OSM    C9F13387   6.414   5.649   7.469  0.0368  0.1708  0.0944
  125OSM    H9F13388   6.478   5.594   7.398 -2.0495  1.0398 -2.6169
  125OSM   C10F13389   6.464   5.734   7.557  0.2823 -1.1832 -0.0976
  125OSM   H10F13390   6.574   5.742   7.549  0.1722 -0.7953 -1.4152
  125OSM   C11F13391   6.389   5.823   7.657  0.2061  0.4083 -1.0874
  125OSM   H11F13392   6.282   5.830   7.626 -0.7093  0.2972  1.7639
  125OSM   H11G13393   6.421   5.929   7.669 -2.6905  1.1882  1.0330
  125OSM   C12F13394   6.381   5.767   7.804 -0.6950 -0.0478  0.2178
  125OSM   H12F13395   6.294   5.809   7.857 -2.3372 -2.2573 -0.5576
  125OSM   H12G13396   6.472   5.790   7.863  0.6773 -1.8532 -1.0554
  125OSM   C13F13397   6.378   5.612   7.816  0.6128 -0.4522  0.4396
  125OSM   H13F13398   6.466   5.565   7.768  0.6875 -0.8793  0.9862
  125OSM   H13G13399   6.288   5.579   7.759  1.0036  0.7804 -0.9539
  125OSM   C14F13400   6.374   5.552   7.959  0.0701  0.1783  0.1586
  125OSM   H14F13401   6.279   5.577   8.012  1.9372  1.3749  3.2450
  125OSM   H14G13402   6.456   5.604   8.013 -0.3768 -1.3572  2.4557
  125OSM   C15F13403   6.411   5.403   7.977 -0.1763  0.3409 -1.0272
  125OSM   H15F13404   6.462   5.358   7.889  2.8674  3.1636 -0.9058
  125OSM   H15G13405   6.317   5.344   7.981 -1.3475  2.1770  1.9980
  125OSM   C16F13406   6.473   5.366   8.107  0.3658 -0.1103 -0.1451
  125OSM   H16F13407   6.570   5.415   8.129  0.7648 -1.3328  0.9266
  125OSM   H16G13408   6.495   5.257   8.100  1.5179  0.0895  0.1106
  125OSM   C17F13409   6.382   5.390   8.227 -0.3959 -0.1914  0.1464
  125OSM   H17F13410   6.283   5.341   8.217 -0.9185  1.0881 -1.2312
  125OSM   H17G13411   6.371   5.501   8.232  2.4248  0.2660 -1.4248
  125OSM   C18F13412   6.448   5.335   8.352  0.0062  0.7399  0.4819
  125OSM   H18F13413   6.477   5.229   8.335  0.3936  0.8613  0.3768
  125OSM   H18G13414   6.388   5.340   8.445 -0.6695 -2.7027  0.3775
  125OSM   H18H13415   6.546   5.384   8.370 -0.5578  1.1089  2.8192
  126OSM      N13416   3.325   5.091   6.553  0.2725 -0.0784  0.2148
  126OSM    C1513417   3.241   5.170   6.646 -0.1770  0.2781  0.1606
  126OSM   H15A13418   3.136   5.185   6.626 -0.7400 -0.0372  2.5621
  126OSM   H15B13419   3.289   5.266   6.638  0.4551  0.0135  0.7160
  126OSM   H15C13420   3.254   5.137   6.748  0.0393 -0.0644  0.0277
  126OSM    C1413421   3.450   5.063   6.621 -0.2395  0.3216  0.6599
  126OSM   H14A13422   3.517   4.995   6.570  0.1122  0.1829  1.2938
  126OSM   H14B13423   3.425   5.019   6.716  2.2682 -2.2098  0.2915
  126OSM   H14C13424   3.500   5.159   6.628  1.5483 -0.6111  1.1981
  126OSM    C1313425   3.248   4.962   6.544 -0.2916 -0.4704  0.1726
  126OSM   H13A13426   3.151   4.982   6.499 -0.3363 -0.4108  0.2946
  126OSM   H13B13427   3.230   4.922   6.643 -2.8660 -2.9958 -1.1702
  126OSM   H13C13428   3.301   4.891   6.482 -0.4459 -0.1201 -0.3677
  126OSM    C1213429   3.334   5.149   6.412  0.7823 -0.1130 -0.8546
  126OSM   H12A13430   3.237   5.179   6.375 -0.2757 -0.7059  1.2906
  126OSM   H12B13431   3.369   5.066   6.352 -1.1356 -0.0864 -2.1191
  126OSM    C1113432   3.426   5.275   6.393  0.8510 -1.2334 -0.2935
  126OSM   H11A13433   3.434   5.281   6.282 -0.2451  0.1773 -0.3124
  126OSM   H11B13434   3.528   5.254   6.434  1.4156 -1.5286 -1.7765
  126OSM      P13435   3.443   5.510   6.511  0.0375  0.4244  0.1261
  126OSM    O1313436   3.560   5.541   6.426  0.0610  0.7084  0.1730
  126OSM    O1413437   3.342   5.619   6.531  0.2525  0.0552  0.1680
  126OSM    O1113438   3.493   5.449   6.655  0.3090 -0.3595  0.0642
  126OSM    O1213439   3.366   5.390   6.460 -0.0803  0.3149 -0.5114
  126OSM    C1S13440   3.421   5.457   6.776 -0.0605 -0.1090  0.0180
  126OSM    H1S13441   3.328   5.395   6.773  0.3243 -0.6895 -0.0865
  126OSM    H1T13442   3.394   5.561   6.806 -1.9676  0.1311 -2.2141
  126OSM     NF13443   3.418   5.390   7.027  0.1638  0.0467 -0.7632
  126OSM    HNF13444   3.458   5.439   7.104  3.1640 -1.3434 -1.2607
  126OSM    C2S13445   3.499   5.397   6.904  0.5664 -0.5737  0.4352
  126OSM    H2S13446   3.534   5.295   6.879 -0.8149 -0.9004 -0.3112
  126OSM    C3S13447   3.629   5.471   6.922  0.0685 -0.5570 -0.8250
  126OSM    H3S13448   3.616   5.575   6.959  1.7452 -0.4054 -0.6122
  126OSM     O313449   3.710   5.491   6.808 -0.0326  0.1653 -0.0909
  126OSM    HO313450   3.650   5.461   6.739 -1.6307 -0.6275  1.5572
  126OSM    C4S13451   3.707   5.411   7.029 -0.4403 -0.1744 -0.3358
  126OSM    H4S13452   3.677   5.452   7.127 -2.6361 -1.2035 -0.5227
  126OSM    C5S13453   3.802   5.311   7.029  0.7229  0.2911  0.0045
  126OSM    H5S13454   3.841   5.276   6.933  1.7407  1.5115 -0.0458
  126OSM    C6S13455   3.864   5.254   7.159  0.2742 -0.1841  0.5264
  126OSM    H6S13456   3.973   5.273   7.160  0.3176  0.6496 -3.4509
  126OSM    H6T13457   3.861   5.143   7.166 -0.8486 -0.4559 -2.6244
  126OSM    C7S13458   3.809   5.296   7.298  0.6637 -0.4791  0.6040
  126OSM    H7S13459   3.704   5.262   7.312  0.8335 -1.5796 -0.6186
  126OSM    H7T13460   3.785   5.404   7.293 -0.8283 -0.8090  0.1640
  126OSM    C8S13461   3.889   5.252   7.415  0.6181  0.0444 -0.2202
  126OSM    H8S13462   3.979   5.316   7.411 -0.8768  2.2670 -0.4238
  126OSM    H8T13463   3.910   5.144   7.400 -1.5752 -0.3155 -1.0891
  126OSM    C9S13464   3.818   5.275   7.545  0.1007 -0.4874 -0.4928
  126OSM    H9S13465   3.721   5.221   7.545 -0.1732 -0.0350  0.9193
  126OSM    H9T13466   3.801   5.382   7.569  1.1596 -0.6757  1.3149
  126OSM   C10S13467   3.895   5.216   7.671  0.1328  0.1682 -0.1147
  126OSM   H10S13468   3.993   5.264   7.690 -0.5450  1.9957 -0.9997
  126OSM   H10T13469   3.931   5.111   7.665  3.2864  0.9683  2.0000
  126OSM   C11S13470   3.816   5.225   7.801  0.3275 -0.2572  0.4485
  126OSM   H11S13471   3.733   5.151   7.800  1.7085 -1.8807 -1.3741
  126OSM   H11T13472   3.773   5.327   7.808 -1.6349 -1.1343  2.2098
  126OSM   C12S13473   3.910   5.203   7.924 -0.0644 -0.2101 -0.1026
  126OSM   H12S13474   4.005   5.257   7.905  0.3688 -1.3185 -1.2001
  126OSM   H12T13475   3.945   5.098   7.936 -1.6925 -0.6661  1.0632
  126OSM   C13S13476   3.853   5.259   8.054  0.0007  0.0835 -0.5184
  126OSM   H13S13477   3.754   5.218   8.084  0.3049 -1.8761 -1.9236
  126OSM   H13T13478   3.833   5.368   8.049 -0.6846 -0.0727 -3.7125
  126OSM   C14S13479   3.945   5.229   8.179 -0.0136  0.0160  0.3112
  126OSM   H14S13480   4.044   5.260   8.138  0.3678  1.4654  2.1838
  126OSM   H14T13481   3.949   5.120   8.196 -2.2379  0.0520  1.4524
  126OSM   C15S13482   3.899   5.288   8.313 -0.3240  0.0967  0.0813
  126OSM   H15S13483   3.789   5.300   8.317 -0.1948  1.8818 -0.8796
  126OSM   H15T13484   3.943   5.387   8.337  1.6555 -1.3034  2.8814
  126OSM   C16S13485   3.934   5.206   8.441 -0.5790 -0.3710 -0.1859
  126OSM   H16S13486   4.043   5.205   8.463  0.0196  1.3840 -2.6673
  126OSM   H16T13487   3.909   5.100   8.419 -2.1051 -0.5370  2.0473
  126OSM   C17S13488   3.861   5.263   8.564  0.0499 -0.1314  0.5954
  126OSM   H17S13489   3.751   5.257   8.557  0.1444 -0.0965 -1.4618
  126OSM   H17T13490   3.885   5.371   8.559  1.0865 -0.3304  0.8978
  126OSM   C18S13491   3.924   5.220   8.702  0.7023  0.3351 -1.2305
  126OSM   H18S13492   3.916   5.109   8.708  0.6774  0.3751 -0.2983
  126OSM   H18T13493   3.852   5.250   8.782 -0.4130  0.7437 -2.3618
  126OSM   H18U13494   4.027   5.253   8.730  0.4482 -1.2831  2.2241
  126OSM    C1F13495   3.309   5.314   7.041  0.0313 -0.1478  0.8577
  126OSM     OF13496   3.289   5.230   6.952  0.4218  0.1803  0.0256
  126OSM    C2F13497   3.229   5.323   7.166  0.1870 -0.9554 -0.4317
  126OSM    H2F13498   3.123   5.318   7.132  0.4007  0.3200 -1.3816
  126OSM    H2G13499   3.237   5.421   7.218  1.3344 -1.1968 -0.1307
  126OSM    C3F13500   3.249   5.207   7.255 -0.1134  0.0376  0.1989
  126OSM    H3F13501   3.218   5.115   7.201 -0.0080 -1.8490  3.1581
  126OSM    H3G13502   3.176   5.211   7.338 -1.3630 -0.9489 -0.8118
  126OSM    C4F13503   3.395   5.184   7.304 -0.2340 -0.2356 -0.6818
  126OSM    H4F13504   3.425   5.261   7.378  0.3617  0.8521 -2.0159
  126OSM    H4G13505   3.467   5.165   7.221  1.2674  3.7108 -0.5134
  126OSM    C5F13506   3.398   5.052   7.384  0.5455 -0.1469  0.2565
  126OSM    H5F13507   3.393   4.984   7.296  1.0833  0.7112 -0.4525
  126OSM    H5G13508   3.320   5.039   7.462  0.5191 -0.0437  0.2460
  126OSM    C6F13509   3.533   5.029   7.456 -0.3601 -0.1776 -0.8936
  126OSM    H6F13510   3.542   5.103   7.538 -1.1579 -3.7099  2.6767
  126OSM    H6G13511   3.616   5.051   7.386  1.4688 -2.8980  0.2509
  126OSM    C7F13512   3.552   4.889   7.519  0.2876 -0.3374  0.0330
  126OSM    H7F13513   3.584   4.819   7.439  0.7993  0.5244 -0.5159
  126OSM    H7G13514   3.463   4.845   7.569  0.4146 -2.7270 -1.6753
  126OSM    C8F13515   3.665   4.904   7.623  0.5580 -0.4596  0.0920
  126OSM    H8F13516   3.615   4.969   7.699 -0.2567 -0.5371 -0.3607
  126OSM    H8G13517   3.750   4.958   7.576  0.8369 -2.8240 -2.3578
  126OSM    C9F13518   3.698   4.764   7.665 -0.1045 -0.4180 -0.6692
  126OSM    H9F13519   3.715   4.692   7.584  1.3652 -1.4622  0.5162
  126OSM   C10F13520   3.711   4.712   7.792 -0.2398  0.2084  0.1645
  126OSM   H10F13521   3.746   4.608   7.803  1.1935  0.8869  2.9955
  126OSM   C11F13522   3.694   4.796   7.916  0.1957 -0.2921  0.5183
  126OSM   H11F13523   3.586   4.818   7.933  0.0348 -0.7973  0.1875
  126OSM   H11G13524   3.762   4.883   7.910 -0.0069 -0.1799 -0.2847
  126OSM   C12F13525   3.752   4.731   8.049 -0.4998 -0.3413  0.2725
  126OSM   H12F13526   3.685   4.662   8.105 -1.8645 -0.2184 -1.1198
  126OSM   H12G13527   3.764   4.823   8.110  0.9814  1.4845 -2.5499
  126OSM   C13F13528   3.892   4.669   8.029  0.5147 -0.4781 -1.0533
  126OSM   H13F13529   3.958   4.753   7.999  1.4226 -0.4908  0.7661
  126OSM   H13G13530   3.902   4.599   7.944  0.5088 -2.1640  0.2843
  126OSM   C14F13531   3.956   4.616   8.153 -0.1076  0.0644  0.2421
  126OSM   H14F13532   3.951   4.697   8.229  0.2900 -1.1862  1.6506
  126OSM   H14G13533   4.060   4.583   8.131 -0.1364  1.1597 -1.8260
  126OSM   C15F13534   3.892   4.495   8.220  0.0977  0.4110 -0.6019
  126OSM   H15F13535   3.919   4.402   8.167 -0.3277  0.3844 -0.7744
  126OSM   H15G13536   3.781   4.497   8.220  0.0580 -0.3273  0.6348
  126OSM   C16F13537   3.933   4.481   8.372 -0.2461  0.0450 -0.4821
  126OSM   H16F13538   3.879   4.403   8.430 -0.3538  2.5702  3.0918
  126OSM   H16G13539   3.903   4.576   8.421  2.0509  0.8505 -0.5174
  126OSM   C17F13540   4.083   4.467   8.402 -0.2503 -0.0564 -0.4413
  126OSM   H17F13541   4.137   4.538   8.336 -2.5778  3.1949  0.9523
  126OSM   H17G13542   4.116   4.369   8.361 -2.4934 -0.8619 -0.4759
  126OSM   C18F13543   4.125   4.484   8.551  0.2650  0.5001  0.9159
  126OSM   H18F13544   4.082   4.577   8.592 -0.5648 -0.1143  1.4644
  126OSM   H18G13545   4.236   4.495   8.551  0.2797  0.5128 -0.1004
  126OSM   H18H13546   4.082   4.397   8.604  0.0629  0.0668  0.0705
  127OSM      N13547   4.466   4.064   6.191 -0.2572  0.2728 -0.1294
  127OSM    C1513548   4.399   3.935   6.211 -0.5560 -0.3421  0.3296
  127OSM   H15A13549   4.438   3.857   6.147 -2.2090  0.3945 -1.6817
  127OSM   H15B13550   4.295   3.930   6.182 -1.0058 -1.2976  1.9809
  127OSM   H15C13551   4.392   3.894   6.311  1.1181 -1.8895 -0.1285
  127OSM    C1413552   4.467   4.099   6.050  0.0452  0.2861 -0.2160
  127OSM   H14A13553   4.364   4.114   6.022  0.3605  0.5201 -1.3043
  127OSM   H14B13554   4.519   4.028   5.987 -0.5220 -0.3260 -0.0016
  127OSM   H14C13555   4.503   4.198   6.027 -3.6377  1.6990 -0.4671
  127OSM    C1313556   4.380   4.159   6.262 -1.7584 -0.2111 -0.1037
  127OSM   H13A13557   4.289   4.165   6.204 -0.9698 -1.4594 -1.5210
  127OSM   H13B13558   4.423   4.258   6.258 -0.3865 -0.8319 -1.8170
  127OSM   H13C13559   4.362   4.126   6.364  0.0304 -1.6426 -0.1892
  127OSM    C1213560   4.603   4.059   6.243  0.2957 -0.6113  0.1018
  127OSM   H12A13561   4.596   4.026   6.345  0.4587  1.0802  0.6884
  127OSM   H12B13562   4.649   4.156   6.231 -0.8443  0.0631  0.9516
  127OSM    C1113563   4.705   3.964   6.178 -0.4903  0.3838 -0.1761
  127OSM   H11A13564   4.807   3.992   6.211  0.7099 -3.7778  0.1794
  127OSM   H11B13565   4.706   3.980   6.068  0.1996  2.6542  0.1128
  127OSM      P13566   4.794   3.735   6.263 -0.0339  0.0044  0.0118
  127OSM    O1313567   4.743   3.614   6.328 -0.2541  0.1751  0.7054
  127OSM    O1413568   4.889   3.709   6.155 -0.2935  0.0091  0.1060
  127OSM    O1113569   4.873   3.829   6.370 -0.3785 -0.1281  0.2248
  127OSM    O1213570   4.675   3.824   6.208  0.3510 -0.1398  0.0249
  127OSM    C1S13571   4.827   3.853   6.502  0.5217  0.2483 -0.3164
  127OSM    H1S13572   4.717   3.871   6.494  0.3229 -0.7277  0.1264
  127OSM    H1T13573   4.862   3.950   6.543  1.4271  0.0352 -0.5737
  127OSM     NF13574   4.809   3.826   6.737  0.6667  0.3629  1.2683
  127OSM    HNF13575   4.865   3.884   6.795  1.4235 -0.2625  1.1719
  127OSM    C2S13576   4.866   3.762   6.621 -0.9748 -0.2808  0.0037
  127OSM    H2S13577   4.817   3.663   6.620  0.6032 -1.0937  0.3361
  127OSM    C3S13578   5.014   3.736   6.634  0.2471  1.0821  0.0868
  127OSM    H3S13579   5.076   3.828   6.619  1.1025  0.3881 -0.7863
  127OSM     O313580   5.051   3.649   6.525 -0.5152 -0.1664  0.1833
  127OSM    HO313581   4.980   3.658   6.461 -1.3321 -0.5967  0.9916
  127OSM    C4S13582   5.056   3.660   6.760 -0.7024 -0.2811 -0.9962
  127OSM    H4S13583   5.003   3.564   6.763  0.2338 -0.8346 -1.5866
  127OSM    C5S13584   5.144   3.703   6.855  0.3003 -0.2901 -0.3412
  127OSM    H5S13585   5.187   3.804   6.842 -0.9238  0.1380 -1.1789
  127OSM    C6S13586   5.171   3.629   6.980 -0.1835 -0.5735 -0.0759
  127OSM    H6S13587   5.168   3.700   7.065  1.7612 -0.2286 -0.2484
  127OSM    H6T13588   5.275   3.592   6.983 -0.5107 -1.4508  1.6373
  127OSM    C7S13589   5.079   3.507   7.004  0.2001 -0.0598  0.2431
  127OSM    H7S13590   5.082   3.438   6.917 -0.3428  0.8596 -0.5239
  127OSM    H7T13591   4.970   3.526   7.019  0.2211  0.9263 -0.7504
  127OSM    C8S13592   5.142   3.422   7.116  0.6519 -0.4919 -0.4444
  127OSM    H8S13593   5.241   3.392   7.076  0.9322  1.5427 -1.4178
  127OSM    H8T13594   5.073   3.335   7.125 -0.6348  0.1614 -2.9406
  127OSM    C9S13595   5.140   3.474   7.257  0.0552 -0.1222 -0.2684
  127OSM    H9S13596   5.230   3.539   7.265  0.8939 -1.0597 -1.6208
  127OSM    H9T13597   5.161   3.391   7.327 -0.8370  1.4406  1.9652
  127OSM   C10S13598   5.003   3.536   7.301  0.0486 -0.3579  0.7146
  127OSM   H10S13599   4.936   3.458   7.261 -0.6046  1.1850 -1.4050
  127OSM   H10T13600   4.979   3.633   7.251 -1.9318 -1.0728  0.1755
  127OSM   C11S13601   4.993   3.573   7.449  0.7551  0.6610  0.3025
  127OSM   H11S13602   5.006   3.486   7.517  2.6511  0.5149 -0.1920
  127OSM   H11T13603   4.893   3.621   7.459  0.9015  0.8547  0.8845
  127OSM   C12S13604   5.103   3.668   7.485 -0.3335  0.5729  0.2010
  127OSM   H12S13605   5.099   3.751   7.411  0.2108  2.6497  2.3791
  127OSM   H12T13606   5.199   3.615   7.471 -1.1258 -1.1049  0.8428
  127OSM   C13S13607   5.099   3.740   7.623  0.4510  0.3698  0.2567
  127OSM   H13S13608   5.000   3.788   7.639  0.1318 -0.2996  0.3205
  127OSM   H13T13609   5.179   3.816   7.616  0.8709 -0.0107  0.8528
  127OSM   C14S13610   5.133   3.643   7.734  0.0140 -0.4367 -0.3168
  127OSM   H14S13611   5.234   3.596   7.724  0.0068 -0.2515 -1.3317
  127OSM   H14T13612   5.055   3.565   7.740  0.7808 -1.2105 -0.1619
  127OSM   C15S13613   5.127   3.723   7.859 -0.1518  0.1140  0.1124
  127OSM   H15S13614   5.029   3.771   7.877  0.2442  0.5271  1.3057
  127OSM   H15T13615   5.199   3.809   7.858  1.1109 -0.8899  1.1731
  127OSM   C16S13616   5.171   3.643   7.985  0.0248 -0.0011  0.0767
  127OSM   H16S13617   5.276   3.614   7.962 -0.4529 -2.7242  1.0717
  127OSM   H16T13618   5.127   3.542   7.996 -0.4307  0.2264  0.3867
  127OSM   C17S13619   5.168   3.726   8.117  0.7814 -0.6973 -0.1682
  127OSM   H17S13620   5.067   3.770   8.127  0.9384  0.0624 -1.6954
  127OSM   H17T13621   5.233   3.816   8.123 -1.7622  1.1531  2.8585
  127OSM   C18S13622   5.203   3.636   8.234  0.3536  0.1375  0.4518
  127OSM   H18S13623   5.215   3.704   8.321 -0.4812  0.6380  0.1874
  127OSM   H18T13624   5.289   3.572   8.205 -0.4337 -0.8096  0.1628
  127OSM   H18U13625   5.125   3.561   8.259  0.6921  0.1791  1.7056
  127OSM    C1F13626   4.677   3.831   6.771 -0.1355 -0.4590  0.1922
  127OSM     OF13627   4.591   3.777   6.701 -0.0861  0.4641  0.1625
  127OSM    C2F13628   4.651   3.900   6.904  0.6081  0.3560 -0.0315
  127OSM    H2F13629   4.666   4.009   6.889  0.6210  0.3384 -0.1537
  127OSM    H2G13630   4.729   3.860   6.973 -0.4073  0.4683  1.2147
  127OSM    C3F13631   4.514   3.857   6.961 -0.2359  0.1702  0.4114
  127OSM    H3F13632   4.508   3.747   6.955  1.7870  0.0110  0.6419
  127OSM    H3G13633   4.439   3.893   6.888 -0.9836 -1.2335  0.4590
  127OSM    C4F13634   4.490   3.917   7.095  0.2205  0.1347  0.3052
  127OSM    H4F13635   4.487   4.028   7.092  1.8498  0.2443  1.4345
  127OSM    H4G13636   4.576   3.893   7.161  0.8244 -1.3730 -0.9652
  127OSM    C5F13637   4.357   3.865   7.151  0.4731 -0.6014 -0.5382
  127OSM    H5F13638   4.352   3.754   7.153  0.2798 -0.5772  1.0502
  127OSM    H5G13639   4.270   3.915   7.104 -0.2282 -0.1372  1.1813
  127OSM    C6F13640   4.337   3.909   7.295 -0.2281 -0.6094 -0.5619
  127OSM    H6F13641   4.315   4.018   7.297 -1.4546 -0.8565  0.2016
  127OSM    H6G13642   4.426   3.877   7.353 -0.5378  0.7534  0.7225
  127OSM    C7F13643   4.217   3.837   7.368 -0.4237 -0.7524  0.7188
  127OSM    H7F13644   4.249   3.731   7.371  0.6875 -0.4789 -0.5617
  127OSM    H7G13645   4.126   3.842   7.304  1.2418  1.9845 -1.7017
  127OSM    C8F13646   4.202   3.892   7.508  0.0676  0.0917 -0.1695
  127OSM    H8F13647   4.175   3.998   7.488 -1.2269  0.0299  1.0550
  127OSM    H8G13648   4.299   3.866   7.555 -0.7864  1.4941  2.5621
  127OSM    C9F13649   4.082   3.827   7.575 -0.3170  0.2622  0.1415
  127OSM    H9F13650   3.982   3.858   7.542  0.0291 -0.1740 -1.4061
  127OSM   C10F13651   4.085   3.732   7.675  0.1946 -0.5384 -0.3244
  127OSM   H10F13652   3.990   3.693   7.714 -1.2898  1.7579 -1.4163
  127OSM   C11F13653   4.213   3.671   7.731  0.6999  0.4238  0.0855
  127OSM   H11F13654   4.304   3.701   7.674  0.3312 -0.2128 -0.8501
  127OSM   H11G13655   4.208   3.560   7.732 -0.9607  0.4798  0.0154
  127OSM   C12F13656   4.228   3.705   7.883 -0.5306 -0.3753 -0.6998
  127OSM   H12F13657   4.221   3.813   7.904 -1.2229 -0.3823 -0.8783
  127OSM   H12G13658   4.321   3.661   7.925 -1.1038 -0.2035  0.8083
  127OSM   C13F13659   4.114   3.641   7.966  0.6577 -0.3225  0.1322
  127OSM   H13F13660   4.098   3.535   7.938 -1.8443 -0.0195  0.1854
  127OSM   H13G13661   4.017   3.680   7.929  0.8146 -0.2128 -0.1692
  127OSM   C14F13662   4.117   3.643   8.117 -0.9034 -0.6772  0.1878
  127OSM   H14F13663   4.136   3.747   8.151  4.2690 -1.7780  1.5594
  127OSM   H14G13664   4.209   3.598   8.159 -0.2737  2.3602  2.4666
  127OSM   C15F13665   3.998   3.578   8.181  0.1817  0.0699 -0.5518
  127OSM   H15F13666   4.001   3.469   8.161 -0.5556  0.0726 -0.7313
  127OSM   H15G13667   3.907   3.611   8.126 -0.9966  1.4868  2.0405
  127OSM   C16F13668   3.962   3.612   8.331 -1.3511  0.3377  0.2581
  127OSM   H16F13669   3.918   3.524   8.382 -0.7213  0.2008  0.5721
  127OSM   H16G13670   3.892   3.697   8.344 -0.8669  1.2159 -2.3048
  127OSM   C17F13671   4.091   3.636   8.408 -0.3741 -0.1438 -0.5130
  127OSM   H17F13672   4.151   3.713   8.355 -1.7308  0.0772 -1.7861
  127OSM   H17G13673   4.155   3.545   8.404  1.2811  0.8600  1.3332
  127OSM   C18F13674   4.065   3.689   8.554 -0.3227 -0.2106 -0.1419
  127OSM   H18F13675   4.158   3.729   8.598 -0.5963 -0.9590  1.1714
  127OSM   H18G13676   4.019   3.609   8.616 -1.7951 -0.8992 -2.0370
  127OSM   H18H13677   3.986   3.766   8.546  1.2490  1.3690 -1.1400
  128OSM      N13678   0.530   6.757   5.917  0.1277 -0.4525 -0.0545
  128OSM    C1513679   0.644   6.684   5.851 -0.7088  1.0385  0.2329
  128OSM   H15A13680   0.743   6.722   5.870 -0.2190 -1.4073  3.6756
  128OSM   H15B13681   0.625   6.669   5.746  0.0436  1.6049  0.0130
  128OSM   H15C13682   0.644   6.583   5.889  0.0436  1.0067  0.1565
  128OSM    C1413683   0.534   6.734   6.066 -0.9001  0.0131  0.1650
  128OSM   H14A13684   0.540   6.627   6.086 -2.3911  0.0957  1.2495
  128OSM   H14B13685   0.445   6.769   6.117 -0.8440  0.3581  0.0274
  128OSM   H14C13686   0.604   6.787   6.128 -0.0486 -0.2138 -0.5924
  128OSM    C1313687   0.554   6.903   5.887 -0.4374  0.3705 -1.0045
  128OSM   H13A13688   0.463   6.956   5.909 -0.3200 -0.2241  1.1495
  128OSM   H13B13689   0.576   6.916   5.782 -0.5588 -2.3783 -1.4538
  128OSM   H13C13690   0.627   6.938   5.958  1.7008  1.7317 -3.6521
  128OSM    C1213691   0.400   6.719   5.854  1.1365 -0.5565 -0.2775
  128OSM   H12A13692   0.380   6.618   5.887  0.8652 -0.5214 -0.3308
  128OSM   H12B13693   0.411   6.718   5.746 -1.2989  0.5187 -0.5982
  128OSM    C1113694   0.274   6.804   5.890  0.1032 -0.6594 -0.3477
  128OSM   H11A13695   0.187   6.748   5.850 -1.0130  1.6265 -1.3049
  128OSM   H11B13696   0.279   6.906   5.846  0.6966 -0.4341  0.2174
  128OSM      P13697   0.168   6.928   6.098 -0.2240  0.0811  0.3367
  128OSM    O1313698   0.168   7.047   6.005 -0.4900 -0.0091 -0.2734
  128OSM    O1413699   0.042   6.873   6.145 -0.0036 -0.3330 -0.1731
  128OSM    O1113700   0.251   6.971   6.230  0.0211 -0.3821 -0.4438
  128OSM    O1213701   0.263   6.815   6.036  0.2803  0.2357 -0.1395
  128OSM    C1S13702   0.264   6.873   6.330  0.6544 -0.1289 -0.1895
  128OSM    H1S13703   0.361   6.822   6.310  0.3128 -0.2200 -1.7283
  128OSM    H1T13704   0.182   6.798   6.336 -0.1257  0.6470 -0.8970
  128OSM     NF13705   0.280   6.832   6.581 -0.8092  0.4677  0.3318
  128OSM    HNF13706   0.217   6.827   6.659  0.8423 -2.0474  1.6153
  128OSM    C2S13707   0.275   6.934   6.477 -0.1248  0.7640  0.1627
  128OSM    H2S13708   0.372   6.985   6.487 -0.3052  0.7576  2.3201
  128OSM    C3S13709   0.173   7.050   6.509 -0.2072  0.2371 -0.3372
  128OSM    H3S13710   0.077   7.007   6.543 -0.6384  1.1621 -0.3671
  128OSM     O313711   0.138   7.132   6.399  0.3516 -0.1976 -0.0195
  128OSM    HO313712   0.186   7.087   6.329  0.0681 -2.9609  1.4235
  128OSM    C4S13713   0.216   7.135   6.623  0.0440  0.0183 -0.4777
  128OSM    H4S13714   0.157   7.103   6.710 -1.6283  1.0505 -1.1715
  128OSM    C5S13715   0.322   7.225   6.629  0.1475 -0.8894 -0.4499
  128OSM    H5S13716   0.368   7.246   6.531 -0.3642  0.0270 -0.5063
  128OSM    C6S13717   0.358   7.304   6.757  0.2326 -0.1618  0.4511
  128OSM    H6S13718   0.360   7.411   6.727  2.0633 -0.1400  0.4814
  128OSM    H6T13719   0.463   7.283   6.787 -0.2051 -1.8031  0.9049
  128OSM    C7S13720   0.268   7.300   6.880 -0.4559  0.6070  0.1668
  128OSM    H7S13721   0.241   7.199   6.916 -0.5891  1.0427  1.3277
  128OSM    H7T13722   0.166   7.340   6.864 -0.8203 -0.2820  0.2456
  128OSM    C8S13723   0.329   7.364   7.003 -0.3441  0.1374 -0.1517
  128OSM    H8S13724   0.330   7.474   6.997 -0.4563  0.0461 -3.2925
  128OSM    H8T13725   0.435   7.331   7.000 -0.3939 -0.0242 -0.1894
  128OSM    C9S13726   0.249   7.320   7.124 -0.2436  0.0039 -0.0757
  128OSM    H9S13727   0.247   7.209   7.136 -1.9818  0.1417  1.2523
  128OSM    H9T13728   0.140   7.337   7.112 -0.2784  0.9669  1.4000
  128OSM   C10S13729   0.298   7.399   7.244 -0.3891 -0.3762 -0.5133
  128OSM   H10S13730   0.291   7.508   7.222 -2.3882  0.1997  2.4351
  128OSM   H10T13731   0.402   7.367   7.263 -0.1635  0.2576 -0.6382
  128OSM   C11S13732   0.223   7.387   7.378 -0.4878 -0.1218 -0.6949
  128OSM   H11S13733   0.199   7.281   7.401  0.8675 -0.7261 -1.9063
  128OSM   H11T13734   0.124   7.438   7.379  0.1721  1.3304  2.2683
  128OSM   C12S13735   0.300   7.450   7.502 -0.0638 -0.0014  0.0328
  128OSM   H12S13736   0.348   7.547   7.475 -0.1251  1.5079  4.3875
  128OSM   H12T13737   0.387   7.382   7.516  1.0163  1.5278  1.1180
  128OSM   C13S13738   0.213   7.461   7.631 -0.2448  0.1170 -0.2178
  128OSM   H13S13739   0.116   7.504   7.601 -0.6260 -0.0433  0.7472
  128OSM   H13T13740   0.271   7.530   7.696 -1.2701  0.5868  0.2212
  128OSM   C14S13741   0.180   7.325   7.689 -0.0369 -0.6155  0.9381
  128OSM   H14S13742   0.163   7.241   7.618 -0.3784 -0.3483  0.6974
  128OSM   H14T13743   0.083   7.334   7.741 -1.5028  1.7028 -1.8614
  128OSM   C15S13744   0.293   7.283   7.779 -0.5263 -0.1198  0.3018
  128OSM   H15S13745   0.390   7.306   7.730 -1.6916  1.0207 -1.6024
  128OSM   H15T13746   0.277   7.175   7.801 -0.1437 -0.0591  0.8980
  128OSM   C16S13747   0.289   7.369   7.912 -0.9530  0.7265 -0.3450
  128OSM   H16S13748   0.271   7.478   7.898  0.9104  1.8838  4.3682
  128OSM   H16T13749   0.387   7.354   7.963 -0.4725 -0.9662 -1.6522
  128OSM   C17S13750   0.189   7.322   8.017  0.2750  0.0723 -0.6910
  128OSM   H17S13751   0.210   7.217   8.046  2.9096  0.8023  0.2929
  128OSM   H17T13752   0.082   7.331   7.987 -0.0210 -0.4774  0.1612
  128OSM   C18S13753   0.215   7.408   8.146 -0.3724  0.3171 -0.1100
  128OSM   H18S13754   0.322   7.405   8.173  0.5060  0.5803 -3.1398
  128OSM   H18T13755   0.158   7.365   8.231 -0.0592 -1.0720 -0.5659
  128OSM   H18U13756   0.175   7.511   8.136  1.0327  1.1743  2.3105
  128OSM    C1F13757   0.371   6.733   6.578 -0.4274 -0.1460  0.5283
  128OSM     OF13758   0.475   6.751   6.521 -0.6560  0.3886  0.6333
  128OSM    C2F13759   0.347   6.608   6.652 -0.8490 -0.1741  0.0057
  128OSM    H2F13760   0.238   6.593   6.665 -1.2171 -0.2246 -2.6283
  128OSM    H2G13761   0.391   6.620   6.754 -0.2054 -1.0348 -0.1513
  128OSM    C3F13762   0.404   6.477   6.581  0.5241  0.2448  0.8777
  128OSM    H3F13763   0.514   6.482   6.571  0.3623  0.5978 -1.3705
  128OSM    H3G13764   0.367   6.489   6.476  1.1207  1.6605  0.8067
  128OSM    C4F13765   0.356   6.342   6.639 -0.0911 -0.2534  0.0110
  128OSM    H4F13766   0.396   6.261   6.574 -1.4873 -0.7878 -0.2252
  128OSM    H4G13767   0.246   6.354   6.630 -0.0794  1.2576  1.3977
  128OSM    C5F13768   0.414   6.312   6.773 -0.2058 -0.6437 -0.5251
  128OSM    H5F13769   0.386   6.397   6.839 -0.4689 -0.4938 -0.8297
  128OSM    H5G13770   0.525   6.318   6.771 -0.2717  1.9630 -1.9142
  128OSM    C6F13771   0.369   6.186   6.844  0.2094  0.5985  0.0206
  128OSM    H6F13772   0.379   6.093   6.784 -1.1986  1.0631 -0.9933
  128OSM    H6G13773   0.258   6.192   6.849  0.1218 -1.2122  1.1814
  128OSM    C7F13774   0.429   6.183   6.982  0.0189  0.7050  0.1687
  128OSM    H7F13775   0.411   6.282   7.028 -0.1758  0.1416  1.3446
  128OSM    H7G13776   0.539   6.168   6.987  0.2955  2.2607 -0.7415
  128OSM    C8F13777   0.369   6.077   7.080  0.1208  0.3970 -0.7596
  128OSM    H8F13778   0.400   5.974   7.050 -1.4216 -0.7871  1.4678
  128OSM    H8G13779   0.259   6.087   7.073  0.1851  1.5939 -0.2490
  128OSM    C9F13780   0.412   6.113   7.223 -0.1473  0.0407 -0.3529
  128OSM    H9F13781   0.502   6.176   7.226 -0.6866  0.8406 -0.7345
  128OSM   C10F13782   0.353   6.088   7.341 -0.7913  0.7430  0.3410
  128OSM   H10F13783   0.410   6.119   7.429  2.9741 -3.1278 -0.4330
  128OSM   C11F13784   0.228   6.017   7.375  0.1500 -0.0347  0.3364
  128OSM   H11F13785   0.196   5.947   7.294  2.9828 -0.7540 -0.2814
  128OSM   H11G13786   0.149   6.093   7.391 -0.5717 -0.5769 -0.5325
  128OSM   C12F13787   0.250   5.927   7.498 -0.6705  0.5677 -0.7525
  128OSM   H12F13788   0.335   5.858   7.477 -0.9830  0.2390 -0.9571
  128OSM   H12G13789   0.169   5.850   7.507  1.8620 -2.1165  1.0215
  128OSM   C13F13790   0.268   6.007   7.634 -0.2504  0.1394  0.3553
  128OSM   H13F13791   0.179   6.072   7.647 -1.0151 -0.5339 -1.2952
  128OSM   H13G13792   0.368   6.056   7.627  0.7584 -1.7904  0.7728
  128OSM   C14F13793   0.293   5.913   7.747 -0.1868 -0.3126 -0.7273
  128OSM   H14F13794   0.376   5.846   7.716  0.2300 -0.0047 -0.2825
  128OSM   H14G13795   0.204   5.848   7.763 -0.9596  1.1468  1.3818
  128OSM   C15F13796   0.331   5.979   7.884 -0.7494  0.5823  0.3786
  128OSM   H15F13797   0.237   6.024   7.921 -1.4922 -0.5233 -0.1063
  128OSM   H15G13798   0.411   6.056   7.884  0.5747 -0.7059 -1.6176
  128OSM   C16F13799   0.372   5.876   7.984 -0.2095  0.7673 -0.0697
  128OSM   H16F13800   0.474   5.836   7.965  0.0171  1.8077 -1.1177
  128OSM   H16G13801   0.294   5.797   7.978 -1.7721  2.2055  0.7107
  128OSM   C17F13802   0.372   5.942   8.124  0.0512  0.5326 -0.1592
  128OSM   H17F13803   0.431   6.035   8.118  2.6304 -1.0172 -0.4193
  128OSM   H17G13804   0.430   5.865   8.179  0.3789  1.0921  0.2870
  128OSM   C18F13805   0.230   5.958   8.180 -0.2939 -0.0406 -0.1296
  128OSM   H18F13806   0.184   5.858   8.197 -0.0845 -0.5528 -2.3340
  128OSM   H18G13807   0.163   6.014   8.111 -0.1182  0.5942  0.2084
  128OSM   H18H13808   0.226   6.015   8.275 -0.5966  1.3541 -0.9540
  129OSM      N13809   3.272   4.395   6.041 -0.0122 -0.2257 -0.1115
  129OSM    C1513810   3.189   4.506   6.087 -0.3977 -0.4496 -0.2185
  129OSM   H15A13811   3.215   4.549   6.183 -0.1870  0.5091 -0.6926
  129OSM   H15B13812   3.091   4.465   6.106 -1.4662  2.2514  0.6555
  129OSM   H15C13813   3.169   4.580   6.011 -0.5092 -2.1610 -1.9077
  129OSM    C1413814   3.198   4.320   5.933 -0.5559 -0.9165 -0.5517
  129OSM   H14A13815   3.100   4.285   5.959 -0.8593  1.0893  1.3249
  129OSM   H14B13816   3.257   4.234   5.903 -0.0768 -0.5866 -0.5723
  129OSM   H14C13817   3.182   4.382   5.846 -0.1456  0.1693  0.1253
  129OSM    C1313818   3.396   4.457   5.988 -0.2864 -0.4022  0.7463
  129OSM   H13A13819   3.476   4.394   5.952  1.1345  0.5107  2.1749
  129OSM   H13B13820   3.437   4.526   6.060 -0.0590  0.4884 -0.2070
  129OSM   H13C13821   3.374   4.522   5.905  1.3636  0.4422  0.9318
  129OSM    C1213822   3.306   4.305   6.156  0.6027 -0.8658  0.3182
  129OSM   H12A13823   3.365   4.221   6.125  0.2787 -1.3897  1.0905
  129OSM   H12B13824   3.215   4.264   6.197  0.4610 -0.3637  0.5156
  129OSM    C1113825   3.371   4.368   6.287 -0.1660 -1.0636  0.5973
  129OSM   H11A13826   3.376   4.288   6.364 -2.8718  1.0964  3.2597
  129OSM   H11B13827   3.301   4.448   6.318 -0.1495 -0.5216 -0.6773
  129OSM      P13828   3.636   4.337   6.268  0.2849 -0.3777 -0.1592
  129OSM    O1313829   3.616   4.238   6.161 -0.8130 -0.3640 -1.0088
  129OSM    O1413830   3.749   4.425   6.252  0.1725 -0.1660  0.6312
  129OSM    O1113831   3.625   4.257   6.404  0.2783 -0.4661  0.0732
  129OSM    O1213832   3.503   4.425   6.269 -0.0451  0.1408  0.4399
  129OSM    C1S13833   3.632   4.340   6.521  0.3543  0.8624 -0.6228
  129OSM    H1S13834   3.526   4.369   6.537 -0.8801 -2.9998 -0.5779
  129OSM    H1T13835   3.702   4.426   6.522  2.7759 -0.7590  3.9876
  129OSM     NF13836   3.646   4.351   6.765  0.4197 -0.4476 -0.5227
  129OSM    HNF13837   3.727   4.389   6.808 -0.2781 -0.6957  1.1042
  129OSM    C2S13838   3.675   4.269   6.651 -0.4882  0.6240 -0.3303
  129OSM    H2S13839   3.610   4.182   6.674 -0.3922  1.0131  1.5731
  129OSM    C3S13840   3.821   4.222   6.632  0.8723  0.3142 -0.0333
  129OSM    H3S13841   3.883   4.315   6.632 -2.0822  2.4353 -0.3901
  129OSM     O313842   3.861   4.155   6.516  0.3135  0.6477  0.8457
  129OSM    HO313843   3.785   4.168   6.459  1.5786  1.3223 -0.7861
  129OSM    C4S13844   3.846   4.129   6.749 -0.5610 -0.0910  0.1796
  129OSM    H4S13845   3.764   4.060   6.774 -1.2091 -0.0919 -1.8236
  129OSM    C5S13846   3.961   4.122   6.818  0.5453 -0.3529  0.7405
  129OSM    H5S13847   4.044   4.191   6.798 -0.5320  1.0316  0.8773
  129OSM    C6S13848   3.986   4.026   6.930  0.4360 -0.0788  0.1550
  129OSM    H6S13849   4.087   4.048   6.969 -0.1983 -0.6013  2.2313
  129OSM    H6T13850   3.986   3.919   6.898 -0.3746 -0.2099  0.5533
  129OSM    C7S13851   3.891   4.031   7.041  0.0608 -0.6619  0.4635
  129OSM    H7S13852   3.911   3.948   7.112 -2.2847 -2.1226 -0.4554
  129OSM    H7T13853   3.791   4.011   6.997 -0.6890  1.4615  1.0670
  129OSM    C8S13854   3.879   4.155   7.127 -0.5920 -0.1076  0.0216
  129OSM    H8S13855   3.781   4.140   7.179  1.1794 -0.0467  3.6742
  129OSM    H8T13856   3.888   4.243   7.059 -0.2813  0.7295  1.1041
  129OSM    C9S13857   3.982   4.136   7.245 -0.1274  0.0298  0.3523
  129OSM    H9S13858   4.089   4.133   7.214 -0.8120 -0.2315 -2.1356
  129OSM    H9T13859   3.959   4.040   7.296  0.6813 -1.1982 -1.5164
  129OSM   C10S13860   3.953   4.253   7.350 -0.0136 -0.3954  0.2696
  129OSM   H10S13861   3.953   4.351   7.296 -0.1249 -1.6751 -2.1972
  129OSM   H10T13862   4.029   4.251   7.430 -0.5664 -3.2090  0.8339
  129OSM   C11S13863   3.829   4.232   7.431  0.8420 -0.5194  0.0514
  129OSM   H11S13864   3.859   4.167   7.516 -1.6776 -0.1589  1.3033
  129OSM   H11T13865   3.741   4.185   7.382  1.0661 -2.9983  1.8553
  129OSM   C12S13866   3.786   4.371   7.496  0.2821 -0.1788 -0.2101
  129OSM   H12S13867   3.694   4.348   7.553  0.4883 -0.5533 -0.0305
  129OSM   H12T13868   3.771   4.447   7.416  1.2913  0.7104  0.4132
  129OSM   C13S13869   3.897   4.449   7.581 -0.2144 -0.1303  0.2972
  129OSM   H13S13870   3.847   4.541   7.616  2.7206  0.7114  2.6587
  129OSM   H13T13871   3.985   4.475   7.518 -0.4346  1.0026  0.4351
  129OSM   C14S13872   3.949   4.365   7.700 -0.2574  0.4864  0.1836
  129OSM   H14S13873   4.020   4.431   7.753  1.1898 -1.4229  0.7232
  129OSM   H14T13874   4.003   4.278   7.658 -1.5178  0.2134 -0.9748
  129OSM   C15S13875   3.840   4.310   7.797 -0.5254  1.0723 -0.3674
  129OSM   H15S13876   3.769   4.240   7.748  0.8158 -0.8538  0.3274
  129OSM   H15T13877   3.773   4.395   7.820  1.7032  2.6691  0.6327
  129OSM   C16S13878   3.887   4.240   7.922  0.3600  0.0809 -0.6719
  129OSM   H16S13879   3.967   4.295   7.976  2.9005 -1.9382 -2.0913
  129OSM   H16T13880   3.929   4.138   7.906 -0.7192 -0.6771  1.0938
  129OSM   C17S13881   3.771   4.211   8.027 -0.5079  0.4456  0.4411
  129OSM   H17S13882   3.696   4.158   7.964  0.3309 -0.5432  0.2307
  129OSM   H17T13883   3.724   4.306   8.059  0.3097  0.6831  0.9705
  129OSM   C18S13884   3.802   4.124   8.153  0.3766  0.6408  0.7001
  129OSM   H18S13885   3.709   4.122   8.214 -0.0689 -1.4016  0.0559
  129OSM   H18T13886   3.883   4.175   8.208  0.2507 -0.6898  2.2033
  129OSM   H18U13887   3.836   4.025   8.114 -2.6860 -0.9391  1.6666
  129OSM    C1F13888   3.529   4.385   6.809 -0.3978  0.2935  0.5819
  129OSM     OF13889   3.427   4.338   6.757 -0.1907  0.2748 -0.0380
  129OSM    C2F13890   3.526   4.474   6.929 -0.5774  0.2013  0.1762
  129OSM    H2F13891   3.571   4.568   6.892 -1.1737  0.7640  0.8537
  129OSM    H2G13892   3.598   4.427   7.000 -0.9490 -0.1370  0.3369
  129OSM    C3F13893   3.385   4.495   6.993 -0.5300  0.2030  0.0659
  129OSM    H3F13894   3.334   4.410   7.043  3.0679 -1.5117  1.2037
  129OSM    H3G13895   3.329   4.546   6.913  0.7226  2.9401  0.8074
  129OSM    C4F13896   3.382   4.600   7.105  0.3813 -0.7571  0.1978
  129OSM    H4F13897   3.435   4.694   7.079 -0.5256  0.1738  1.5852
  129OSM    H4G13898   3.435   4.558   7.193  1.7547 -0.0599 -0.2702
  129OSM    C5F13899   3.240   4.630   7.153 -0.2051 -0.7797 -0.1425
  129OSM    H5F13900   3.178   4.538   7.154  0.0193 -0.9492 -0.8371
  129OSM    H5G13901   3.205   4.713   7.087  1.3881  1.2243  1.4105
  129OSM    C6F13902   3.240   4.686   7.299 -0.0399 -0.3541 -0.5639
  129OSM    H6F13903   3.310   4.772   7.302  0.9461 -1.0771 -1.7726
  129OSM    H6G13904   3.288   4.611   7.365  0.8372 -1.5986 -2.5245
  129OSM    C7F13905   3.100   4.727   7.352  0.2891 -0.1363  0.7495
  129OSM    H7F13906   3.073   4.828   7.312 -3.1642 -0.8135  1.1037
  129OSM    H7G13907   3.108   4.751   7.460 -0.2525  5.1169 -0.0888
  129OSM    C8F13908   2.976   4.639   7.311  0.2907 -0.4287  0.4918
  129OSM    H8F13909   2.978   4.636   7.200 -0.3328 -1.1421  0.4934
  129OSM    H8G13910   2.880   4.686   7.342 -0.1198 -1.2794  0.5378
  129OSM    C9F13911   2.978   4.497   7.364 -0.4433 -0.0658 -0.3241
  129OSM    H9F13912   3.059   4.436   7.321 -1.7476 -2.3032  0.2534
  129OSM   C10F13913   2.895   4.432   7.454  0.0039  0.6276  0.2666
  129OSM   H10F13914   2.910   4.327   7.484 -0.8534  0.7586  1.1999
  129OSM   C11F13915   2.781   4.492   7.536  0.4353  0.8580  0.5963
  129OSM   H11F13916   2.696   4.421   7.542  0.0251  1.2450 -0.4699
  129OSM   H11G13917   2.740   4.579   7.480  1.0259 -0.3214 -1.8284
  129OSM   C12F13918   2.820   4.543   7.679  0.3417  0.0211  0.1636
  129OSM   H12F13919   2.840   4.456   7.745 -0.5776  0.9454  1.7301
  129OSM   H12G13920   2.729   4.593   7.719 -0.6841 -0.6683 -1.2235
  129OSM   C13F13921   2.932   4.650   7.677  0.2370  0.6373  0.2186
  129OSM   H13F13922   2.919   4.734   7.605 -0.0242  0.7558  0.4027
  129OSM   H13G13923   3.025   4.602   7.642  0.2046  1.0245 -0.4146
  129OSM   C14F13924   2.952   4.705   7.821  0.0834 -0.3222  0.0144
  129OSM   H14F13925   2.990   4.623   7.886  0.9731  0.1756  0.1315
  129OSM   H14G13926   2.858   4.739   7.869  0.3063  0.2003  0.0882
  129OSM   C15F13927   3.056   4.823   7.819  0.5599  0.0699 -0.2067
  129OSM   H15F13928   3.047   4.867   7.921  0.0737 -2.4445  0.9109
  129OSM   H15G13929   3.021   4.907   7.755  0.2936  1.4787  1.7124
  129OSM   C16F13930   3.194   4.769   7.786  0.4880  0.5793  0.3410
  129OSM   H16F13931   3.201   4.734   7.681  0.0955  0.4952  0.3412
  129OSM   H16G13932   3.200   4.682   7.855 -0.0486  0.7399  0.5943
  129OSM   C17F13933   3.305   4.861   7.820 -0.1788 -0.9526 -0.3728
  129OSM   H17F13934   3.295   4.947   7.751  0.5761 -0.3753  0.2107
  129OSM   H17G13935   3.405   4.813   7.811  0.7821  1.1528 -1.5010
  129OSM   C18F13936   3.305   4.932   7.960  0.1286 -0.2560  0.2200
  129OSM   H18F13937   3.406   4.968   7.987 -0.4922  0.9970  0.9400
  129OSM   H18G13938   3.269   4.857   8.034 -3.4301  0.8036 -0.2505
  129OSM   H18H13939   3.239   5.021   7.961 -0.0166 -0.3301  2.7922
  130OSM      N13940   6.493   5.597   5.889  0.0648 -0.2722 -0.5210
  130OSM    C1513941   6.480   5.629   5.749 -0.4086  0.0639  0.1788
  130OSM   H15A13942   6.557   5.584   5.687 -1.7990 -1.4897 -0.4893
  130OSM   H15B13943   6.479   5.735   5.732 -1.6227 -0.1690 -1.4086
  130OSM   H15C13944   6.385   5.591   5.714  0.5230  0.1929 -2.7596
  130OSM    C1413945   6.421   5.712   5.962  0.2261 -0.1921  0.2481
  130OSM   H14A13946   6.374   5.688   6.056  0.1606  1.3872  0.6526
  130OSM   H14B13947   6.344   5.747   5.894 -0.4719 -1.4217  0.3797
  130OSM   H14C13948   6.490   5.790   5.991  1.3761 -0.5613 -1.3355
  130OSM    C1313949   6.404   5.480   5.906  0.6963  0.1639 -0.2295
  130OSM   H13A13950   6.410   5.446   6.008  2.8343  0.7939 -0.1036
  130OSM   H13B13951   6.442   5.401   5.843  0.5922  0.6431 -0.8999
  130OSM   H13C13952   6.299   5.498   5.888  0.3525 -1.3151  0.1884
  130OSM    C1213953   6.636   5.569   5.922 -0.4022  0.0630 -0.4265
  130OSM   H12A13954   6.703   5.636   5.871  2.0105 -1.9057 -0.0188
  130OSM   H12B13955   6.661   5.469   5.889 -0.7767 -0.7069  1.4886
  130OSM    C1113956   6.680   5.585   6.072  0.2419  0.3890  0.4959
  130OSM   H11A13957   6.779   5.538   6.091  0.9577  0.1564 -3.1642
  130OSM   H11B13958   6.604   5.533   6.134  1.3207 -2.1916 -0.2214
  130OSM      P13959   6.791   5.823   6.051  0.0003  0.3093 -0.0757
  130OSM    O1313960   6.816   5.805   5.907  0.2419 -0.1519  0.1534
  130OSM    O1413961   6.750   5.956   6.086 -0.5142  0.5865  0.0805
  130OSM    O1113962   6.915   5.774   6.135  0.1126  0.0541  0.2947
  130OSM    O1213963   6.682   5.726   6.101 -0.3270  0.0642 -0.3225
  130OSM    C1S13964   6.950   5.816   6.263 -0.1953  0.5523 -0.0012
  130OSM    H1S13965   6.865   5.863   6.317  0.8248  1.3586  0.9638
  130OSM    H1T13966   7.029   5.893   6.258  0.3473 -0.0036 -0.1848
  130OSM     NF13967   7.023   5.742   6.478  0.4419  0.4826 -0.2359
  130OSM    HNF13968   7.109   5.768   6.521 -0.5925  1.1313  1.5441
  130OSM    C2S13969   7.011   5.700   6.339  0.3407  0.2508  0.2098
  130OSM    H2S13970   6.935   5.619   6.336 -1.5590  1.9906 -0.9597
  130OSM    C3S13971   7.151   5.659   6.284 -0.2613 -1.0727  0.8919
  130OSM    H3S13972   7.219   5.745   6.304 -1.4515  0.7782 -2.2836
  130OSM     O313973   7.164   5.648   6.142 -0.3363  0.3354 -0.7072
  130OSM    HO313974   7.074   5.659   6.111 -1.0639 -1.0106  0.7709
  130OSM    C4S13975   7.205   5.548   6.360  0.0707 -0.1214 -0.5812
  130OSM    H4S13976   7.131   5.466   6.363 -2.3316  1.9473  0.7050
  130OSM    C5S13977   7.328   5.541   6.416 -0.2209 -0.3731  0.0174
  130OSM    H5S13978   7.405   5.619   6.407  0.4335 -1.1266 -1.0235
  130OSM    C6S13979   7.375   5.421   6.504 -0.2355 -0.6625 -0.2314
  130OSM    H6S13980   7.440   5.348   6.450 -0.4269 -0.6610 -0.4645
  130OSM    H6T13981   7.286   5.376   6.553 -1.3478  0.7223 -0.9088
  130OSM    C7S13982   7.460   5.467   6.624  0.0039 -0.2168 -0.3708
  130OSM    H7S13983   7.391   5.532   6.682 -1.4820 -1.2975 -0.8656
  130OSM    H7T13984   7.540   5.520   6.568  0.3526 -0.8658 -0.4968
  130OSM    C8S13985   7.543   5.363   6.711  0.6747  0.2153  0.1842
  130OSM    H8S13986   7.622   5.413   6.772  0.4105  1.4833 -0.4870
  130OSM    H8T13987   7.586   5.284   6.646  0.8150  0.7978 -0.4409
  130OSM    C9S13988   7.453   5.288   6.815 -0.4448  0.2501  0.1750
  130OSM    H9S13989   7.396   5.219   6.749  1.7235  1.7329 -3.5397
  130OSM    H9T13990   7.374   5.355   6.856 -0.7675 -1.1141  1.9529
  130OSM   C10S13991   7.529   5.212   6.926  0.2022 -0.6984 -0.3980
  130OSM   H10S13992   7.613   5.162   6.871  1.3285  0.8135 -0.1095
  130OSM   H10T13993   7.473   5.122   6.959  3.2524 -2.5937  0.0807
  130OSM   C11S13994   7.584   5.287   7.044 -0.3598 -0.2953  0.3177
  130OSM   H11S13995   7.547   5.391   7.036 -0.4536 -0.2928  0.7464
  130OSM   H11T13996   7.694   5.291   7.037 -0.4049 -0.8144 -1.1703
  130OSM   C12S13997   7.546   5.236   7.186 -0.2255  0.4220 -0.0876
  130OSM   H12S13998   7.560   5.126   7.196 -1.2558  0.1167 -1.6812
  130OSM   H12T13999   7.437   5.250   7.202 -1.0377 -1.9579 -2.6541
  130OSM   C13S14000   7.615   5.297   7.310 -0.7439 -0.2162  1.1471
  130OSM   H13S14001   7.574   5.399   7.324 -1.6337 -0.3047 -0.5450
  130OSM   H13T14002   7.722   5.322   7.291 -1.7799  3.4874 -0.7090
  130OSM   C14S14003   7.601   5.215   7.437  0.0122  0.1157 -0.1608
  130OSM   H14S14004   7.642   5.114   7.416 -0.6241  0.0206 -0.9618
  130OSM   H14T14005   7.494   5.198   7.462 -0.2780 -2.6325 -2.7101
  130OSM   C15S14006   7.659   5.268   7.572  0.1789  0.0088  0.3999
  130OSM   H15S14007   7.599   5.357   7.599 -1.3400 -0.8883  0.1263
  130OSM   H15T14008   7.765   5.299   7.564  1.3058 -3.4384  0.2755
  130OSM   C16S14009   7.659   5.175   7.689  0.3511  0.2675 -0.4862
  130OSM   H16S14010   7.740   5.099   7.681 -1.3618 -1.5095 -1.6816
  130OSM   H16T14011   7.568   5.112   7.694 -0.6613  1.5755 -1.6687
  130OSM   C17S14012   7.659   5.243   7.828 -0.2528  0.4701  0.9150
  130OSM   H17S14013   7.594   5.332   7.833 -2.8361 -1.3313  1.5545
  130OSM   H17T14014   7.759   5.284   7.853 -0.1950  0.1540  1.2189
  130OSM   C18S14015   7.601   5.152   7.940  0.7343 -0.4987 -0.0035
  130OSM   H18S14016   7.605   5.187   8.045  1.5433  0.5208 -0.3595
  130OSM   H18T14017   7.647   5.051   7.947 -2.1055 -1.8418  0.5546
  130OSM   H18U14018   7.493   5.142   7.915  0.2574 -0.1324  1.7220
  130OSM    C1F14019   6.914   5.741   6.554  0.1529 -0.5989 -0.0088
  130OSM     OF14020   6.805   5.701   6.513  0.3665 -0.0121 -0.5848
  130OSM    C2F14021   6.927   5.800   6.692 -0.3825 -0.1138 -0.1503
  130OSM    H2F14022   6.890   5.904   6.680 -0.1139 -0.0251 -0.2134
  130OSM    H2G14023   7.037   5.795   6.707 -0.4020 -3.5542 -0.3088
  130OSM    C3F14024   6.854   5.723   6.804 -0.2712  0.4797  0.2247
  130OSM    H3F14025   6.878   5.615   6.814 -0.5067  0.5782  2.1230
  130OSM    H3G14026   6.745   5.733   6.789 -0.0427  0.8809 -1.3409
  130OSM    C4F14027   6.899   5.779   6.940 -0.1176 -0.4619 -0.7167
  130OSM    H4F14028   6.872   5.886   6.947  0.3953 -0.3627 -0.0843
  130OSM    H4G14029   7.009   5.763   6.951 -0.0781  0.1295 -0.1444
  130OSM    C5F14030   6.838   5.706   7.058  0.2581  0.2672  0.0099
  130OSM    H5F14031   6.890   5.608   7.059  0.6271  0.4615  0.5232
  130OSM    H5G14032   6.735   5.696   7.019  1.4354 -2.1634 -2.8337
  130OSM    C6F14033   6.843   5.777   7.189 -0.0786  0.2030 -0.1056
  130OSM    H6F14034   6.804   5.878   7.167  0.9406  0.8832  1.0981
  130OSM    H6G14035   6.951   5.784   7.215  0.1263  1.4841 -1.1934
  130OSM    C7F14036   6.754   5.708   7.297 -0.0740 -0.2778  0.7897
  130OSM    H7F14037   6.664   5.660   7.252  0.8750 -0.4856 -0.9596
  130OSM    H7G14038   6.721   5.785   7.370  0.0745 -0.6743  1.2867
  130OSM    C8F14039   6.839   5.602   7.378 -0.1093 -0.1630  0.0389
  130OSM    H8F14040   6.933   5.640   7.423  0.1061 -2.8429  2.1270
  130OSM    H8G14041   6.878   5.529   7.304 -3.1029 -2.6294  0.6934
  130OSM    C9F14042   6.757   5.535   7.477 -0.3355 -0.1146 -0.3802
  130OSM    H9F14043   6.689   5.464   7.427 -0.5719 -0.2174  0.0805
  130OSM   C10F14044   6.745   5.554   7.614  0.2401 -0.6131  0.6544
  130OSM   H10F14045   6.674   5.486   7.664 -0.2105  0.0089  0.8742
  130OSM   C11F14046   6.817   5.652   7.696 -0.5529  0.5672 -0.5584
  130OSM   H11F14047   6.777   5.754   7.679 -0.9345  0.6157  0.5472
  130OSM   H11G14048   6.925   5.653   7.669 -0.6229  1.3015 -0.8329
  130OSM   C12F14049   6.795   5.640   7.846  0.2044 -0.3947  0.6624
  130OSM   H12F14050   6.689   5.663   7.869  0.1260  2.3699 -1.8176
  130OSM   H12G14051   6.856   5.719   7.895  2.1717  0.7950 -3.2664
  130OSM   C13F14052   6.840   5.505   7.906  0.9238  0.9451  0.0800
  130OSM   H13F14053   6.935   5.465   7.865 -0.3164 -2.9221  0.5786
  130OSM   H13G14054   6.757   5.438   7.875  0.4153  1.8389 -0.5037
  130OSM   C14F14055   6.861   5.499   8.061  0.1113 -0.4692  0.3249
  130OSM   H14F14056   6.775   5.551   8.109  1.0337  0.0265  1.4886
  130OSM   H14G14057   6.949   5.562   8.086  0.0182  0.8752 -2.3320
  130OSM   C15F14058   6.859   5.363   8.130  0.0605 -0.4757 -1.2305
  130OSM   H15F14059   6.933   5.297   8.078 -0.6795 -3.6882  1.5083
  130OSM   H15G14060   6.751   5.340   8.122 -0.4263  1.3434 -0.3135
  130OSM   C16F14061   6.889   5.370   8.280 -0.1871 -0.7187  0.0996
  130OSM   H16F14062   6.798   5.402   8.335  0.4729 -0.9732  1.4016
  130OSM   H16G14063   6.955   5.458   8.290 -2.0011  0.9493 -1.7592
  130OSM   C17F14064   6.950   5.249   8.356 -0.2168  0.3687 -0.6487
  130OSM   H17F14065   6.973   5.285   8.458  1.8498  2.0341 -1.6130
  130OSM   H17G14066   7.049   5.228   8.310 -0.1589  1.9152 -1.2994
  130OSM   C18F14067   6.853   5.122   8.358 -0.2541 -0.0748  0.4628
  130OSM   H18F14068   6.895   5.039   8.418  0.9260  0.0845 -0.1100
  130OSM   H18G14069   6.825   5.093   8.255  1.2084  0.4417 -0.1159
  130OSM   H18H14070   6.764   5.158   8.414  1.4077  2.3576  1.7856
  131OSM      N14071   5.368   2.253   5.959 -0.3728  0.5880 -0.6565
  131OSM    C1514072   5.386   2.119   5.900  0.4439 -0.1911 -0.5296
  131OSM   H15A14073   5.309   2.046   5.920 -0.6929  0.6916 -1.4892
  131OSM   H15B14074   5.480   2.072   5.920  1.0306  1.2041  0.1532
  131OSM   H15C14075   5.403   2.124   5.794 -2.0203 -0.0662 -0.9959
  131OSM    C1414076   5.351   2.246   6.104  0.5030 -0.1382 -1.3631
  131OSM   H14A14077   5.278   2.171   6.134  1.1283 -0.2161  0.0496
  131OSM   H14B14078   5.326   2.341   6.149  1.1074 -0.1088 -1.0822
  131OSM   H14C14079   5.440   2.205   6.150  0.6019  1.5455  0.0705
  131OSM    C1314080   5.488   2.332   5.924  0.3883  0.6031  0.2931
  131OSM   H13A14081   5.512   2.334   5.819  1.5054  0.7270  0.5424
  131OSM   H13B14082   5.577   2.285   5.965  0.9254  1.7868  0.5173
  131OSM   H13C14083   5.474   2.431   5.965 -2.4509  0.1309  0.6787
  131OSM    C1214084   5.240   2.314   5.897 -0.7276  0.9634 -0.6270
  131OSM   H12A14085   5.161   2.241   5.895 -0.5881  0.8008 -0.2363
  131OSM   H12B14086   5.270   2.335   5.795  1.3804  0.4494 -0.1646
  131OSM    C1114087   5.192   2.453   5.952  0.6524  0.5864 -0.2341
  131OSM   H11A14088   5.162   2.436   6.057  0.7074 -0.5081 -0.3924
  131OSM   H11B14089   5.103   2.484   5.892  0.5721 -1.7611 -1.4394
  131OSM      P14090   5.306   2.674   6.037  0.0276  0.4140  0.0124
  131OSM    O1314091   5.438   2.740   6.019  0.3480 -0.1765 -0.1009
  131OSM    O1414092   5.187   2.767   6.037 -0.5119 -0.0534 -0.3017
  131OSM    O1114093   5.305   2.593   6.172 -0.5151  0.4557 -0.3059
  131OSM    O1214094   5.288   2.559   5.929  0.0068  0.5783  0.1646
  131OSM    C1S14095   5.263   2.652   6.291  0.4307 -0.9067  0.5462
  131OSM    H1S14096   5.152   2.654   6.292  0.3883 -1.8840 -0.4909
  131OSM    H1T14097   5.312   2.752   6.296  0.1731 -0.7644  0.2835
  131OSM     NF14098   5.213   2.611   6.521  0.3637  0.4476  0.3000
  131OSM    HNF14099   5.250   2.671   6.592 -1.9676  1.9669  0.3322
  131OSM    C2S14100   5.298   2.562   6.413 -0.0335 -0.9241 -0.2536
  131OSM    H2S14101   5.274   2.456   6.388  0.4704 -1.3964  1.1804
  131OSM    C3S14102   5.451   2.566   6.435 -0.0040  0.5837 -0.2571
  131OSM    H3S14103   5.471   2.674   6.451 -0.8287  0.8897 -1.1952
  131OSM     O314104   5.533   2.544   6.323  0.2616  0.3165 -0.1411
  131OSM    HO314105   5.468   2.544   6.253 -1.9276 -2.3186  1.6752
  131OSM    C4S14106   5.500   2.486   6.553 -0.2982  0.1216 -0.3326
  131OSM    H4S14107   5.501   2.542   6.647 -0.0017  0.7044 -0.6815
  131OSM    C5S14108   5.517   2.348   6.556 -0.1110  0.9208  0.8384
  131OSM    H5S14109   5.521   2.298   6.459 -0.7315  2.8426 -0.2437
  131OSM    C6S14110   5.556   2.254   6.668 -0.0342  0.2374 -0.5596
  131OSM    H6S14111   5.644   2.188   6.651 -0.5284 -0.8173  0.7049
  131OSM    H6T14112   5.482   2.171   6.677 -0.0206  0.0850 -1.6885
  131OSM    C7S14113   5.581   2.326   6.799  0.0206 -0.4036  0.1249
  131OSM    H7S14114   5.492   2.383   6.836 -0.6056 -1.4766  0.3232
  131OSM    H7T14115   5.656   2.407   6.790  0.0723 -0.1484  2.3101
  131OSM    C8S14116   5.624   2.237   6.907  0.0336  0.5245 -0.0150
  131OSM    H8S14117   5.708   2.175   6.867  2.5285  3.8242 -0.3110
  131OSM    H8T14118   5.549   2.161   6.938  1.0586 -0.3964  0.3150
  131OSM    C9S14119   5.695   2.295   7.027  0.5542 -0.9495 -0.0594
  131OSM    H9S14120   5.744   2.393   7.006 -1.2167  0.2702  1.1633
  131OSM    H9T14121   5.772   2.221   7.057 -0.7350 -2.6955 -0.9171
  131OSM   C10S14122   5.596   2.317   7.143  0.6302  0.3479 -0.2345
  131OSM   H10S14123   5.540   2.221   7.147  3.4913 -1.4002  0.1922
  131OSM   H10T14124   5.531   2.402   7.112 -1.6962 -1.7482 -1.4935
  131OSM   C11S14125   5.674   2.341   7.274  0.1382 -0.4177  0.5274
  131OSM   H11S14126   5.733   2.433   7.255 -0.9536 -0.0753 -1.3624
  131OSM   H11T14127   5.756   2.266   7.278 -0.6374 -1.2589  1.0826
  131OSM   C12S14128   5.597   2.350   7.403 -0.0084 -0.1159 -0.6931
  131OSM   H12S14129   5.529   2.263   7.413  0.9990 -0.7572  1.0946
  131OSM   H12T14130   5.528   2.431   7.370  1.6939  1.5774 -0.2776
  131OSM   C13S14131   5.673   2.354   7.539  0.3993  0.0718 -0.3425
  131OSM   H13S14132   5.747   2.437   7.540 -1.8508  2.2293 -1.7650
  131OSM   H13T14133   5.729   2.258   7.546 -0.6929 -0.5289  0.4227
  131OSM   C14S14134   5.575   2.376   7.652  0.1366  0.2643  0.4412
  131OSM   H14S14135   5.498   2.299   7.636 -1.0375  1.4219  0.3261
  131OSM   H14T14136   5.530   2.478   7.651 -2.1584 -0.6951 -1.4350
  131OSM   C15S14137   5.640   2.357   7.792  0.3110 -0.2948 -0.4615
  131OSM   H15S14138   5.709   2.439   7.821 -1.6132  1.0868  0.4337
  131OSM   H15T14139   5.685   2.255   7.792 -1.1980 -1.0622  2.1497
  131OSM   C16S14140   5.527   2.351   7.900 -0.2880 -0.1667 -0.1626
  131OSM   H16S14141   5.471   2.256   7.893  0.9971 -0.8411 -2.2143
  131OSM   H16T14142   5.454   2.430   7.873 -3.6878 -2.2686  2.1500
  131OSM   C17S14143   5.598   2.365   8.032 -0.5354  0.0856 -0.3551
  131OSM   H17S14144   5.675   2.444   8.017 -0.7896  0.4121  0.0252
  131OSM   H17T14145   5.641   2.267   8.060  1.5620  0.4800 -1.9825
  131OSM   C18S14146   5.500   2.412   8.136  0.2016  0.2209  0.0524
  131OSM   H18S14147   5.551   2.428   8.234  0.7822 -1.5599  0.0808
  131OSM   H18T14148   5.424   2.333   8.151  1.8082 -1.4811 -0.3608
  131OSM   H18U14149   5.450   2.507   8.110  1.5099  0.6670 -0.9543
  131OSM    C1F14150   5.085   2.579   6.533  0.1166 -0.1016  0.5628
  131OSM     OF14151   5.034   2.496   6.462 -0.0994 -0.2118 -0.6642
  131OSM    C2F14152   5.015   2.639   6.650  0.1170 -0.3034  0.2365
  131OSM    H2F14153   4.975   2.739   6.624 -0.1089 -0.2779  0.6753
  131OSM    H2G14154   5.080   2.655   6.739 -0.4369  0.1796  0.5666
  131OSM    C3F14155   4.893   2.554   6.690 -0.4644  0.2277 -0.6993
  131OSM    H3F14156   4.923   2.451   6.719 -0.1297  0.2956 -0.7980
  131OSM    H3G14157   4.816   2.549   6.611 -1.6095  1.2436  0.3052
  131OSM    C4F14158   4.804   2.624   6.796 -0.4007  0.0510 -0.2236
  131OSM    H4F14159   4.754   2.716   6.757 -2.3918 -0.2549  1.4435
  131OSM    H4G14160   4.868   2.640   6.885 -1.0580 -0.7702  0.4069
  131OSM    C5F14161   4.691   2.518   6.833  0.3379 -0.0866 -0.0109
  131OSM    H5F14162   4.734   2.417   6.851 -1.0935 -0.6550  0.3497
  131OSM    H5G14163   4.628   2.492   6.746  1.2796 -2.4188 -0.0761
  131OSM    C6F14164   4.613   2.557   6.957 -0.7533  0.8817  0.1929
  131OSM    H6F14165   4.667   2.588   7.049 -0.6649 -0.8416  0.7674
  131OSM    H6G14166   4.568   2.464   6.998  1.8545  0.2659  1.8951
  131OSM    C7F14167   4.505   2.660   6.926 -0.7777 -0.4971  0.3632
  131OSM    H7F14168   4.461   2.638   6.826 -0.9741  0.7375  0.1629
  131OSM    H7G14169   4.545   2.763   6.922 -0.5215 -0.6181 -0.3367
  131OSM    C8F14170   4.389   2.672   7.030 -0.0703 -0.5298 -0.9581
  131OSM    H8F14171   4.321   2.748   6.986 -2.0514 -2.1331 -0.7731
  131OSM    H8G14172   4.438   2.706   7.123  1.2930 -2.9633 -0.6973
  131OSM    C9F14173   4.321   2.538   7.027 -0.5444 -0.1313 -0.5938
  131OSM    H9F14174   4.290   2.503   6.927  1.5997 -2.1161 -0.6511
  131OSM   C10F14175   4.286   2.454   7.128 -0.4693  0.2408  0.0723
  131OSM   H10F14176   4.238   2.362   7.092  0.3675 -0.1765  0.0053
  131OSM   C11F14177   4.305   2.489   7.278 -0.4316  0.3142 -0.1020
  131OSM   H11F14178   4.374   2.575   7.287 -1.9819  1.4874  1.1092
  131OSM   H11G14179   4.365   2.407   7.324  1.1307  0.8835 -1.0541
  131OSM   C12F14180   4.187   2.509   7.373 -0.4335 -0.9399 -1.6034
  131OSM   H12F14181   4.136   2.416   7.403 -0.1407 -0.9238 -1.0470
  131OSM   H12G14182   4.112   2.576   7.325 -0.5135  0.3894  0.2633
  131OSM   C13F14183   4.232   2.576   7.502  0.5978 -1.0367 -0.4086
  131OSM   H13F14184   4.249   2.683   7.480 -2.2246  0.0772  2.1630
  131OSM   H13G14185   4.325   2.524   7.533 -0.1934 -2.0206  0.3745
  131OSM   C14F14186   4.133   2.576   7.616  0.5326 -0.3031 -0.5075
  131OSM   H14F14187   4.102   2.472   7.641 -3.4493  0.4436 -1.7308
  131OSM   H14G14188   4.047   2.637   7.581  0.7066  0.7770  0.8960
  131OSM   C15F14189   4.185   2.642   7.743 -0.1973  0.1911 -0.1141
  131OSM   H15F14190   4.187   2.750   7.719 -1.9905  0.2718 -0.0174
  131OSM   H15G14191   4.289   2.607   7.763 -0.2390 -0.2003 -0.5573
  131OSM   C16F14192   4.108   2.613   7.880 -0.0744  0.8602 -0.2330
  131OSM   H16F14193   4.067   2.510   7.881  0.5892  0.5396  2.4307
  131OSM   H16G14194   4.017   2.675   7.890 -1.0620 -0.2788 -1.7497
  131OSM   C17F14195   4.195   2.642   7.999  0.6299 -0.0701  0.4937
  131OSM   H17F14196   4.284   2.578   8.018  0.6714  0.4962  2.4272
  131OSM   H17G14197   4.134   2.608   8.086  1.3325 -1.5340  0.4527
  131OSM   C18F14198   4.213   2.794   8.023  0.2161  0.3132 -0.5917
  131OSM   H18F14199   4.282   2.814   8.108 -0.6272 -0.9170  0.4239
  131OSM   H18G14200   4.117   2.842   8.050 -0.7953 -1.7127 -0.3741
  131OSM   H18H14201   4.263   2.842   7.936 -0.2861  1.1529 -0.4241
  132OSM      N14202   6.633   3.060   5.907 -0.0013  0.2413 -0.1495
  132OSM    C1514203   6.547   2.953   5.845 -0.4039  1.2866 -0.2151
  132OSM   H15A14204   6.452   2.952   5.894 -0.1325  1.3081  0.3162
  132OSM   H15B14205   6.592   2.857   5.861 -0.0677  1.5310  0.3416
  132OSM   H15C14206   6.544   2.958   5.737  0.3612  0.3990 -0.2966
  132OSM    C1414207   6.620   3.061   6.057 -0.4482 -0.0871 -0.2515
  132OSM   H14A14208   6.647   2.964   6.098  0.8678  0.6856  0.8265
  132OSM   H14B14209   6.518   3.086   6.080 -0.1232  1.4031 -0.3390
  132OSM   H14C14210   6.694   3.131   6.094  0.7404 -0.1921 -2.3008
  132OSM    C1314211   6.775   3.027   5.877 -0.2389 -0.5837 -0.4821
  132OSM   H13A14212   6.809   2.926   5.895  1.2108 -0.2695 -1.2336
  132OSM   H13B14213   6.841   3.103   5.917 -1.2095  0.1076 -0.1621
  132OSM   H13C14214   6.788   3.037   5.770  2.8610  1.2492 -0.0505
  132OSM    C1214215   6.594   3.195   5.854 -0.0309  0.4515 -0.3651
  132OSM   H12A14216   6.490   3.210   5.879  0.4496  1.7150  1.0390
  132OSM   H12B14217   6.598   3.182   5.747  1.0204  1.4878 -0.4706
  132OSM    C1114218   6.669   3.312   5.916  0.4118  0.4895  0.0867
  132OSM   H11A14219   6.645   3.395   5.846  1.2253 -0.0301 -0.8360
  132OSM   H11B14220   6.778   3.292   5.906  0.4486  0.1324  1.1150
  132OSM      P14221   6.509   3.426   6.083 -0.3278  0.3254  0.4570
  132OSM    O1314222   6.490   3.534   5.982  0.4817  0.3694 -0.5078
  132OSM    O1414223   6.396   3.333   6.107 -0.3637  0.0764 -0.0386
  132OSM    O1114224   6.545   3.493   6.223  0.7899  0.4978  0.2816
  132OSM    O1214225   6.634   3.347   6.050 -0.2753  0.4223 -0.0461
  132OSM    C1S14226   6.493   3.426   6.343 -0.0412 -0.1399  0.3994
  132OSM    H1S14227   6.507   3.316   6.342  2.5831  0.1403 -0.3627
  132OSM    H1T14228   6.386   3.447   6.365 -0.2416 -0.8565  0.1358
  132OSM     NF14229   6.514   3.415   6.594  0.5531 -0.1772 -0.0911
  132OSM    HNF14230   6.447   3.457   6.655  0.7394  0.7253 -0.5028
  132OSM    C2S14231   6.565   3.478   6.472  1.0382 -0.2287 -0.4554
  132OSM    H2S14232   6.674   3.456   6.465  1.0679  0.2762 -1.9462
  132OSM    C3S14233   6.560   3.632   6.472 -0.2160 -0.5420 -0.9974
  132OSM    H3S14234   6.454   3.656   6.492 -0.2202 -1.5524  0.3481
  132OSM     O314235   6.602   3.698   6.350  0.5685  0.4279 -0.2812
  132OSM    HO314236   6.576   3.622   6.296 -1.1663 -0.2901  1.4495
  132OSM    C4S14237   6.646   3.682   6.586 -0.3240  0.3591 -0.5023
  132OSM    H4S14238   6.754   3.662   6.580 -0.3169 -1.2011  2.8122
  132OSM    C5S14239   6.606   3.749   6.696 -0.2958 -0.0634  0.2711
  132OSM    H5S14240   6.499   3.765   6.716 -0.2773 -0.3905  0.6604
  132OSM    C6S14241   6.696   3.786   6.806  0.5631  0.0713 -0.0048
  132OSM    H6S14242   6.708   3.897   6.812  1.7028  0.2693 -3.5305
  132OSM    H6T14243   6.797   3.746   6.783 -0.4114 -3.3169  1.0287
  132OSM    C7S14244   6.654   3.710   6.940 -0.1447 -0.2824 -0.3597
  132OSM    H7S14245   6.652   3.601   6.918 -1.8633 -0.6324  1.2453
  132OSM    H7T14246   6.555   3.743   6.981  0.5741  0.6845  0.6608
  132OSM    C8S14247   6.761   3.735   7.061  0.2191  0.4047 -0.3568
  132OSM    H8S14248   6.763   3.845   7.076 -0.4832  0.4078 -0.2409
  132OSM    H8T14249   6.855   3.693   7.019 -0.2535 -1.3632  0.3111
  132OSM    C9S14250   6.710   3.653   7.182 -0.1637 -0.4262  0.5004
  132OSM    H9S14251   6.680   3.552   7.148 -0.6711 -0.5227  1.2035
  132OSM    H9T14252   6.623   3.703   7.229 -0.0648 -0.3859  0.6428
  132OSM   C10S14253   6.817   3.629   7.294 -0.2267 -0.0704 -0.1995
  132OSM   H10S14254   6.832   3.725   7.348 -2.2777  0.7944 -1.0684
  132OSM   H10T14255   6.909   3.576   7.260 -2.5211 -2.7998 -2.7197
  132OSM   C11S14256   6.752   3.554   7.414  0.1446  0.3106  0.2911
  132OSM   H11S14257   6.726   3.453   7.377  2.9622 -0.5392  0.3444
  132OSM   H11T14258   6.660   3.608   7.445 -0.0302  1.5661 -2.1337
  132OSM   C12S14259   6.838   3.538   7.541 -0.7825 -0.1523  0.3295
  132OSM   H12S14260   6.859   3.643   7.569 -2.8381  0.3921 -0.0467
  132OSM   H12T14261   6.937   3.500   7.506 -1.0101  0.4432 -1.0476
  132OSM   C13S14262   6.774   3.454   7.647  0.7486 -0.3222  0.1464
  132OSM   H13S14263   6.777   3.348   7.615  0.1019 -0.3745  0.2475
  132OSM   H13T14264   6.669   3.488   7.659  0.8881 -0.5267  2.3093
  132OSM   C14S14265   6.839   3.479   7.783  0.6203  0.6529  0.2418
  132OSM   H14S14266   6.818   3.586   7.805 -2.0071  0.0611  1.0294
  132OSM   H14T14267   6.947   3.453   7.792  0.5925  1.1641  2.6832
  132OSM   C15S14268   6.776   3.408   7.904 -0.6443 -0.0833 -0.2495
  132OSM   H15S14269   6.669   3.395   7.878 -1.0456  0.8450  0.8212
  132OSM   H15T14270   6.787   3.474   7.993  0.4828 -1.2070  0.4856
  132OSM   C16S14271   6.829   3.266   7.940  0.6110 -0.2118  0.6654
  132OSM   H16S14272   6.827   3.202   7.850 -2.0291  0.4502  0.1820
  132OSM   H16T14273   6.760   3.237   8.021 -0.9810  1.0982 -0.1686
  132OSM   C17S14274   6.968   3.279   8.004  0.4721  0.5168 -0.3816
  132OSM   H17S14275   6.956   3.339   8.097 -0.2403 -0.5872  0.2701
  132OSM   H17T14276   7.032   3.337   7.935 -0.2357 -0.2934 -1.7724
  132OSM   C18S14277   7.029   3.142   8.040  0.6259  0.0243 -0.4547
  132OSM   H18S14278   7.121   3.147   8.102  1.3356  1.3310 -1.5573
  132OSM   H18T14279   7.058   3.081   7.951  2.0895 -0.7633  0.5226
  132OSM   H18U14280   6.953   3.091   8.104 -0.5528  2.5571  0.2858
  132OSM    C1F14281   6.532   3.282   6.616  0.2101  0.1620  0.5106
  132OSM     OF14282   6.627   3.225   6.561  0.3171 -0.3367 -0.6849
  132OSM    C2F14283   6.443   3.215   6.713 -0.3107 -0.2656 -0.1031
  132OSM    H2F14284   6.363   3.170   6.649  0.2833  0.3943 -1.3480
  132OSM    H2G14285   6.396   3.291   6.779 -2.0969  1.6593 -3.3119
  132OSM    C3F14286   6.509   3.115   6.809 -0.3528  0.3886  0.1604
  132OSM    H3F14287   6.554   3.031   6.751 -0.4383  0.5909 -0.2037
  132OSM    H3G14288   6.428   3.072   6.872  0.9285 -0.8320  1.0386
  132OSM    C4F14289   6.613   3.175   6.898 -0.7262  0.0716 -0.6754
  132OSM    H4F14290   6.706   3.212   6.849  0.5132 -1.3019  0.5170
  132OSM    H4G14291   6.663   3.091   6.952 -1.3825  1.0027  1.5045
  132OSM    C5F14292   6.571   3.271   7.014  0.0438 -0.2850  0.2945
  132OSM    H5F14293   6.526   3.357   6.960 -1.6703 -1.4270 -0.1831
  132OSM    H5G14294   6.664   3.308   7.063 -0.3825 -0.7118  1.4612
  132OSM    C6F14295   6.473   3.231   7.122 -0.5383  0.5543  0.7865
  132OSM    H6F14296   6.370   3.215   7.085 -0.3207 -0.6559  0.6601
  132OSM    H6G14297   6.466   3.312   7.197 -0.9115  1.0698  0.1994
  132OSM    C7F14298   6.517   3.104   7.190 -0.0273  0.5546 -0.7517
  132OSM    H7F14299   6.622   3.109   7.225  0.0553 -0.4443 -0.8403
  132OSM    H7G14300   6.518   3.021   7.117  1.8620  0.5919 -0.8197
  132OSM    C8F14301   6.424   3.072   7.310  0.4949 -1.0290 -1.0686
  132OSM    H8F14302   6.318   3.053   7.280  0.0037  2.0009 -1.6048
  132OSM    H8G14303   6.426   3.169   7.364  0.9566 -2.7645  2.2743
  132OSM    C9F14304   6.457   2.957   7.399  0.4600 -0.1362  0.2063
  132OSM    H9F14305   6.488   2.867   7.344  0.3076  0.4095 -0.8063
  132OSM   C10F14306   6.458   2.961   7.531  0.6938 -0.0617  0.7117
  132OSM   H10F14307   6.468   2.866   7.584 -2.6083 -1.6360 -1.1631
  132OSM   C11F14308   6.428   3.081   7.622 -0.7944 -0.3364  0.1631
  132OSM   H11F14309   6.326   3.071   7.663 -0.6832 -3.7700 -0.0919
  132OSM   H11G14310   6.427   3.177   7.565 -2.2513 -0.8335 -0.6927
  132OSM   C12F14311   6.526   3.086   7.750  0.1889  0.5990 -0.3758
  132OSM   H12F14312   6.489   3.172   7.810 -1.6335  0.1889 -0.8606
  132OSM   H12G14313   6.630   3.105   7.715  0.1005  1.9199  0.0372
  132OSM   C13F14314   6.533   2.954   7.831  0.0140  0.0920  0.7749
  132OSM   H13F14315   6.627   2.961   7.890  2.3275 -1.7461 -2.4100
  132OSM   H13G14316   6.534   2.865   7.765 -3.0504  0.2768  0.3260
  132OSM   C14F14317   6.416   2.924   7.928  0.1302 -0.4248 -0.3929
  132OSM   H14F14318   6.425   2.821   7.967  0.8137 -0.1796  0.1254
  132OSM   H14G14319   6.327   2.926   7.862 -1.4440 -2.9831  1.4998
  132OSM   C15F14320   6.406   3.025   8.045  0.4050 -0.1246  0.3211
  132OSM   H15F14321   6.301   3.019   8.081  1.1634 -0.9091  2.5590
  132OSM   H15G14322   6.434   3.125   8.006  0.2971  0.4082  1.5613
  132OSM   C16F14323   6.495   2.994   8.166  0.0609 -0.0087 -0.2725
  132OSM   H16F14324   6.601   2.976   8.139 -0.0916  0.5205 -1.2809
  132OSM   H16G14325   6.456   2.909   8.225 -2.1316  0.5998 -0.7621
  132OSM   C17F14326   6.513   3.114   8.263 -0.1479  0.2927  0.4415
  132OSM   H17F14327   6.583   3.184   8.212  0.4545 -0.5895  0.0181
  132OSM   H17G14328   6.563   3.078   8.355 -0.9915 -2.0687  0.0554
  132OSM   C18F14329   6.380   3.183   8.305 -0.1872 -0.1306 -0.1143
  132OSM   H18F14330   6.397   3.252   8.390 -0.1624  1.9927 -1.7442
  132OSM   H18G14331   6.317   3.097   8.336 -1.0805  0.4560 -0.2740
  132OSM   H18H14332   6.337   3.240   8.219 -0.5515 -1.6194 -0.9512
  133OSM      N14333   0.848   3.348   6.254 -0.1979  0.2346 -0.7256
  133OSM    C1514334   0.821   3.426   6.126 -0.0663  0.4741 -0.0343
  133OSM   H15A14335   0.820   3.373   6.032  1.4254 -1.0033  0.7478
  133OSM   H15B14336   0.895   3.504   6.114  1.1914 -0.8380 -1.1631
  133OSM   H15C14337   0.721   3.468   6.134 -0.3055 -0.2741  1.1561
  133OSM    C1414338   0.987   3.295   6.242  0.6217 -0.7179  0.0976
  133OSM   H14A14339   1.066   3.367   6.232 -0.4210  0.7586  1.9084
  133OSM   H14B14340   0.980   3.224   6.161 -0.4721 -0.1292 -0.3326
  133OSM   H14C14341   1.013   3.230   6.325  0.5394 -0.0872  0.6228
  133OSM    C1314342   0.829   3.443   6.365  0.3943  0.0510 -0.4229
  133OSM   H13A14343   0.736   3.499   6.364 -0.4433 -1.2510  0.5867
  133OSM   H13B14344   0.905   3.519   6.354 -1.3718  1.5824 -3.2133
  133OSM   H13C14345   0.831   3.397   6.463  0.4214 -0.3863 -0.6273
  133OSM    C1214346   0.748   3.236   6.268  0.1898  0.1584 -0.1666
  133OSM   H12A14347   0.787   3.169   6.344 -1.4973 -0.4754  0.1868
  133OSM   H12B14348   0.764   3.181   6.176  2.3592 -0.3117  0.4387
  133OSM    C1114349   0.609   3.272   6.298  0.0961  0.8581  0.0309
  133OSM   H11A14350   0.603   3.328   6.394  0.1216  0.1459  0.4504
  133OSM   H11B14351   0.557   3.177   6.321  0.7678  0.7893  1.3958
  133OSM      P14352   0.403   3.418   6.239 -0.4666  0.0474  0.0341
  133OSM    O1314353   0.428   3.561   6.268 -0.1497  0.1771  1.0732
  133OSM    O1414354   0.305   3.383   6.135 -0.0609  0.1786 -0.3870
  133OSM    O1114355   0.359   3.362   6.377 -0.1508  0.3842 -0.7283
  133OSM    O1214356   0.541   3.343   6.201 -0.5447 -0.5417  0.7120
  133OSM    C1S14357   0.246   3.274   6.401  0.4053 -1.0830 -0.2106
  133OSM    H1S14358   0.259   3.172   6.360  1.2381 -1.4826  0.9927
  133OSM    H1T14359   0.160   3.301   6.335  2.0766 -1.5604 -2.7149
  133OSM     NF14360   0.112   3.158   6.577  0.0674  0.5452 -0.1109
  133OSM    HNF14361   0.016   3.186   6.580  0.9578  4.0406 -0.4639
  133OSM    C2S14362   0.209   3.261   6.553  0.3098 -1.0507 -0.0830
  133OSM    H2S14363   0.298   3.231   6.613  0.7435  0.6967  0.2178
  133OSM    C3S14364   0.174   3.403   6.602 -0.2216  0.6136 -0.5312
  133OSM    H3S14365   0.076   3.433   6.558 -0.8794 -0.8397 -0.0906
  133OSM     O314366   0.263   3.510   6.576  0.8021 -0.8629 -0.4280
  133OSM    HO314367   0.321   3.478   6.506  2.8388 -0.0796  0.7955
  133OSM    C4S14368   0.146   3.406   6.751  0.6092 -0.0637 -0.1786
  133OSM    H4S14369   0.043   3.433   6.777  0.4598 -1.1475  0.3807
  133OSM    C5S14370   0.234   3.408   6.849  0.6128  0.1877 -0.7214
  133OSM    H5S14371   0.341   3.417   6.824  0.9733 -1.7335 -0.0084
  133OSM    C6S14372   0.201   3.439   6.995  0.6699  0.2748 -0.0826
  133OSM    H6S14373   0.094   3.449   7.022  0.6952 -0.6660  0.4143
  133OSM    H6T14374   0.247   3.538   7.016 -1.5125  1.0542  1.3424
  133OSM    C7S14375   0.246   3.330   7.088 -0.2010 -1.3890  0.3635
  133OSM    H7S14376   0.295   3.382   7.173 -2.9398 -1.6231  2.2157
  133OSM    H7T14377   0.316   3.252   7.050  0.8611 -0.2049 -0.1908
  133OSM    C8S14378   0.131   3.249   7.144  0.0643  0.0430  0.4924
  133OSM    H8S14379   0.067   3.210   7.062 -0.0507  2.2938 -0.5540
  133OSM    H8T14380   0.060   3.311   7.204 -0.3883 -0.7979  0.8501
  133OSM    C9S14381   0.178   3.139   7.241 -0.6855  0.0355  0.6077
  133OSM    H9S14382   0.276   3.094   7.214 -1.1449 -0.9668  0.5667
  133OSM    H9T14383   0.103   3.058   7.241 -0.3407 -0.2857  1.0316
  133OSM   C10S14384   0.198   3.186   7.384  0.5942  0.2736  0.1448
  133OSM   H10S14385   0.113   3.250   7.415 -1.2058 -1.7123 -0.4353
  133OSM   H10T14386   0.276   3.264   7.373 -1.6177  2.7522  0.9076
  133OSM   C11S14387   0.225   3.085   7.486 -0.3794  0.0047 -1.0161
  133OSM   H11S14388   0.304   3.120   7.556 -0.2631  1.3204 -1.7843
  133OSM   H11T14389   0.266   2.989   7.447  2.2409  1.0670 -1.0815
  133OSM   C12S14390   0.104   3.029   7.567  0.4911 -0.9424  0.0989
  133OSM   H12S14391   0.004   3.007   7.525 -0.5972  0.2915  1.9197
  133OSM   H12T14392   0.077   3.099   7.649 -1.2681 -0.6095 -0.7325
  133OSM   C13S14393   0.145   2.905   7.637 -0.6254  0.2351  0.1419
  133OSM   H13S14394   0.254   2.916   7.656 -0.4674 -0.0639 -0.5438
  133OSM   H13T14395   0.146   2.816   7.570  0.8570 -1.4243  2.2289
  133OSM   C14S14396   0.076   2.870   7.768 -0.5299 -0.0732  0.1075
  133OSM   H14S14397  -0.022   2.820   7.750 -0.4411 -0.6108  1.0686
  133OSM   H14T14398   0.061   2.969   7.817  0.1455  0.1778 -0.1821
  133OSM   C15S14399   0.153   2.782   7.870  0.0716 -0.3218 -0.7036
  133OSM   H15S14400   0.255   2.823   7.886 -0.1361 -0.7356  2.3256
  133OSM   H15T14401   0.167   2.678   7.835 -2.2625 -1.1137  0.5444
  133OSM   C16S14402   0.081   2.770   8.007 -0.1098 -0.3596  0.5751
  133OSM   H16S14403   0.049   2.868   8.048 -0.3673 -0.3225  0.2870
  133OSM   H16T14404   0.151   2.727   8.082 -1.3198  0.8725  2.4897
  133OSM   C17S14405  -0.031   2.672   8.007 -0.3969 -0.6346  0.1605
  133OSM   H17S14406   0.005   2.572   7.973 -1.1506 -0.1377 -2.3194
  133OSM   H17T14407  -0.118   2.693   7.941  0.7857  0.2192 -1.1759
  133OSM   C18S14408  -0.079   2.653   8.153 -0.0195  0.2262  0.0144
  133OSM   H18S14409  -0.094   2.746   8.213  0.5599  0.8542 -0.7946
  133OSM   H18T14410  -0.012   2.588   8.214  0.7499 -0.8628 -1.9080
  133OSM   H18U14411  -0.178   2.603   8.147  1.4320 -2.7201 -1.2324
  133OSM    C1F14412   0.150   3.026   6.583 -0.1253 -0.7039  0.0596
  133OSM     OF14413   0.262   2.994   6.547  0.5979 -0.6325 -0.1326
  133OSM    C2F14414   0.041   2.929   6.622 -0.6529  0.2818 -0.4444
  133OSM    H2F14415  -0.004   2.880   6.534  0.0157 -1.0523 -0.0649
  133OSM    H2G14416  -0.028   2.986   6.688  1.3801  0.2718  1.8665
  133OSM    C3F14417   0.118   2.832   6.710  0.2419  0.7845 -0.0933
  133OSM    H3F14418   0.176   2.883   6.790 -0.0283 -0.1982  0.7495
  133OSM    H3G14419   0.194   2.782   6.647 -0.2060 -0.0646  0.0267
  133OSM    C4F14420   0.036   2.713   6.777 -0.6068  0.2869  0.8968
  133OSM    H4F14421   0.114   2.637   6.799  1.5530  2.1769  0.0982
  133OSM    H4G14422  -0.024   2.669   6.695  1.6428 -1.0512 -0.1285
  133OSM    C5F14423  -0.044   2.749   6.902  1.0628  0.3357  0.1954
  133OSM    H5F14424  -0.119   2.669   6.923  1.0523  0.2062 -0.3300
  133OSM    H5G14425  -0.096   2.846   6.885  0.1840  0.0357  1.0066
  133OSM    C6F14426   0.044   2.749   7.028 -0.6712 -0.1326  0.2931
  133OSM    H6F14427   0.141   2.799   7.005 -0.6428  0.0494  0.7966
  133OSM    H6G14428   0.081   2.644   7.032  0.8231  0.3871  0.6584
  133OSM    C7F14429  -0.029   2.803   7.153  0.3129 -0.0362  0.6332
  133OSM    H7F14430  -0.124   2.745   7.157  0.3123 -0.0431  0.5140
  133OSM    H7G14431  -0.052   2.910   7.131 -1.7658 -0.8614 -1.6443
  133OSM    C8F14432   0.047   2.779   7.279  0.6355 -0.0456  0.1140
  133OSM    H8F14433  -0.018   2.822   7.358 -1.7034 -1.5361 -0.9018
  133OSM    H8G14434   0.144   2.834   7.280 -0.7469  2.5111  0.3629
  133OSM    C9F14435   0.069   2.634   7.300 -0.0218  0.1133 -0.6473
  133OSM    H9F14436   0.151   2.592   7.239  0.6542 -2.0717  1.6061
  133OSM   C10F14437   0.008   2.544   7.383  0.9284 -0.2005 -0.1670
  133OSM   H10F14438   0.053   2.444   7.390  0.7672 -0.1414  3.0671
  133OSM   C11F14439  -0.107   2.573   7.480  0.3339  0.1416  0.0663
  133OSM   H11F14440  -0.209   2.548   7.445  1.1374 -1.1305 -1.4552
  133OSM   H11G14441  -0.115   2.681   7.507 -1.3458 -0.0517  0.4362
  133OSM   C12F14442  -0.082   2.496   7.615 -0.0818 -0.0712 -0.3218
  133OSM   H12F14443   0.009   2.535   7.664  0.1182 -3.1836  2.1456
  133OSM   H12G14444  -0.064   2.388   7.597 -1.7373 -0.5917  0.8842
  133OSM   C13F14445  -0.202   2.494   7.715  0.6535  0.7658  0.3122
  133OSM   H13F14446  -0.295   2.495   7.654  1.1454  0.3758 -0.4708
  133OSM   H13G14447  -0.200   2.591   7.769 -0.2378  1.6342 -1.1340
  133OSM   C14F14448  -0.197   2.367   7.814  0.6786  0.0944  0.3475
  133OSM   H14F14449  -0.105   2.381   7.876  0.9233 -2.5547  0.7247
  133OSM   H14G14450  -0.174   2.284   7.744  2.5827  0.5132  0.4183
  133OSM   C15F14451  -0.328   2.352   7.900  0.1061  0.7999 -0.5094
  133OSM   H15F14452  -0.410   2.337   7.827  0.9544 -0.4572 -1.2520
  133OSM   H15G14453  -0.345   2.445   7.958  3.9400  0.6183  1.2043
  133OSM   C16F14454  -0.299   2.240   8.003  0.1294 -0.0562 -0.3549
  133OSM   H16F14455  -0.271   2.143   7.956 -2.0001 -0.4769 -0.8738
  133OSM   H16G14456  -0.392   2.203   8.051  0.6911 -1.7971 -0.5288
  133OSM   C17F14457  -0.199   2.286   8.111  0.0563  0.2413 -0.7636
  133OSM   H17F14458  -0.252   2.301   8.207  1.3061  2.9645 -0.3912
  133OSM   H17G14459  -0.171   2.392   8.089 -0.0624  1.1112  2.6811
  133OSM   C18F14460  -0.074   2.198   8.135 -0.3133 -0.1992 -0.0267
  133OSM   H18F14461  -0.024   2.233   8.228 -1.5222  1.1105  0.1529
  133OSM   H18G14462   0.002   2.195   8.053  1.5653 -2.5986  1.6415
  133OSM   H18H14463  -0.106   2.093   8.151 -0.4988 -0.0758  0.4295
  134OSM      N14464   1.491   6.151   6.205 -0.4417 -0.2742  0.4536
  134OSM    C1514465   1.514   6.288   6.155 -0.7921 -0.3661  0.4314
  134OSM   H15A14466   1.530   6.295   6.049 -1.7107  2.5010  0.4105
  134OSM   H15B14467   1.599   6.330   6.209 -1.9637  0.6001  1.5966
  134OSM   H15C14468   1.429   6.349   6.181 -2.3944 -1.7437 -1.3270
  134OSM    C1414469   1.604   6.074   6.153  0.2187  0.3419  0.1398
  134OSM   H14A14470   1.692   6.136   6.164 -0.1136  1.1014 -1.2531
  134OSM   H14B14471   1.590   6.064   6.046 -1.3791 -2.2929  0.5217
  134OSM   H14C14472   1.603   5.976   6.197 -2.8456  0.4790  0.5356
  134OSM    C1314473   1.503   6.161   6.359 -0.8122  0.3024 -0.2794
  134OSM   H13A14474   1.486   6.068   6.411 -1.4628  1.1769  1.1234
  134OSM   H13B14475   1.429   6.230   6.397 -1.0571  0.0304 -0.2647
  134OSM   H13C14476   1.605   6.188   6.386 -0.2494 -2.3029  0.4571
  134OSM    C1214477   1.358   6.090   6.164 -0.0913  0.6403 -0.5042
  134OSM   H12A14478   1.360   6.075   6.057  0.4177  1.4771 -0.6206
  134OSM   H12B14479   1.276   6.156   6.189  1.3776  2.3986 -0.1357
  134OSM    C1114480   1.312   5.949   6.227 -0.3022  0.2163  0.0588
  134OSM   H11A14481   1.387   5.869   6.209 -0.6152 -0.7142  2.5267
  134OSM   H11B14482   1.215   5.909   6.188 -0.5747 -1.5033  2.2937
  134OSM      P14483   1.174   6.022   6.430  0.1662  0.0444  0.2904
  134OSM    O1314484   1.216   6.096   6.552 -0.0541 -0.2591  0.2515
  134OSM    O1414485   1.099   6.107   6.329 -0.6462  0.0631  0.1559
  134OSM    O1114486   1.085   5.893   6.453 -0.1173 -0.1445 -0.1543
  134OSM    O1214487   1.300   5.955   6.364 -0.1342  0.7354 -0.1217
  134OSM    C1S14488   1.122   5.788   6.550 -0.3122  0.0606  0.4115
  134OSM    H1S14489   1.096   5.827   6.651 -2.7986 -1.9799  0.6609
  134OSM    H1T14490   1.229   5.764   6.534 -0.9251 -0.8677 -3.0951
  134OSM     NF14491   1.053   5.566   6.628 -0.0204 -0.3350  0.0538
  134OSM    HNF14492   1.094   5.476   6.615  0.4058 -0.4662  2.0122
  134OSM    C2S14493   1.044   5.658   6.513  0.1729  0.0039  0.7650
  134OSM    H2S14494   0.937   5.687   6.506  0.7491  2.2348  0.3419
  134OSM    C3S14495   1.091   5.598   6.381 -0.6072  0.5792  0.7505
  134OSM    H3S14496   1.199   5.575   6.380 -0.5165  0.6752 -2.6900
  134OSM     O314497   1.082   5.680   6.269 -0.1715  0.4863 -0.0321
  134OSM    HO314498   1.066   5.764   6.314 -2.5205 -0.7216  1.6223
  134OSM    C4S14499   1.005   5.478   6.355 -0.3559 -0.2506 -0.1841
  134OSM    H4S14500   0.896   5.488   6.363 -0.3991 -2.0817  4.0743
  134OSM    C5S14501   1.057   5.352   6.345  0.3928  0.0591  0.0878
  134OSM    H5S14502   1.164   5.334   6.362 -0.0763 -2.2139  1.0922
  134OSM    C6S14503   0.979   5.223   6.306  0.9090  0.4422 -0.0064
  134OSM    H6S14504   1.046   5.166   6.239  0.4149  0.9850 -0.9871
  134OSM    H6T14505   0.885   5.242   6.250 -0.3682  1.2277  2.2843
  134OSM    C7S14506   0.964   5.128   6.427 -0.1252  0.3721 -0.0786
  134OSM    H7S14507   0.869   5.159   6.475 -0.9320 -1.8883 -0.0946
  134OSM    H7T14508   1.049   5.136   6.499 -0.2566  0.5649  0.0542
  134OSM    C8S14509   0.958   4.978   6.384  0.0089 -0.1081 -0.1875
  134OSM    H8S14510   1.064   4.943   6.382  0.8481  2.2159 -2.6236
  134OSM    H8T14511   0.914   4.975   6.282  0.1171  0.4092 -0.2560
  134OSM    C9S14512   0.876   4.893   6.485 -1.3918  0.1544 -1.1218
  134OSM    H9S14513   0.879   4.789   6.448  1.3238 -0.2099 -0.1308
  134OSM    H9T14514   0.769   4.924   6.488 -1.3273  0.4245  2.0136
  134OSM   C10S14515   0.923   4.910   6.633  0.0536  0.0821 -0.6103
  134OSM   H10S14516   0.903   5.015   6.665  1.4236 -0.0299  0.7434
  134OSM   H10T14517   1.030   4.896   6.658 -0.2002 -1.4064 -0.2415
  134OSM   C11S14518   0.850   4.810   6.725 -0.1991 -0.2520 -0.3476
  134OSM   H11S14519   0.903   4.716   6.700  0.3892  0.8364 -3.8179
  134OSM   H11T14520   0.742   4.796   6.706  0.1106 -0.6548 -2.0192
  134OSM   C12S14521   0.868   4.858   6.866 -0.3490  0.1308 -1.0984
  134OSM   H12S14522   0.810   4.952   6.876 -1.6282 -0.6518 -0.9317
  134OSM   H12T14523   0.974   4.877   6.894 -0.1346  1.7611 -2.8645
  134OSM   C13S14524   0.810   4.762   6.974  0.7632  0.3152 -0.3624
  134OSM   H13S14525   0.880   4.677   6.967  1.1677  0.4722  1.2357
  134OSM   H13T14526   0.707   4.739   6.940  0.8227  1.0851 -1.0840
  134OSM   C14S14527   0.817   4.819   7.119  0.4746 -0.4005  0.7427
  134OSM   H14S14528   0.725   4.880   7.128  0.8259  0.2560 -0.0373
  134OSM   H14T14529   0.910   4.880   7.126 -0.3025  0.6720  2.6659
  134OSM   C15S14530   0.819   4.714   7.223 -0.1939 -0.7623  0.5221
  134OSM   H15S14531   0.908   4.651   7.205 -0.2203 -0.1214 -2.5081
  134OSM   H15T14532   0.730   4.647   7.226 -0.9643  0.2189  0.4942
  134OSM   C16S14533   0.815   4.770   7.364 -0.0695 -0.2668 -0.0617
  134OSM   H16S14534   0.718   4.824   7.371 -1.4993 -2.3224 -2.2011
  134OSM   H16T14535   0.903   4.835   7.384 -0.5117 -0.5908  3.5029
  134OSM   C17S14536   0.827   4.664   7.477 -0.5386 -0.1116  0.2575
  134OSM   H17S14537   0.905   4.593   7.443  0.7310 -0.0889  2.8783
  134OSM   H17T14538   0.737   4.599   7.479  0.0369 -0.9025  1.8273
  134OSM   C18S14539   0.870   4.727   7.610 -0.2923  0.3839  0.8551
  134OSM   H18S14540   0.794   4.799   7.647  0.0298  1.7251 -0.9943
  134OSM   H18T14541   0.955   4.792   7.580  0.5272 -2.1107 -2.9251
  134OSM   H18U14542   0.899   4.645   7.680  0.3479  0.5317  0.7686
  134OSM    C1F14543   1.009   5.604   6.744 -0.7279 -0.3978  0.1965
  134OSM     OF14544   0.926   5.691   6.768 -0.4375  0.3758 -0.0597
  134OSM    C2F14545   1.077   5.538   6.858  0.6602  0.1047 -0.4653
  134OSM    H2F14546   1.187   5.555   6.852  0.7719  0.5686  1.8819
  134OSM    H2G14547   1.053   5.430   6.856 -0.5645  0.3329  0.5963
  134OSM    C3F14548   1.030   5.593   6.993  0.7246 -0.2084  0.0632
  134OSM    H3F14549   0.919   5.589   7.003  0.5228  1.2662 -1.2040
  134OSM    H3G14550   1.044   5.703   6.986 -1.9450  0.2007 -0.0583
  134OSM    C4F14551   1.107   5.536   7.120  0.7658  0.1897 -0.2423
  134OSM    H4F14552   1.215   5.529   7.095  0.7948 -1.4800  0.2629
  134OSM    H4G14553   1.075   5.434   7.150 -1.1251  1.0630  0.9548
  134OSM    C5F14554   1.081   5.623   7.250  0.0287 -0.5817 -0.0576
  134OSM    H5F14555   0.971   5.630   7.261  0.1609  2.5754 -0.0404
  134OSM    H5G14556   1.121   5.723   7.222  1.4186 -1.9913 -3.7533
  134OSM    C6F14557   1.137   5.575   7.386  0.1385 -0.5037 -0.9748
  134OSM    H6F14558   1.237   5.530   7.374  0.3969 -0.4426  0.7097
  134OSM    H6G14559   1.057   5.512   7.431  0.2937  0.9049  1.4557
  134OSM    C7F14560   1.145   5.682   7.503 -0.0834  0.3300 -0.1428
  134OSM    H7F14561   1.064   5.755   7.482 -0.8848 -0.5842 -0.3232
  134OSM    H7G14562   1.247   5.722   7.490  0.5021 -1.3107 -0.8639
  134OSM    C8F14563   1.127   5.618   7.639  0.3496 -0.0625 -0.2263
  134OSM    H8F14564   1.206   5.542   7.657 -1.9511 -2.4261  0.6140
  134OSM    H8G14565   1.027   5.569   7.641 -1.4324  3.3010  1.5292
  134OSM    C9F14566   1.136   5.714   7.756  0.3027 -0.7937  0.2108
  134OSM    H9F14567   1.201   5.801   7.743 -1.0080  0.5900  2.3654
  134OSM   C10F14568   1.059   5.714   7.869  0.1039  0.8268  0.1636
  134OSM   H10F14569   1.089   5.791   7.941  0.9703  0.6326  0.0235
  134OSM   C11F14570   0.957   5.612   7.911 -0.1968  0.1159 -0.5021
  134OSM   H11F14571   0.958   5.522   7.845  0.5110 -0.5733  0.4118
  134OSM   H11G14572   0.853   5.652   7.919 -0.1245  0.2515 -0.2272
  134OSM   C12F14573   1.003   5.577   8.059  0.5941 -0.1575  0.2073
  134OSM   H12F14574   1.021   5.664   8.125  0.2983 -0.6497  0.9491
  134OSM   H12G14575   1.096   5.516   8.056  1.5363  1.2618 -0.6064
  134OSM   C13F14576   0.896   5.511   8.132 -0.2640 -0.1099  0.0465
  134OSM   H13F14577   0.852   5.423   8.080  0.0290 -0.4520  0.3703
  134OSM   H13G14578   0.805   5.574   8.148  0.1451  0.2625  0.9875
  134OSM   C14F14579   0.941   5.461   8.275 -0.4173  0.3779 -0.5613
  134OSM   H14F14580   0.991   5.543   8.331  0.0640  0.1639 -0.6752
  134OSM   H14G14581   1.007   5.373   8.261  0.4538  1.0394 -0.6714
  134OSM   C15F14582   0.817   5.426   8.359 -0.5005 -0.0295 -0.2633
  134OSM   H15F14583   0.746   5.369   8.296  0.9245 -0.0427 -1.9314
  134OSM   H15G14584   0.769   5.522   8.387 -0.6014 -0.3426  0.6765
  134OSM   C16F14585   0.863   5.338   8.475  0.2528  0.1468 -0.3362
  134OSM   H16F14586   0.951   5.376   8.531 -0.6896 -0.8631  1.9510
  134OSM   H16G14587   0.882   5.233   8.443 -1.1640 -0.0061 -0.7190
  134OSM   C17F14588   0.752   5.332   8.589  0.4517  0.0623 -0.6120
  134OSM   H17F14589   0.680   5.256   8.553  1.7373 -0.7982 -1.4665
  134OSM   H17G14590   0.699   5.429   8.596  1.8955  0.8931 -0.8331
  134OSM   C18F14591   0.806   5.288   8.722 -1.0231 -0.2159 -0.2816
  134OSM   H18F14592   0.745   5.314   8.812  0.1766 -0.3597  0.5972
  134OSM   H18G14593   0.902   5.343   8.733 -0.3622 -0.9448 -2.0764
  134OSM   H18H14594   0.829   5.180   8.722  0.9382  0.1594 -1.5232
  135OSM      N14595   0.584   5.950   5.941 -0.0158  0.6035  0.6125
  135OSM    C1514596   0.665   6.080   5.933  0.6953  0.0168  0.0669
  135OSM   H15A14597   0.618   6.161   5.987 -0.9730 -1.6719  1.2488
  135OSM   H15B14598   0.692   6.104   5.831  1.3211  0.2210  0.2817
  135OSM   H15C14599   0.760   6.074   5.984 -0.0083  2.0265  1.7469
  135OSM    C1414600   0.460   5.965   5.850 -0.2828  0.1984  0.3550
  135OSM   H14A14601   0.490   6.008   5.755 -1.2136 -2.6974 -1.4109
  135OSM   H14B14602   0.377   6.016   5.897 -2.4941 -2.0555 -0.8397
  135OSM   H14C14603   0.413   5.871   5.822 -0.1738  0.1523  0.3242
  135OSM    C1314604   0.667   5.845   5.882 -0.2955  0.4184  0.9242
  135OSM   H13A14605   0.729   5.887   5.804  1.9067  0.4402  2.6148
  135OSM   H13B14606   0.610   5.765   5.837  3.0926 -0.9544 -1.3433
  135OSM   H13C14607   0.737   5.797   5.948  1.1901  0.5407 -0.4905
  135OSM    C1214608   0.540   5.905   6.085 -0.6598 -0.5155  0.3665
  135OSM   H12A14609   0.474   5.821   6.070 -1.0647  0.0668 -1.2198
  135OSM   H12B14610   0.487   5.987   6.131  0.9287 -0.4786  2.2789
  135OSM    C1114611   0.654   5.881   6.188  0.5411 -0.2923 -0.0768
  135OSM   H11A14612   0.723   5.811   6.136  0.4905  0.5284 -1.2744
  135OSM   H11B14613   0.630   5.819   6.277 -1.3741  1.6302  0.8463
  135OSM      P14614   0.636   6.116   6.318  0.5079  0.3017 -0.4394
  135OSM    O1314615   0.708   6.237   6.339 -0.2122 -0.2104 -0.0610
  135OSM    O1414616   0.496   6.129   6.260 -0.1297 -0.0785 -0.2148
  135OSM    O1114617   0.622   6.047   6.455 -0.4036  0.7001  0.1064
  135OSM    O1214618   0.711   6.005   6.240  0.1602  0.1961  0.1982
  135OSM    C1S14619   0.732   6.002   6.522 -0.4674 -0.2061  0.6994
  135OSM    H1S14620   0.813   6.079   6.521 -1.0938  0.4741 -0.6836
  135OSM    H1T14621   0.768   5.915   6.463 -3.2282 -0.3678 -0.9198
  135OSM     NF14622   0.823   5.953   6.750 -0.0183 -0.6097 -0.2544
  135OSM    HNF14623   0.868   5.865   6.763 -2.1130 -1.5113  1.5841
  135OSM    C2S14624   0.701   5.972   6.671 -0.3371  0.7645 -0.4210
  135OSM    H2S14625   0.631   6.047   6.712 -1.0809  0.4758 -1.1367
  135OSM    C3S14626   0.612   5.836   6.663 -0.3951 -0.2453  0.3653
  135OSM    H3S14627   0.680   5.754   6.631  1.0585  1.3514 -0.7740
  135OSM     O314628   0.509   5.840   6.566  0.6969 -0.7027 -0.2973
  135OSM    HO314629   0.513   5.920   6.513  0.2100 -1.5738 -1.7202
  135OSM    C4S14630   0.563   5.808   6.810  0.4145  0.9328 -0.4158
  135OSM    H4S14631   0.482   5.872   6.848  0.0948 -0.0131  0.5221
  135OSM    C5S14632   0.628   5.718   6.893  0.3274  0.3202  0.5533
  135OSM    H5S14633   0.720   5.669   6.859 -0.7842 -3.7784  2.7339
  135OSM    C6S14634   0.587   5.685   7.034  0.1531 -0.3824  0.2467
  135OSM    H6S14635   0.580   5.575   7.053  0.7368 -0.1235  2.1622
  135OSM    H6T14636   0.488   5.730   7.056  0.7330  0.0793  2.0562
  135OSM    C7S14637   0.676   5.752   7.143 -0.5379  0.0597 -1.1994
  135OSM    H7S14638   0.685   5.862   7.143 -0.3721  0.1048  1.0129
  135OSM    H7T14639   0.776   5.704   7.143 -0.9164 -0.7571 -0.6292
  135OSM    C8S14640   0.625   5.717   7.277 -0.3765  0.0120  0.0062
  135OSM    H8S14641   0.605   5.608   7.287 -2.2405  0.2411 -0.7584
  135OSM    H8T14642   0.527   5.769   7.288  0.2460  0.7392  3.0160
  135OSM    C9S14643   0.704   5.761   7.400  0.1910 -0.2813 -0.0521
  135OSM    H9S14644   0.717   5.871   7.389  1.9389 -0.4108  0.3886
  135OSM    H9T14645   0.806   5.717   7.393 -0.6815 -2.5125  0.4987
  135OSM   C10S14646   0.643   5.736   7.536  0.0294  0.1752  0.5328
  135OSM   H10S14647   0.646   5.628   7.560 -2.6451 -0.0389  0.2165
  135OSM   H10T14648   0.540   5.777   7.542  0.6902  2.3808 -1.4279
  135OSM   C11S14649   0.726   5.808   7.652  0.6956 -0.7982  0.0758
  135OSM   H11S14650   0.836   5.794   7.641  0.7939 -3.1361  2.7894
  135OSM   H11T14651   0.690   5.770   7.750  2.1190  0.9908  1.3716
  135OSM   C12S14652   0.689   5.959   7.653 -0.1665  0.1719 -0.4068
  135OSM   H12S14653   0.582   5.972   7.679 -0.1982 -1.0356  0.1439
  135OSM   H12T14654   0.703   6.006   7.554  0.6135  0.1863 -0.2968
  135OSM   C13S14655   0.753   6.047   7.754 -0.2104 -0.1764 -0.8917
  135OSM   H13S14656   0.722   6.151   7.732  1.8384  0.6642 -0.0511
  135OSM   H13T14657   0.864   6.052   7.746 -0.1921 -0.3820 -0.7717
  135OSM   C14S14658   0.713   6.027   7.902  0.1479  0.2799 -0.3812
  135OSM   H14S14659   0.754   5.931   7.938 -0.9405 -0.1736 -0.3035
  135OSM   H14T14660   0.603   6.012   7.899  0.1111  0.4190  0.1501
  135OSM   C15S14661   0.745   6.148   7.995 -0.4776 -0.8093  0.3426
  135OSM   H15S14662   0.681   6.151   8.086 -1.8523 -1.6397 -0.5451
  135OSM   H15T14663   0.724   6.245   7.946  0.3832 -0.5384  0.4986
  135OSM   C16S14664   0.893   6.158   8.040  0.2648 -0.4847 -0.4543
  135OSM   H16S14665   0.898   6.267   8.062  0.9649 -0.9276  1.8174
  135OSM   H16T14666   0.966   6.122   7.964 -0.5146 -0.1850 -1.3682
  135OSM   C17S14667   0.924   6.097   8.174  0.2873  0.2376 -0.5663
  135OSM   H17S14668   0.907   5.988   8.176 -0.2703  0.3340  0.2251
  135OSM   H17T14669   0.857   6.144   8.249 -1.0995  1.8440 -2.6720
  135OSM   C18S14670   1.063   6.127   8.212  0.2601 -0.2382  0.4094
  135OSM   H18S14671   1.110   6.059   8.286 -0.7240 -1.9381 -0.4569
  135OSM   H18T14672   1.075   6.233   8.243 -0.7650 -0.1334  0.4831
  135OSM   H18U14673   1.130   6.132   8.123  1.6988  1.9918  1.5246
  135OSM    C1F14674   0.887   6.065   6.790 -0.4000  0.3709  0.8745
  135OSM     OF14675   0.844   6.174   6.754 -0.3678  0.1789  0.1072
  135OSM    C2F14676   1.027   6.037   6.852 -0.3411  0.2355  0.2538
  135OSM    H2F14677   1.111   6.078   6.792 -0.1019  1.5099  1.4106
  135OSM    H2G14678   1.045   5.928   6.865 -0.5682  0.2701  0.9221
  135OSM    C3F14679   1.036   6.095   6.991  0.0898 -0.1955 -0.2962
  135OSM    H3F14680   1.021   6.205   7.000  2.4160  0.2116 -0.5116
  135OSM    H3G14681   1.134   6.065   7.034 -0.7057 -0.8721  1.1003
  135OSM    C4F14682   0.942   6.033   7.089  0.0829  0.4820  0.4386
  135OSM    H4F14683   0.972   5.926   7.086  1.0134  0.7380 -2.2819
  135OSM    H4G14684   0.834   6.041   7.066 -0.1821  1.3902  1.9202
  135OSM    C5F14685   0.960   6.082   7.236 -0.5131 -0.1255  0.1079
  135OSM    H5F14686   0.865   6.065   7.291 -1.8493  2.0519 -1.3929
  135OSM    H5G14687   0.970   6.193   7.235 -1.4158 -0.0425 -1.5117
  135OSM    C6F14688   1.070   6.026   7.324 -0.1260 -0.7365  0.1426
  135OSM    H6F14689   1.159   6.070   7.276 -2.7677  2.8802 -1.9588
  135OSM    H6G14690   1.069   5.915   7.321  1.5050 -0.8109  1.4750
  135OSM    C7F14691   1.063   6.082   7.474 -0.0440  0.6203 -0.6099
  135OSM    H7F14692   0.987   6.019   7.524  0.8246  1.1127  1.4623
  135OSM    H7G14693   1.031   6.188   7.487  0.3847  0.4460  3.0765
  135OSM    C8F14694   1.192   6.053   7.555  0.5405 -0.7716  0.1457
  135OSM    H8F14695   1.233   5.952   7.533 -0.0228 -2.3240  5.0700
  135OSM    H8G14696   1.158   6.059   7.661  0.4062  1.4979  0.0268
  135OSM    C9F14697   1.304   6.154   7.518 -0.4196  0.5324  0.3593
  135OSM    H9F14698   1.334   6.154   7.413 -1.3912  0.4728  0.0681
  135OSM   C10F14699   1.349   6.247   7.600  0.3074  0.5791  0.0802
  135OSM   H10F14700   1.423   6.320   7.565 -0.2279  0.0249 -2.4320
  135OSM   C11F14701   1.314   6.282   7.745 -0.0891  0.1968  0.3628
  135OSM   H11F14702   1.270   6.195   7.799 -0.3818 -0.9402 -1.6394
  135OSM   H11G14703   1.235   6.360   7.746  0.5586  0.8829  2.2310
  135OSM   C12F14704   1.442   6.343   7.806 -0.2527  0.6927  0.3946
  135OSM   H12F14705   1.476   6.432   7.749  0.6539 -0.6003 -1.1478
  135OSM   H12G14706   1.527   6.274   7.786  1.7005  3.1745 -0.4017
  135OSM   C13F14707   1.432   6.376   7.957 -0.5399 -0.1249  0.4333
  135OSM   H13F14708   1.422   6.282   8.016 -2.0170  1.8087  3.4820
  135OSM   H13G14709   1.338   6.434   7.970 -0.0701  0.2020  2.7665
  135OSM   C14F14710   1.539   6.461   8.013 -0.6333 -0.2194  0.2818
  135OSM   H14F14711   1.527   6.558   7.960  2.0487  0.2009  0.2908
  135OSM   H14G14712   1.636   6.410   7.995 -1.1229 -1.4676  1.0425
  135OSM   C15F14713   1.524   6.488   8.162  0.2418  0.4235 -0.2517
  135OSM   H15F14714   1.597   6.564   8.198  1.0074 -2.3781  5.2100
  135OSM   H15G14715   1.554   6.393   8.211 -1.8348 -0.7314 -1.0712
  135OSM   C16F14716   1.386   6.525   8.204  0.3852 -0.2430 -0.3800
  135OSM   H16F14717   1.330   6.430   8.214  1.6796 -0.9572  0.2553
  135OSM   H16G14718   1.338   6.575   8.117  1.1916 -2.3383 -2.1350
  135OSM   C17F14719   1.374   6.600   8.338  0.5686  0.4053 -0.1209
  135OSM   H17F14720   1.270   6.629   8.362  1.4246  1.1579  3.0623
  135OSM   H17G14721   1.418   6.701   8.322  1.4303  0.2588  1.1895
  135OSM   C18F14722   1.430   6.527   8.459 -0.0423 -0.2457  0.3118
  135OSM   H18F14723   1.361   6.443   8.481 -1.8099  0.5897 -1.6589
  135OSM   H18G14724   1.445   6.596   8.545  1.5208 -1.1607  0.8177
  135OSM   H18H14725   1.533   6.493   8.439  0.1455  0.6669 -0.3246
  136OSM      N14726   0.435   1.215   6.049  0.0620  0.2497  0.4250
  136OSM    C1514727   0.422   1.343   5.970  0.5212 -0.8001  0.2018
  136OSM   H15A14728   0.517   1.395   5.966 -0.3241  0.8896  1.0495
  136OSM   H15B14729   0.355   1.412   6.020  0.5498 -0.9875  0.4961
  136OSM   H15C14730   0.380   1.325   5.872  0.2820 -0.9330  0.3282
  136OSM    C1414731   0.318   1.122   6.048 -0.7392 -0.0981  0.4315
  136OSM   H14A14732   0.346   1.028   6.095 -0.9673 -0.1264  0.5118
  136OSM   H14B14733   0.290   1.096   5.947 -0.7729 -1.0345  0.6639
  136OSM   H14C14734   0.237   1.166   6.104 -0.4164  1.2186 -0.1066
  136OSM    C1314735   0.553   1.151   5.981  0.3104  0.3798 -0.6058
  136OSM   H13A14736   0.561   1.045   6.004 -1.5358  0.4157  0.3448
  136OSM   H13B14737   0.641   1.204   6.015  0.9129  0.3811 -2.1025
  136OSM   H13C14738   0.552   1.162   5.873  0.3424  1.3921 -0.5130
  136OSM    C1214739   0.467   1.260   6.191 -0.0930  0.7958 -0.9305
  136OSM   H12A14740   0.558   1.317   6.178  0.5250 -0.1839 -0.9398
  136OSM   H12B14741   0.497   1.176   6.251  1.1319  2.0971  0.3597
  136OSM    C1114742   0.362   1.339   6.275 -0.1401  0.4249 -0.0862
  136OSM   H11A14743   0.406   1.362   6.375 -1.6596  0.8989  0.5082
  136OSM   H11B14744   0.286   1.261   6.299 -1.2154  1.6660  0.6833
  136OSM      P14745   0.339   1.597   6.214  0.1096  0.0138  0.5675
  136OSM    O1314746   0.474   1.616   6.164 -0.8113 -0.1029  0.0210
  136OSM    O1414747   0.244   1.686   6.147 -0.5027 -0.2452  0.0229
  136OSM    O1114748   0.338   1.621   6.370 -0.0810  0.1326  0.2387
  136OSM    O1214749   0.293   1.442   6.212 -0.6334 -0.3958 -0.3148
  136OSM    C1S14750   0.221   1.617   6.449 -0.4235  0.5072 -1.4776
  136OSM    H1S14751   0.125   1.584   6.403 -1.6204 -0.3803  1.4715
  136OSM    H1T14752   0.204   1.715   6.498 -1.8396 -0.5403  0.2196
  136OSM     NF14753   0.126   1.516   6.645 -0.0997  0.5952  0.6004
  136OSM    HNF14754   0.115   1.579   6.722 -0.0600 -0.2914  1.3453
  136OSM    C2S14755   0.253   1.523   6.573  0.0451 -0.7425  0.6497
  136OSM    H2S14756   0.278   1.423   6.532  2.0292 -0.4237  0.9869
  136OSM    C3S14757   0.376   1.567   6.660  0.4576  0.0736 -0.6276
  136OSM    H3S14758   0.350   1.665   6.705 -0.0063  0.6453 -2.0916
  136OSM     O314759   0.498   1.580   6.585  0.4014  0.7793 -0.2628
  136OSM    HO314760   0.459   1.613   6.504 -1.8179 -2.7403 -0.8337
  136OSM    C4S14761   0.397   1.466   6.769  0.1434  0.4963  0.0072
  136OSM    H4S14762   0.450   1.379   6.729  1.4062  0.8278  0.8720
  136OSM    C5S14763   0.378   1.483   6.899  0.4700 -0.1070  0.0577
  136OSM    H5S14764   0.346   1.585   6.926 -0.6537 -0.5973  0.6118
  136OSM    C6S14765   0.396   1.382   7.007 -0.2376 -1.3085  0.2265
  136OSM    H6S14766   0.307   1.390   7.074  0.8921  1.8480  1.5720
  136OSM    H6T14767   0.489   1.415   7.056 -2.1034  0.2772  2.9713
  136OSM    C7S14768   0.390   1.233   6.966 -0.2504  0.0417  0.4159
  136OSM    H7S14769   0.470   1.228   6.888 -1.2392  1.2563 -0.7216
  136OSM    H7T14770   0.291   1.194   6.934 -0.0720 -0.0902  0.0046
  136OSM    C8S14771   0.431   1.148   7.078  0.3286  0.2404 -0.9631
  136OSM    H8S14772   0.528   1.171   7.126  1.1538 -3.4130 -0.5495
  136OSM    H8T14773   0.426   1.038   7.059 -1.8963  0.4450 -1.8631
  136OSM    C9S14774   0.331   1.155   7.192 -0.0268  0.0204  0.0702
  136OSM    H9S14775   0.234   1.112   7.159 -0.8268  3.7571 -3.2726
  136OSM    H9T14776   0.317   1.264   7.210 -0.5887 -0.1188  0.4958
  136OSM   C10S14777   0.388   1.098   7.328  0.0444 -0.4008  0.0800
  136OSM   H10S14778   0.453   1.182   7.361  0.8969 -0.4954 -1.3170
  136OSM   H10T14779   0.452   1.009   7.321 -1.4260 -1.3682 -2.1469
  136OSM   C11S14780   0.273   1.090   7.431 -0.0667 -0.2594 -0.4063
  136OSM   H11S14781   0.194   1.021   7.394 -0.9620  0.8915 -0.6874
  136OSM   H11T14782   0.232   1.193   7.436 -0.6748 -0.1182 -4.7305
  136OSM   C12S14783   0.314   1.033   7.568  0.1039  0.2123 -0.3076
  136OSM   H12S14784   0.370   0.939   7.547  0.7223  0.9334 -1.9834
  136OSM   H12T14785   0.219   1.003   7.617 -0.6844  2.8553 -0.0897
  136OSM   C13S14786   0.392   1.131   7.658  0.3098  0.2650  0.7828
  136OSM   H13S14787   0.341   1.229   7.649 -1.0781 -0.4378  0.8217
  136OSM   H13T14788   0.490   1.147   7.608 -0.6914 -1.1279 -1.8232
  136OSM   C14S14789   0.426   1.082   7.801  1.0708  0.2365 -0.4378
  136OSM   H14S14790   0.502   1.153   7.839  1.6867 -1.0511  0.8076
  136OSM   H14T14791   0.467   0.983   7.772  0.3252 -0.1613 -0.1740
  136OSM   C15S14792   0.298   1.061   7.885 -0.0290  0.1666  0.5286
  136OSM   H15S14793   0.235   0.987   7.832  0.2542 -0.4624  1.0595
  136OSM   H15T14794   0.246   1.158   7.900 -2.2577 -0.8013 -0.5105
  136OSM   C16S14795   0.315   0.994   8.024 -0.7127  0.0031 -0.1950
  136OSM   H16S14796   0.389   0.914   8.001  1.9853  2.0723  0.8703
  136OSM   H16T14797   0.218   0.946   8.049 -0.0105 -1.1263  0.4560
  136OSM   C17S14798   0.367   1.086   8.136 -0.7100 -0.2157  0.0996
  136OSM   H17S14799   0.376   1.034   8.233  0.1352  1.6662  1.0787
  136OSM   H17T14800   0.294   1.169   8.139 -0.2832  0.2125 -0.9015
  136OSM   C18S14801   0.508   1.144   8.118  0.4869 -0.8565 -0.1876
  136OSM   H18S14802   0.585   1.064   8.113  1.2510 -0.0601 -2.8903
  136OSM   H18T14803   0.520   1.216   8.201  0.4276 -1.2631  0.1796
  136OSM   H18U14804   0.524   1.201   8.024  4.3827 -1.4279 -0.0413
  136OSM    C1F14805   0.019   1.444   6.609  0.9160 -0.0518 -0.0085
  136OSM     OF14806   0.025   1.364   6.518  0.0522  0.1452 -0.1551
  136OSM    C2F14807  -0.114   1.466   6.682 -0.4252 -0.6959  0.1433
  136OSM    H2F14808  -0.199   1.473   6.611  0.4739  0.5057 -0.8618
  136OSM    H2G14809  -0.112   1.558   6.745 -1.1288 -0.6269  0.0685
  136OSM    C3F14810  -0.139   1.359   6.786  0.1730 -0.5373  0.3563
  136OSM    H3F14811  -0.160   1.263   6.735  0.6663 -0.5833  0.2347
  136OSM    H3G14812  -0.238   1.392   6.825  0.6026  1.4786 -0.1381
  136OSM    C4F14813  -0.034   1.351   6.891 -0.4124  0.6417  0.5982
  136OSM    H4F14814   0.010   1.448   6.923  3.1034 -0.3641 -0.6593
  136OSM    H4G14815   0.049   1.291   6.847 -1.6608 -0.9529  0.3082
  136OSM    C5F14816  -0.066   1.275   7.024  1.1235 -0.7346 -0.1038
  136OSM    H5F14817   0.033   1.253   7.070  1.1491  0.2388  0.3257
  136OSM    H5G14818  -0.112   1.179   6.992  2.4451 -1.8973  1.3126
  136OSM    C6F14819  -0.156   1.356   7.119 -0.0662  0.2584 -0.3700
  136OSM    H6F14820  -0.262   1.339   7.088 -0.3273  0.2672  0.4835
  136OSM    H6G14821  -0.135   1.465   7.127 -1.2286  0.4370  0.8166
  136OSM    C7F14822  -0.165   1.286   7.260 -0.1325 -1.2138  0.2558
  136OSM    H7F14823  -0.065   1.296   7.306 -1.7165  2.2578  3.4343
  136OSM    H7G14824  -0.200   1.181   7.246 -2.0586 -0.5678 -0.1409
  136OSM    C8F14825  -0.264   1.347   7.356 -0.2829 -0.6210 -0.1742
  136OSM    H8F14826  -0.361   1.345   7.302 -1.9965  1.1478  2.6431
  136OSM    H8G14827  -0.228   1.451   7.374 -2.6579  0.4855 -1.3668
  136OSM    C9F14828  -0.282   1.256   7.476 -0.1725  0.1103  0.1996
  136OSM    H9F14829  -0.245   1.152   7.470  0.1245  0.0168  2.5485
  136OSM   C10F14830  -0.318   1.303   7.592  0.4587 -0.4371 -0.8253
  136OSM   H10F14831  -0.328   1.224   7.668  0.0835 -1.9762 -2.3991
  136OSM   C11F14832  -0.354   1.445   7.633  0.1671  0.9937 -0.2492
  136OSM   H11F14833  -0.458   1.444   7.673 -0.0592  0.5127 -0.8289
  136OSM   H11G14834  -0.358   1.502   7.538 -1.9896 -0.4867 -1.1418
  136OSM   C12F14835  -0.260   1.492   7.746  0.6139  0.7491 -0.0571
  136OSM   H12F14836  -0.274   1.602   7.743 -3.5349  0.3519 -1.2543
  136OSM   H12G14837  -0.158   1.470   7.708  0.2170 -0.6017 -0.3969
  136OSM   C13F14838  -0.271   1.430   7.890  0.5445  0.0656  0.7079
  136OSM   H13F14839  -0.298   1.322   7.894 -3.0743  0.7703 -0.5635
  136OSM   H13G14840  -0.355   1.490   7.931 -0.0414 -0.7345  0.6852
  136OSM   C14F14841  -0.145   1.447   7.976  0.1602 -0.2546  0.1081
  136OSM   H14F14842  -0.116   1.553   7.957  0.2827 -0.3634 -0.3299
  136OSM   H14G14843  -0.070   1.371   7.947 -1.0268 -1.1709 -0.6618
  136OSM   C15F14844  -0.179   1.431   8.125 -0.6232 -0.1971  0.4729
  136OSM   H15F14845  -0.087   1.395   8.176 -1.8895 -3.6527  0.5733
  136OSM   H15G14846  -0.240   1.339   8.136 -1.4398  0.2778  0.0170
  136OSM   C16F14847  -0.229   1.557   8.201  0.3212  0.0174  1.4230
  136OSM   H16F14848  -0.310   1.601   8.140  1.0501  0.0090  0.4242
  136OSM   H16G14849  -0.145   1.629   8.212  1.5858 -0.9112 -1.3594
  136OSM   C17F14850  -0.284   1.524   8.334  0.0046 -0.3502  0.1562
  136OSM   H17F14851  -0.196   1.495   8.395  0.6443  0.9183 -0.1262
  136OSM   H17G14852  -0.353   1.438   8.326 -1.3883  0.7410  0.1823
  136OSM   C18F14853  -0.352   1.635   8.398 -0.3648 -0.2425  0.4996
  136OSM   H18F14854  -0.413   1.693   8.326 -1.4094 -3.0726 -1.0649
  136OSM   H18G14855  -0.272   1.698   8.442 -0.1503 -0.2396  0.1154
  136OSM   H18H14856  -0.419   1.596   8.477  1.4059 -1.6345  1.3739
  137OSM      N14857   2.474   4.753   6.209 -0.1922 -0.3644 -0.0110
  137OSM    C1514858   2.363   4.817   6.131  0.5232  0.7912 -0.3092
  137OSM   H15A14859   2.394   4.844   6.032  0.1913  0.1597 -0.5931
  137OSM   H15B14860   2.322   4.897   6.191  0.6262 -0.4196  1.4566
  137OSM   H15C14861   2.281   4.748   6.116 -0.8846  1.5590  2.8296
  137OSM    C1414862   2.523   4.637   6.125  0.2099  0.1058 -0.0945
  137OSM   H14A14863   2.583   4.670   6.042 -1.6018 -0.4873 -1.6913
  137OSM   H14B14864   2.435   4.592   6.083  1.5823 -1.7979 -1.0335
  137OSM   H14C14865   2.581   4.576   6.193 -0.6459 -0.6891 -0.0546
  137OSM    C1314866   2.585   4.857   6.215  0.8626  0.1622 -0.2353
  137OSM   H13A14867   2.613   4.884   6.115 -1.5259  1.8671 -0.5309
  137OSM   H13B14868   2.668   4.830   6.278  1.7318  0.4640 -1.2245
  137OSM   H13C14869   2.541   4.949   6.253  0.1041 -0.6295  0.8685
  137OSM    C1214870   2.422   4.705   6.340 -0.3656 -0.1520  0.0521
  137OSM   H12A14871   2.506   4.657   6.389  0.1845 -0.4867 -1.1898
  137OSM   H12B14872   2.359   4.621   6.318 -0.8061 -0.2185  1.4520
  137OSM    C1114873   2.340   4.807   6.423 -0.7278 -0.2082 -0.1088
  137OSM   H11A14874   2.404   4.897   6.436 -2.6154  1.6841 -2.6217
  137OSM   H11B14875   2.321   4.757   6.520 -0.9675  0.5508  0.2471
  137OSM      P14876   2.107   4.925   6.453  0.0085 -0.1895 -0.2650
  137OSM    O1314877   2.053   5.021   6.359  0.8145  0.5657  0.1922
  137OSM    O1414878   2.019   4.830   6.535  0.2070 -0.0886 -0.2034
  137OSM    O1114879   2.188   5.000   6.563  0.4477 -0.1228 -0.1545
  137OSM    O1214880   2.212   4.845   6.374 -1.0248  0.1597  0.5261
  137OSM    C1S14881   2.129   5.091   6.655  0.7940  0.0402 -0.0787
  137OSM    H1S14882   2.033   5.133   6.620  1.6823  0.3162 -2.4006
  137OSM    H1T14883   2.193   5.182   6.660  1.1974 -0.2972  1.1432
  137OSM     NF14884   2.035   5.118   6.890  0.3311  0.2906 -0.2178
  137OSM    HNF14885   2.086   5.172   6.956 -0.5479 -0.2638  0.9403
  137OSM    C2S14886   2.118   5.038   6.803 -0.0449  0.0467 -0.2761
  137OSM    H2S14887   2.072   4.938   6.787  1.5748 -0.7129 -0.3600
  137OSM    C3S14888   2.257   5.018   6.874  0.5423 -0.2024  0.2371
  137OSM    H3S14889   2.296   5.117   6.907 -0.8337  1.5283 -2.9246
  137OSM     O314890   2.349   4.952   6.793 -0.4770 -0.5230  0.2936
  137OSM    HO314891   2.298   4.948   6.711  1.1708  1.2599 -0.9269
  137OSM    C4S14892   2.232   4.942   7.003 -0.2236  0.4961 -0.3529
  137OSM    H4S14893   2.199   5.006   7.085 -0.4255 -0.7906  0.6090
  137OSM    C5S14894   2.230   4.803   7.006  0.0702 -1.1948 -0.3056
  137OSM    H5S14895   2.258   4.762   6.908 -3.4814  0.3233 -2.1596
  137OSM    C6S14896   2.189   4.713   7.122 -1.1808 -0.1033  0.3566
  137OSM    H6S14897   2.147   4.621   7.076  1.1641 -2.0396  1.8242
  137OSM    H6T14898   2.120   4.759   7.195 -2.7678 -2.7218  0.6448
  137OSM    C7S14899   2.319   4.668   7.199  0.3748  0.1657 -0.8137
  137OSM    H7S14900   2.380   4.748   7.246  0.2144 -1.2928  2.0658
  137OSM    H7T14901   2.403   4.615   7.148  0.9749  1.1485 -0.8758
  137OSM    C8S14902   2.267   4.595   7.322  1.1838  0.0303 -0.3719
  137OSM    H8S14903   2.247   4.492   7.285  1.5167  0.7043 -2.5719
  137OSM    H8T14904   2.180   4.641   7.374  1.0124 -1.2976  0.5740
  137OSM    C9S14905   2.373   4.575   7.423  0.3720 -0.3851 -0.3994
  137OSM    H9S14906   2.409   4.672   7.463  0.9823 -1.2998  1.3594
  137OSM    H9T14907   2.461   4.526   7.375  0.1705 -1.3286  0.1739
  137OSM   C10S14908   2.327   4.494   7.551 -0.2488 -0.1684  0.5233
  137OSM   H10S14909   2.354   4.386   7.555 -0.7234 -0.2655  1.8347
  137OSM   H10T14910   2.218   4.484   7.532 -0.5435 -2.8111  2.8084
  137OSM   C11S14911   2.348   4.563   7.682 -0.2464  0.4979 -0.1871
  137OSM   H11S14912   2.283   4.651   7.701  0.9463  1.3887 -0.0984
  137OSM   H11T14913   2.452   4.601   7.686 -0.3335  0.6598  2.0884
  137OSM   C12S14914   2.331   4.471   7.797  0.4269 -0.1658  0.0367
  137OSM   H12S14915   2.356   4.527   7.890 -1.0714  3.2795 -1.4360
  137OSM   H12T14916   2.392   4.383   7.770 -2.0871 -1.8489 -0.4020
  137OSM   C13S14917   2.184   4.424   7.818  0.5617  0.3502  0.6374
  137OSM   H13S14918   2.146   4.374   7.727  2.2821  1.4764 -0.7564
  137OSM   H13T14919   2.127   4.519   7.827  0.1140  0.2342 -0.7170
  137OSM   C14S14920   2.164   4.343   7.939  0.7091 -0.0291  1.0634
  137OSM   H14S14921   2.201   4.239   7.927  0.1006 -0.0722 -0.7121
  137OSM   H14T14922   2.054   4.334   7.948  0.4099 -0.2945 -1.9050
  137OSM   C15S14923   2.222   4.408   8.068 -0.2523  0.2615 -0.5368
  137OSM   H15S14924   2.211   4.518   8.079  1.3789  0.4100 -0.1564
  137OSM   H15T14925   2.332   4.395   8.073  0.0721  2.6531 -0.0149
  137OSM   C16S14926   2.168   4.341   8.191  1.2307  0.4080 -0.2856
  137OSM   H16S14927   2.150   4.233   8.175  1.4682  0.2282  0.6073
  137OSM   H16T14928   2.065   4.380   8.208  0.2608 -2.9585  2.7955
  137OSM   C17S14929   2.239   4.380   8.327 -0.2699 -0.5611 -0.1082
  137OSM   H17S14930   2.341   4.338   8.317 -0.5296 -0.6227 -4.6638
  137OSM   H17T14931   2.183   4.322   8.403 -0.6621  0.6603  0.5709
  137OSM   C18S14932   2.248   4.528   8.372  0.0253 -0.2168  0.3986
  137OSM   H18S14933   2.160   4.594   8.355  0.2429  0.1050  0.5076
  137OSM   H18T14934   2.328   4.573   8.308 -0.5617 -0.6928 -0.7076
  137OSM   H18U14935   2.273   4.531   8.480  0.5341 -0.8110  0.3035
  137OSM    C1F14936   1.906   5.146   6.877 -0.7570 -0.9390  0.4482
  137OSM     OF14937   1.839   5.122   6.781  0.3630  0.1631  0.5905
  137OSM    C2F14938   1.838   5.229   6.989 -0.3034  0.3093 -0.5919
  137OSM    H2F14939   1.797   5.319   6.938 -1.6669 -0.7582 -1.4482
  137OSM    H2G14940   1.920   5.248   7.061 -0.0949 -1.2643 -0.3818
  137OSM    C3F14941   1.720   5.145   7.053 -0.0939  0.0108  0.1202
  137OSM    H3F14942   1.746   5.038   7.034  1.5049  0.1092  1.4833
  137OSM    H3G14943   1.635   5.173   6.987 -0.0353 -0.4286 -0.1417
  137OSM    C4F14944   1.681   5.164   7.204  0.1283  0.1728  0.4322
  137OSM    H4F14945   1.773   5.132   7.257  0.0446 -0.3341  0.2784
  137OSM    H4G14946   1.594   5.100   7.230  0.0034  0.2939  0.3118
  137OSM    C5F14947   1.642   5.312   7.228 -0.5578  0.4044 -0.0203
  137OSM    H5F14948   1.567   5.337   7.150  0.2485 -1.9440 -1.6575
  137OSM    H5G14949   1.736   5.366   7.204  1.0394 -1.5842  1.4798
  137OSM    C6F14950   1.609   5.347   7.368  0.2901  0.0157  0.2193
  137OSM    H6F14951   1.699   5.345   7.433  0.8819  1.1590 -0.5332
  137OSM    H6G14952   1.537   5.283   7.424  1.7996 -1.0312  1.0311
  137OSM    C7F14953   1.547   5.482   7.372  0.1646  0.1981 -0.2866
  137OSM    H7F14954   1.456   5.486   7.308 -0.3824  1.4620  0.5328
  137OSM    H7G14955   1.625   5.553   7.340  0.5572  0.0699  0.3700
  137OSM    C8F14956   1.486   5.516   7.514  0.1606 -0.1628  0.2553
  137OSM    H8F14957   1.413   5.436   7.541 -0.8236 -0.0305 -1.8339
  137OSM    H8G14958   1.437   5.615   7.517 -1.6307 -0.9963 -0.1639
  137OSM    C9F14959   1.601   5.531   7.620 -0.2299 -0.3896  0.0976
  137OSM    H9F14960   1.667   5.618   7.611  2.7411 -2.3261  1.7109
  137OSM   C10F14961   1.630   5.438   7.717  0.3601  0.0451 -0.3455
  137OSM   H10F14962   1.704   5.467   7.792  1.4017  1.2196 -1.7653
  137OSM   C11F14963   1.549   5.310   7.742 -0.1659 -1.1945 -0.8474
  137OSM   H11F14964   1.618   5.224   7.756  1.2045 -0.2371 -1.4814
  137OSM   H11G14965   1.493   5.287   7.649 -2.0243  1.1867 -0.4289
  137OSM   C12F14966   1.456   5.319   7.862  0.2056 -0.2992 -0.5278
  137OSM   H12F14967   1.391   5.230   7.864  0.2169 -0.2949  0.2717
  137OSM   H12G14968   1.385   5.404   7.867 -0.0876 -0.5985  0.9290
  137OSM   C13F14969   1.538   5.323   7.999  0.0614 -0.3034  1.3758
  137OSM   H13F14970   1.579   5.426   8.007 -2.5146  0.7187  2.4761
  137OSM   H13G14971   1.622   5.250   7.994  0.3935  0.1083  0.7779
  137OSM   C14F14972   1.456   5.302   8.117  0.3697  0.0844 -0.3522
  137OSM   H14F14973   1.447   5.196   8.150 -1.4341 -0.1651 -1.5461
  137OSM   H14G14974   1.351   5.326   8.092  0.0945  0.5287  1.1303
  137OSM   C15F14975   1.494   5.391   8.228 -0.1946 -0.2019  0.7583
  137OSM   H15F14976   1.509   5.493   8.185 -2.5299  0.8431  2.2357
  137OSM   H15G14977   1.594   5.373   8.272 -0.3024 -1.0259  0.6800
  137OSM   C16F14978   1.381   5.412   8.327 -0.6931  0.0241  0.1731
  137OSM   H16F14979   1.341   5.314   8.360 -2.5135 -0.7922 -3.8511
  137OSM   H16G14980   1.303   5.475   8.278  0.3005  2.1302  1.2164
  137OSM   C17F14981   1.427   5.492   8.450  0.5009 -0.4530  0.1243
  137OSM   H17F14982   1.496   5.572   8.415  1.5505 -1.9161 -1.2803
  137OSM   H17G14983   1.471   5.424   8.526 -1.2297 -2.1707 -0.3337
  137OSM   C18F14984   1.298   5.549   8.519  0.3515 -0.1729  0.2763
  137OSM   H18F14985   1.233   5.469   8.559 -0.7322 -0.3004 -1.6314
  137OSM   H18G14986   1.234   5.611   8.453  0.5013 -2.3668 -2.1049
  137OSM   H18H14987   1.336   5.620   8.596  2.8259 -1.9428  0.8172
  138OSM      N14988   3.929   0.781   5.894  0.1347  0.1440 -0.0915
  138OSM    C1514989   4.078   0.774   5.854  0.1872 -0.0900 -0.2880
  138OSM   H15A14990   4.098   0.741   5.753  1.4999 -1.3670  0.3404
  138OSM   H15B14991   4.126   0.706   5.923 -0.6282  0.5279  0.9107
  138OSM   H15C14992   4.116   0.875   5.860  0.5226 -0.1592 -1.1443
  138OSM    C1414993   3.849   0.881   5.814 -0.0319  0.3072  0.1263
  138OSM   H14A14994   3.875   0.865   5.711  1.2605  2.5265  0.0428
  138OSM   H14B14995   3.880   0.985   5.823 -2.7308  1.2787 -0.7518
  138OSM   H14C14996   3.742   0.874   5.828  0.0435  1.2130  1.3136
  138OSM    C1314997   3.869   0.648   5.873 -0.9668  0.6668 -0.8061
  138OSM   H13A14998   3.906   0.570   5.938 -0.8996  0.9960 -0.4484
  138OSM   H13B14999   3.886   0.617   5.771 -0.9152 -1.0123 -0.3275
  138OSM   H13C15000   3.763   0.659   5.888 -1.1494  0.1605 -1.6521
  138OSM    C1215001   3.913   0.836   6.043 -0.3112  0.5873  0.5653
  138OSM   H12A15002   3.960   0.933   6.043  2.9177 -0.7783 -1.8661
  138OSM   H12B15003   3.987   0.783   6.102  0.3817 -0.7478 -1.3723
  138OSM    C1115004   3.775   0.827   6.109  0.4562  0.3810 -0.7376
  138OSM   H11A15005   3.786   0.863   6.213 -0.1548  0.2936 -0.6391
  138OSM   H11B15006   3.734   0.724   6.120 -0.3148  0.6771 -0.7857
  138OSM      P15007   3.664   1.060   6.069 -0.2892 -0.3693  0.3416
  138OSM    O1315008   3.777   1.129   6.000 -0.1177  0.3005 -0.2927
  138OSM    O1415009   3.527   1.095   6.014 -0.1826 -0.0340 -0.4056
  138OSM    O1115010   3.684   1.093   6.221 -0.4883 -0.4343  0.6047
  138OSM    O1215011   3.677   0.910   6.046 -0.1651  0.2336 -0.6279
  138OSM    C1S15012   3.583   1.084   6.321 -0.4542 -0.6063 -0.0513
  138OSM    H1S15013   3.504   1.014   6.286  1.4512 -1.9661 -1.9059
  138OSM    H1T15014   3.544   1.186   6.337  1.7026  0.1610  0.7391
  138OSM     NF15015   3.522   1.059   6.560 -1.0460 -0.4689 -0.1213
  138OSM    HNF15016   3.533   1.143   6.613  1.7476 -0.8113 -0.0210
  138OSM    C2S15017   3.626   1.045   6.463  0.3550 -0.0618 -0.3541
  138OSM    H2S15018   3.651   0.937   6.457  0.6186  0.0394 -1.3811
  138OSM    C3S15019   3.766   1.121   6.501  0.0694  0.4086 -0.3958
  138OSM    H3S15020   3.739   1.228   6.502 -3.2467 -0.2664 -2.4095
  138OSM     O315021   3.870   1.110   6.397 -0.0878  0.4485 -0.2934
  138OSM    HO315022   3.824   1.070   6.323 -0.1672  1.0622 -0.5818
  138OSM    C4S15023   3.829   1.071   6.625 -0.5387  0.3176 -0.0646
  138OSM    H4S15024   3.870   0.969   6.625  1.1154  0.9433 -0.0343
  138OSM    C5S15025   3.847   1.137   6.737 -0.0055 -0.2925 -0.0030
  138OSM    H5S15026   3.818   1.243   6.732 -1.4485 -0.6495  0.4443
  138OSM    C6S15027   3.914   1.097   6.868  0.5295 -0.0598 -0.6358
  138OSM    H6S15028   3.974   1.180   6.909  0.3885 -1.3080  2.3721
  138OSM    H6T15029   3.984   1.012   6.854 -0.3943 -0.9270 -0.1249
  138OSM    C7S15030   3.812   1.063   6.973  0.5496  0.6541 -0.0576
  138OSM    H7S15031   3.765   0.964   6.952  1.5703 -0.0412  0.7854
  138OSM    H7T15032   3.731   1.138   6.983  0.3911  0.4813 -0.0143
  138OSM    C8S15033   3.882   1.055   7.108 -0.1284  0.0154 -0.2544
  138OSM    H8S15034   3.903   1.155   7.152  1.3707 -0.5914  0.4702
  138OSM    H8T15035   3.981   1.010   7.088  0.1905  1.0715 -1.1784
  138OSM    C9S15036   3.799   0.970   7.208  0.3583 -0.5847 -0.0219
  138OSM    H9S15037   3.811   0.862   7.182 -0.8883 -0.7150 -0.1161
  138OSM    H9T15038   3.695   1.005   7.191  0.5769  1.3754  2.1196
  138OSM   C10S15039   3.819   0.986   7.356 -0.0923 -0.4126  0.6027
  138OSM   H10S15040   3.810   1.092   7.387  1.7682 -0.1861  0.4702
  138OSM   H10T15041   3.922   0.947   7.372 -0.1058 -0.5620  0.3345
  138OSM   C11S15042   3.730   0.893   7.436 -0.1159 -0.2735 -0.2332
  138OSM   H11S15043   3.744   0.787   7.407 -0.3651  0.0180 -1.4934
  138OSM   H11T15044   3.629   0.909   7.391  1.1049  1.5086 -2.6005
  138OSM   C12S15045   3.736   0.930   7.579  0.0108 -0.3081  0.6245
  138OSM   H12S15046   3.658   0.874   7.636  0.8417 -1.7862  0.3402
  138OSM   H12T15047   3.710   1.038   7.577  0.5807 -0.1483 -2.3298
  138OSM   C13S15048   3.873   0.917   7.646  0.0657 -0.1519  0.7073
  138OSM   H13S15049   3.951   0.971   7.588  1.5965 -1.6764  1.2757
  138OSM   H13T15050   3.905   0.811   7.639 -0.6558 -0.4969  2.3589
  138OSM   C14S15051   3.867   0.972   7.787 -0.0536 -0.4609 -0.3712
  138OSM   H14S15052   3.772   0.935   7.832  0.6565 -0.7547  0.9213
  138OSM   H14T15053   3.857   1.083   7.790  0.1524 -0.4423 -0.4014
  138OSM   C15S15054   3.966   0.911   7.878 -0.0631  0.7203 -0.8074
  138OSM   H15S15055   4.065   0.953   7.848  0.8918 -0.8290  0.0295
  138OSM   H15T15056   3.990   0.807   7.849  1.8029  0.5472  1.0482
  138OSM   C16S15057   3.943   0.932   8.029 -0.4104  0.5381 -0.5382
  138OSM   H16S15058   4.028   0.891   8.086 -1.3713  0.0227  0.5657
  138OSM   H16T15059   3.867   0.860   8.066  1.7068 -0.9207  1.2730
  138OSM   C17S15060   3.931   1.072   8.075 -0.3592  0.1169  0.4046
  138OSM   H17S15061   3.850   1.109   8.008 -0.3979 -2.1733 -0.9304
  138OSM   H17T15062   4.022   1.129   8.048  0.1349  0.5686  2.8561
  138OSM   C18S15063   3.903   1.095   8.222  0.8083 -0.1553 -0.8143
  138OSM   H18S15064   3.891   1.201   8.254 -1.8174 -1.3972  2.9648
  138OSM   H18T15065   3.980   1.052   8.289 -0.1815 -0.1491  0.3709
  138OSM   H18U15066   3.808   1.043   8.249  0.8084 -0.3742 -1.2303
  138OSM    C1F15067   3.419   0.979   6.570  0.5507 -0.6075 -0.4950
  138OSM     OF15068   3.381   0.911   6.472  0.1505  0.0370  0.5465
  138OSM    C2F15069   3.349   0.975   6.709 -0.8557 -0.1461  0.6203
  138OSM    H2F15070   3.245   0.938   6.697 -0.1460 -1.4608 -2.9010
  138OSM    H2G15071   3.352   1.079   6.746  1.3065 -0.3057  1.0385
  138OSM    C3F15072   3.430   0.910   6.828  0.0601 -1.0045 -0.1026
  138OSM    H3F15073   3.530   0.957   6.840 -0.3549 -0.5136  1.6584
  138OSM    H3G15074   3.455   0.805   6.801  2.5372 -0.1949 -1.2704
  138OSM    C4F15075   3.359   0.928   6.965  0.1091 -0.0673 -0.1233
  138OSM    H4F15076   3.384   0.838   7.025 -0.7542  1.6299  3.0207
  138OSM    H4G15077   3.250   0.935   6.949 -0.1103  0.4158  1.4011
  138OSM    C5F15078   3.409   1.056   7.043  0.1603  0.5161  0.4507
  138OSM    H5F15079   3.372   1.149   6.996 -2.5675 -0.6784  0.0584
  138OSM    H5G15080   3.520   1.056   7.050  0.1640 -0.3537  0.5135
  138OSM    C6F15081   3.348   1.070   7.188 -0.2779  0.5745 -0.3194
  138OSM    H6F15082   3.374   0.972   7.232 -1.0536 -0.0918 -1.2935
  138OSM    H6G15083   3.237   1.079   7.194 -0.0762  1.9626  3.5853
  138OSM    C7F15084   3.409   1.177   7.282  0.8160  0.1215  0.0366
  138OSM    H7F15085   3.363   1.278   7.275 -0.2869 -0.3897 -0.3460
  138OSM    H7G15086   3.512   1.186   7.243  0.5197  1.5440 -0.5194
  138OSM    C8F15087   3.407   1.143   7.431  0.6812  0.4852 -0.8087
  138OSM    H8F15088   3.452   1.043   7.451  0.8002  0.5017 -0.9912
  138OSM    H8G15089   3.302   1.151   7.467  0.6371  0.5989 -0.9613
  138OSM    C9F15090   3.502   1.234   7.503  0.0139 -0.1178  0.7075
  138OSM    H9F15091   3.548   1.309   7.438  2.3802 -0.4122  1.9616
  138OSM   C10F15092   3.517   1.250   7.635  0.4873  0.1882  0.1678
  138OSM   H10F15093   3.593   1.317   7.676  2.6778 -1.5335 -0.8524
  138OSM   C11F15094   3.452   1.159   7.742 -0.3322 -0.5552  0.2833
  138OSM   H11F15095   3.532   1.117   7.807  1.5029 -0.8765 -2.0392
  138OSM   H11G15096   3.418   1.067   7.689 -1.0022 -0.3255  0.3065
  138OSM   C12F15097   3.345   1.244   7.811 -0.4424  0.5504 -0.2429
  138OSM   H12F15098   3.276   1.299   7.743 -0.6767  0.0378 -0.4271
  138OSM   H12G15099   3.398   1.315   7.878 -1.9958 -0.0987  1.7872
  138OSM   C13F15100   3.251   1.156   7.899 -0.1996  0.1362  0.1006
  138OSM   H13F15101   3.299   1.080   7.964 -3.1901 -1.5974  0.4585
  138OSM   H13G15102   3.185   1.093   7.835 -1.3140  2.5907 -1.3238
  138OSM   C14F15103   3.148   1.242   7.986 -0.5157  0.6625 -0.3198
  138OSM   H14F15104   3.075   1.297   7.922 -0.4964 -1.4520 -2.3161
  138OSM   H14G15105   3.201   1.314   8.051  0.7214 -1.2115  0.8426
  138OSM   C15F15106   3.051   1.153   8.080  0.4746 -0.2343  0.5164
  138OSM   H15F15107   3.117   1.109   8.159  1.2110  1.6702  1.0243
  138OSM   H15G15108   3.016   1.068   8.017  1.7838  0.5507 -1.3897
  138OSM   C16F15109   2.947   1.239   8.147 -0.1816 -0.6021 -0.2593
  138OSM   H16F15110   2.876   1.259   8.065  2.0420  1.2653 -1.8767
  138OSM   H16G15111   2.992   1.334   8.184 -0.6549  0.2862 -1.8908
  138OSM   C17F15112   2.864   1.173   8.258  0.6668 -0.1497  0.0513
  138OSM   H17F15113   2.921   1.143   8.348 -0.3239 -0.5571  0.5631
  138OSM   H17G15114   2.812   1.088   8.210  0.0908  0.6872 -0.8421
  138OSM   C18F15115   2.757   1.265   8.310  0.5409 -0.2085  0.7897
  138OSM   H18F15116   2.694   1.297   8.225  0.9832 -0.4083  0.3860
  138OSM   H18G15117   2.793   1.354   8.365  0.1251  1.2137 -1.1331
  138OSM   H18H15118   2.689   1.217   8.384 -2.0752  1.5194 -0.3373
  139OSM      N15119   2.192   1.127   5.946  0.1322 -0.7354  0.1131
  139OSM    C1515120   2.090   1.043   5.878 -0.4269 -0.2109  0.1049
  139OSM   H15A15121   2.000   1.103   5.868 -0.8823 -0.9684 -0.4221
  139OSM   H15B15122   2.075   0.947   5.925 -4.3939 -0.8817 -2.1172
  139OSM   H15C15123   2.099   1.012   5.775  1.1273  0.2299  0.0823
  139OSM    C1415124   2.329   1.065   5.932  0.0095 -0.4655 -0.5587
  139OSM   H14A15125   2.394   1.122   5.996 -0.7993  0.9824 -0.9734
  139OSM   H14B15126   2.367   1.088   5.834 -1.1219  0.6319 -0.7722
  139OSM   H14C15127   2.326   0.964   5.968  0.9419  0.0377  1.0706
  139OSM    C1315128   2.203   1.264   5.880 -0.1696 -0.2473  0.2746
  139OSM   H13A15129   2.230   1.263   5.775  1.5957 -0.0646  0.6964
  139OSM   H13B15130   2.276   1.336   5.914  1.4618  0.3917 -3.9597
  139OSM   H13C15131   2.108   1.316   5.890  0.7851  1.6207  0.1250
  139OSM    C1215132   2.157   1.142   6.093  0.2578 -0.0815  0.8016
  139OSM   H12A15133   2.058   1.182   6.110  0.8948  0.3739  3.9933
  139OSM   H12B15134   2.210   1.224   6.138 -0.8906  1.0667  0.1313
  139OSM    C1115135   2.172   1.019   6.187  0.4038 -0.0105  0.3469
  139OSM   H11A15136   2.138   1.026   6.292  0.7148 -0.3913  0.4767
  139OSM   H11B15137   2.282   1.011   6.201  0.4487  0.7833  0.4681
  139OSM      P15138   2.184   0.765   6.145  0.4523  0.5524  0.0133
  139OSM    O1315139   2.096   0.647   6.115 -0.7486  0.3073  0.4664
  139OSM    O1415140   2.313   0.773   6.069 -0.3906  0.2852  0.0918
  139OSM    O1115141   2.214   0.760   6.296 -1.0108 -0.1521 -0.4862
  139OSM    O1215142   2.108   0.901   6.134 -0.6613 -0.3714 -0.0878
  139OSM    C1S15143   2.117   0.758   6.392 -0.5997 -0.1895 -0.5829
  139OSM    H1S15144   2.060   0.664   6.384 -1.2511  0.1057  0.3953
  139OSM    H1T15145   2.048   0.845   6.379  0.2630  0.5579 -0.3158
  139OSM     NF15146   2.070   0.728   6.633  0.0896 -0.3967  0.6260
  139OSM    HNF15147   2.041   0.806   6.688 -1.9249 -1.1724  0.7628
  139OSM    C2S15148   2.179   0.752   6.537  0.5698 -0.2374  0.2768
  139OSM    H2S15149   2.253   0.670   6.541  2.1882  1.1726  0.0504
  139OSM    C3S15150   2.254   0.885   6.565 -0.3949  0.7732  0.1941
  139OSM    H3S15151   2.186   0.973   6.557  0.1087  1.1469 -0.0854
  139OSM     O315152   2.365   0.914   6.480 -0.2190  0.2895  0.3000
  139OSM    HO315153   2.345   0.856   6.406 -0.2068  0.6424  0.0162
  139OSM    C4S15154   2.316   0.876   6.702  0.2863  0.1354  0.1680
  139OSM    H4S15155   2.383   0.789   6.711 -1.6914 -1.5252 -0.2028
  139OSM    C5S15156   2.278   0.957   6.802  0.4189  0.0250  0.0219
  139OSM    H5S15157   2.202   1.034   6.784  0.8644  0.5033  0.1414
  139OSM    C6S15158   2.319   0.958   6.947  0.2612  0.0317 -0.3792
  139OSM    H6S15159   2.230   0.941   7.011  0.7004 -2.4237 -0.3071
  139OSM    H6T15160   2.343   1.061   6.983 -1.1946 -0.2121  1.4746
  139OSM    C7S15161   2.418   0.849   6.980  1.1116  0.0385 -0.3678
  139OSM    H7S15162   2.507   0.823   6.918  0.6591  0.7476 -1.3398
  139OSM    H7T15163   2.379   0.745   6.988  1.9492 -0.2718 -0.1300
  139OSM    C8S15164   2.487   0.885   7.116 -0.9268  0.2965  0.1687
  139OSM    H8S15165   2.533   0.986   7.116  1.5026 -0.7512  0.6662
  139OSM    H8T15166   2.581   0.827   7.119 -0.2097  1.1616 -2.5526
  139OSM    C9S15167   2.406   0.860   7.238  0.7171  0.2965  0.4326
  139OSM    H9S15168   2.361   0.760   7.223  1.2668  0.1138 -0.0840
  139OSM    H9T15169   2.326   0.937   7.239  0.7171  0.2904  1.3160
  139OSM   C10S15170   2.498   0.870   7.364 -0.3007  0.6829 -0.0642
  139OSM   H10S15171   2.533   0.975   7.372  4.2823 -0.7370  2.3565
  139OSM   H10T15172   2.583   0.804   7.334 -2.4941 -2.5415  0.3072
  139OSM   C11S15173   2.433   0.831   7.494  0.0305  0.1335  0.4343
  139OSM   H11S15174   2.410   0.722   7.494  0.0084  0.1344 -0.1844
  139OSM   H11T15175   2.340   0.887   7.515  2.1158  2.4859  4.6076
  139OSM   C12S15176   2.515   0.865   7.619  0.8494  0.3348  0.1858
  139OSM   H12S15177   2.577   0.957   7.607 -1.0064  1.4965 -0.8987
  139OSM   H12T15178   2.581   0.776   7.627 -0.1208 -0.2864  1.5417
  139OSM   C13S15179   2.423   0.864   7.745 -0.2856  0.3452  0.0148
  139OSM   H13S15180   2.372   0.766   7.742 -0.2148  0.3252 -0.9846
  139OSM   H13T15181   2.346   0.943   7.730 -0.2784  0.3777  0.1426
  139OSM   C14S15182   2.490   0.868   7.883 -0.0974 -0.1422 -0.1395
  139OSM   H14S15183   2.547   0.964   7.889 -0.1948 -0.1563  1.8551
  139OSM   H14T15184   2.561   0.782   7.884  1.8368  1.3823  0.3890
  139OSM   C15S15185   2.391   0.864   8.002  0.2943 -0.4758  0.1486
  139OSM   H15S15186   2.331   0.770   7.995 -0.2637 -0.2308  1.3505
  139OSM   H15T15187   2.319   0.948   7.998 -0.7689 -1.3772 -0.1584
  139OSM   C16S15188   2.456   0.870   8.136  0.0214  0.0531  0.7367
  139OSM   H16S15189   2.518   0.962   8.137  2.5967 -1.5340 -0.7069
  139OSM   H16T15190   2.519   0.780   8.151  1.1788  0.9741  1.6151
  139OSM   C17S15191   2.357   0.886   8.257 -0.3001 -0.4675  0.3787
  139OSM   H17S15192   2.279   0.806   8.261 -2.2474  1.3267  0.4050
  139OSM   H17T15193   2.291   0.974   8.238 -1.0648 -0.9209  0.8620
  139OSM   C18S15194   2.419   0.889   8.393  0.4399 -1.0076  0.3821
  139OSM   H18S15195   2.344   0.906   8.473  0.9956 -1.0725  0.9221
  139OSM   H18T15196   2.500   0.964   8.394 -1.2276  0.8695  1.7770
  139OSM   H18U15197   2.465   0.792   8.423  0.6037 -1.3402 -0.8798
  139OSM    C1F15198   2.002   0.613   6.650 -0.7347 -0.3305  0.5651
  139OSM     OF15199   2.048   0.508   6.602  0.2393 -0.4489  0.4128
  139OSM    C2F15200   1.875   0.620   6.725  0.7455 -0.6762  0.3559
  139OSM    H2F15201   1.793   0.571   6.668 -0.4961  2.8302 -1.1208
  139OSM    H2G15202   1.849   0.724   6.753  0.1347 -1.2148  1.9074
  139OSM    C3F15203   1.889   0.543   6.866 -0.1163  0.1308  1.2704
  139OSM    H3F15204   1.873   0.439   6.829 -2.0501  0.8805 -0.2056
  139OSM    H3G15205   1.799   0.558   6.929 -0.7331  1.1212  0.1870
  139OSM    C4F15206   2.020   0.536   6.936 -0.1797 -0.0104 -0.1870
  139OSM    H4F15207   2.102   0.528   6.862 -1.6090  0.9163 -1.9598
  139OSM    H4G15208   2.015   0.439   6.989 -0.5651 -0.7583 -1.5322
  139OSM    C5F15209   2.059   0.658   7.034 -0.1350  0.0972  0.3804
  139OSM    H5F15210   2.019   0.747   6.981 -2.0971 -0.4050  0.9416
  139OSM    H5G15211   2.170   0.664   7.037 -0.0071  0.5680 -2.6517
  139OSM    C6F15212   2.008   0.645   7.177  0.2398  0.6535  0.5371
  139OSM    H6F15213   2.016   0.538   7.206 -0.4633 -0.5410 -3.2346
  139OSM    H6G15214   1.900   0.670   7.182  0.2934  1.3059 -1.0773
  139OSM    C7F15215   2.074   0.743   7.270 -0.1157  0.1122 -0.1455
  139OSM    H7F15216   2.071   0.844   7.226 -0.1285  0.6880  1.1340
  139OSM    H7G15217   2.181   0.716   7.288 -0.5349 -1.1690  0.5832
  139OSM    C8F15218   2.013   0.735   7.414  0.4881 -0.0085  0.9448
  139OSM    H8F15219   2.012   0.632   7.457 -0.4387 -0.6522 -0.5401
  139OSM    H8G15220   1.905   0.762   7.403  0.1524 -0.7261  2.2212
  139OSM    C9F15221   2.073   0.836   7.503  0.5400  0.2690  0.0716
  139OSM    H9F15222   2.091   0.935   7.459  2.1895  0.3665  0.8945
  139OSM   C10F15223   2.095   0.816   7.636 -0.8122  0.2957  0.5419
  139OSM   H10F15224   2.158   0.886   7.694  1.4504 -1.5430  0.4431
  139OSM   C11F15225   2.078   0.682   7.713 -0.4159 -0.7507 -0.3685
  139OSM   H11F15226   2.166   0.615   7.707  0.2016 -0.1924  1.6344
  139OSM   H11G15227   1.997   0.621   7.669 -1.4193 -0.0882  0.5073
  139OSM   C12F15228   2.044   0.709   7.861  0.0901 -0.3495 -0.8824
  139OSM   H12F15229   1.946   0.758   7.877  0.1110 -0.7842  0.7370
  139OSM   H12G15230   2.115   0.783   7.904 -1.0401 -1.1233  2.6808
  139OSM   C13F15231   2.065   0.590   7.955  0.9858  0.5483 -0.0607
  139OSM   H13F15232   2.168   0.549   7.958  0.9237  0.4216  0.4627
  139OSM   H13G15233   1.996   0.507   7.929  0.3040  1.1381 -0.1725
  139OSM   C14F15234   2.024   0.632   8.103 -0.2908  0.5944 -0.0686
  139OSM   H14F15235   1.915   0.647   8.111 -0.5075  0.8174 -2.6420
  139OSM   H14G15236   2.067   0.731   8.132  0.8655  0.5310 -1.4497
  139OSM   C15F15237   2.063   0.530   8.201 -0.2929 -0.2019  0.1481
  139OSM   H15F15238   2.173   0.521   8.199 -0.1322  1.0894  1.7467
  139OSM   H15G15239   1.997   0.443   8.176 -2.1129  0.7121  1.5615
  139OSM   C16F15240   2.014   0.560   8.344  0.0471  0.5546 -0.0705
  139OSM   H16F15241   1.995   0.461   8.391 -1.8444  1.1695  0.5308
  139OSM   H16G15242   1.916   0.612   8.334 -1.6981 -2.2850  1.0067
  139OSM   C17F15243   2.114   0.644   8.424 -0.2727  0.2839  0.0140
  139OSM   H17F15244   2.136   0.743   8.378 -0.2949  1.7594  2.9478
  139OSM   H17G15245   2.205   0.581   8.432 -1.3983 -1.6642 -1.5916
  139OSM   C18F15246   2.064   0.669   8.564 -0.8114 -0.3546 -0.2433
  139OSM   H18F15247   2.144   0.710   8.629  1.2717 -0.4387 -2.6362
  139OSM   H18G15248   2.023   0.575   8.607  1.0569 -1.5894 -1.0582
  139OSM   H18H15249   1.990   0.752   8.561  1.5461  1.8209 -1.8375
  140OSM      N15250   2.993   3.120   6.437  0.7767 -0.0589 -0.3383
  140OSM    C1515251   2.906   3.020   6.365 -0.0105 -0.3515 -0.8802
  140OSM   H15A15252   2.832   3.078   6.312  0.7011  0.4967 -0.9605
  140OSM   H15B15253   2.850   2.953   6.428 -0.6551 -1.3158 -2.4352
  140OSM   H15C15254   2.958   2.957   6.294  3.0402 -0.6053  1.3608
  140OSM    C1415255   2.894   3.186   6.531  0.0532  0.0535 -0.0118
  140OSM   H14A15256   2.933   3.254   6.605  2.3742 -0.0432 -1.0569
  140OSM   H14B15257   2.850   3.110   6.594  0.5166  1.0706  1.6088
  140OSM   H14C15258   2.823   3.228   6.461 -1.1548 -1.5132  0.2152
  140OSM    C1315259   3.104   3.051   6.522  0.2225  0.0035  0.0889
  140OSM   H13A15260   3.056   2.961   6.559 -2.7457  0.7797 -1.5129
  140OSM   H13B15261   3.144   3.119   6.596  0.1573 -1.2212  1.2929
  140OSM   H13C15262   3.182   3.018   6.455 -1.0265  1.4595 -2.2278
  140OSM    C1215263   3.057   3.209   6.343  0.2992  0.4695 -0.1448
  140OSM   H12A15264   3.087   3.149   6.258 -0.3767  1.3563 -1.0361
  140OSM   H12B15265   3.150   3.248   6.382  0.0887  0.3403  0.5031
  140OSM    C1115266   2.973   3.328   6.290  0.7006  0.5013  0.7364
  140OSM   H11A15267   3.030   3.350   6.197  0.6015 -1.0393  0.2783
  140OSM   H11B15268   2.973   3.405   6.370 -0.5386 -2.0845  3.4110
  140OSM      P15269   2.735   3.403   6.210 -0.0866 -0.1052  0.2236
  140OSM    O1315270   2.820   3.507   6.161 -0.6472 -0.8713  0.3280
  140OSM    O1415271   2.637   3.342   6.111 -0.5327  0.3303 -0.3941
  140OSM    O1115272   2.663   3.433   6.348 -0.1944  0.3341 -0.4567
  140OSM    O1215273   2.836   3.294   6.254  0.0026  0.2181  0.0133
  140OSM    C1S15274   2.548   3.359   6.388 -0.4441 -0.2042  0.1019
  140OSM    H1S15275   2.571   3.251   6.392 -2.3406 -0.6245  0.9529
  140OSM    H1T15276   2.468   3.366   6.312  0.9108  1.0721 -1.2789
  140OSM     NF15277   2.409   3.301   6.571 -0.0635 -0.0783 -0.2157
  140OSM    HNF15278   2.311   3.314   6.581  0.0676  0.0475  1.2262
  140OSM    C2S15279   2.492   3.413   6.520 -0.0501  0.0719  0.3041
  140OSM    H2S15280   2.579   3.429   6.588  0.4213  0.7306 -0.4308
  140OSM    C3S15281   2.422   3.556   6.501 -0.4505 -0.6782 -0.3417
  140OSM    H3S15282   2.330   3.527   6.444 -1.2282  2.2310 -0.7634
  140OSM     O315283   2.506   3.653   6.424  0.1743  0.1133  0.3042
  140OSM    HO315284   2.573   3.599   6.380 -1.2125 -1.2695 -0.2191
  140OSM    C4S15285   2.385   3.609   6.637 -0.2228 -0.4376 -0.2178
  140OSM    H4S15286   2.277   3.612   6.660 -0.0930  1.1013  0.3140
  140OSM    C5S15287   2.471   3.672   6.719  0.3109 -0.0217 -0.3921
  140OSM    H5S15288   2.579   3.682   6.702  0.8534 -3.3926  0.4118
  140OSM    C6S15289   2.416   3.734   6.846 -0.1754 -0.8957 -0.1309
  140OSM    H6S15290   2.314   3.776   6.838 -0.8625 -2.2365  1.0512
  140OSM    H6T15291   2.467   3.831   6.861 -3.1734  0.9448 -1.1751
  140OSM    C7S15292   2.430   3.645   6.970 -0.4319  0.0326 -0.8294
  140OSM    H7S15293   2.531   3.598   6.973 -0.6604 -0.4799 -1.1605
  140OSM    H7T15294   2.364   3.557   6.958 -0.8301  0.5684 -2.9673
  140OSM    C8S15295   2.409   3.731   7.096  0.0011 -0.6894  0.1254
  140OSM    H8S15296   2.314   3.787   7.077 -1.0927 -2.7623 -0.7936
  140OSM    H8T15297   2.488   3.806   7.118 -0.8099  0.3274 -0.2954
  140OSM    C9S15298   2.387   3.650   7.221  0.9020 -0.6292  0.2737
  140OSM    H9S15299   2.483   3.599   7.243  1.2916  0.3415  0.8735
  140OSM    H9T15300   2.314   3.573   7.190  1.1526 -0.6950 -0.1595
  140OSM   C10S15301   2.318   3.729   7.343  0.6451 -0.4882 -0.4996
  140OSM   H10S15302   2.224   3.774   7.305 -0.0251 -1.0786  0.4114
  140OSM   H10T15303   2.385   3.812   7.372 -0.8297  0.4700  0.2598
  140OSM   C11S15304   2.279   3.639   7.464 -0.2288 -0.0270 -0.0277
  140OSM   H11S15305   2.364   3.574   7.491 -0.5672 -0.5180 -0.1373
  140OSM   H11T15306   2.195   3.570   7.440 -1.4964  0.9393  1.3969
  140OSM   C12S15307   2.226   3.717   7.595 -0.2282 -0.7511  0.0739
  140OSM   H12S15308   2.149   3.793   7.570  0.7927  1.2153  2.5351
  140OSM   H12T15309   2.313   3.771   7.637  0.4487 -1.0421 -0.9051
  140OSM   C13S15310   2.160   3.614   7.693 -0.0979 -0.8136 -0.0781
  140OSM   H13S15311   2.241   3.538   7.700  0.9849  0.0306 -2.4187
  140OSM   H13T15312   2.084   3.556   7.637  0.5358 -0.9295 -0.8267
  140OSM   C14S15313   2.104   3.668   7.829 -0.4540 -0.4556  0.0771
  140OSM   H14S15314   2.028   3.593   7.858 -0.2486 -0.7295 -0.0909
  140OSM   H14T15315   2.064   3.768   7.799  3.9483  2.3734  2.5046
  140OSM   C15S15316   2.213   3.689   7.936 -1.1480 -0.4297 -0.4451
  140OSM   H15S15317   2.169   3.750   8.018  0.3721 -2.8565  2.3697
  140OSM   H15T15318   2.301   3.734   7.886  0.0462  1.2395  2.8575
  140OSM   C16S15319   2.267   3.558   8.003 -0.3663  0.1990 -0.4256
  140OSM   H16S15320   2.364   3.527   7.959 -0.5239 -2.2032  0.7588
  140OSM   H16T15321   2.188   3.480   7.987  1.5929 -2.5586  2.0938
  140OSM   C17S15322   2.296   3.589   8.149 -0.8471 -0.9033  0.7725
  140OSM   H17S15323   2.197   3.598   8.200 -1.4188 -1.6392 -0.1813
  140OSM   H17T15324   2.352   3.685   8.156 -0.5921 -1.1673  3.1291
  140OSM   C18S15325   2.368   3.482   8.224 -0.0079  0.4786  0.0518
  140OSM   H18S15326   2.328   3.382   8.198  1.4178 -0.1592  0.2394
  140OSM   H18T15327   2.342   3.496   8.331 -1.1628  1.0603 -0.2909
  140OSM   H18U15328   2.478   3.489   8.207 -0.0501  0.6793 -0.1564
  140OSM    C1F15329   2.462   3.185   6.612  0.1983 -0.4224 -0.5486
  140OSM     OF15330   2.585   3.154   6.604  0.0896 -0.1746  0.2321
  140OSM    C2F15331   2.371   3.084   6.685 -0.4551  0.4046 -0.6306
  140OSM    H2F15332   2.348   3.018   6.598  0.7628 -0.9665  0.0419
  140OSM    H2G15333   2.277   3.132   6.719  1.3124  2.0935  2.3066
  140OSM    C3F15334   2.431   3.003   6.808 -0.0814  0.3807 -0.5848
  140OSM    H3F15335   2.531   2.964   6.780  0.2552  1.3487 -0.7783
  140OSM    H3G15336   2.367   2.913   6.821  1.5255 -0.8676 -1.0205
  140OSM    C4F15337   2.438   3.078   6.954  0.2161 -0.0333  0.0665
  140OSM    H4F15338   2.485   3.177   6.936  0.1322  0.3986  1.9804
  140OSM    H4G15339   2.512   3.024   7.018  1.2263  0.4498 -0.6693
  140OSM    C5F15340   2.307   3.102   7.025  0.8996 -0.3074  0.2616
  140OSM    H5F15341   2.255   3.009   7.059 -0.5124 -0.3758 -1.8648
  140OSM    H5G15342   2.228   3.156   6.969  1.5482  1.1411  0.7144
  140OSM    C6F15343   2.323   3.182   7.148 -0.6568  0.4596 -0.5598
  140OSM    H6F15344   2.358   3.287   7.139  3.1147 -0.6867 -0.9976
  140OSM    H6G15345   2.391   3.130   7.219  0.8505  1.6992 -1.0449
  140OSM    C7F15346   2.190   3.192   7.232  0.4318  0.2354  0.5398
  140OSM    H7F15347   2.133   3.097   7.222 -0.3236  0.8289 -1.1189
  140OSM    H7G15348   2.126   3.262   7.174  2.1599  1.3115 -0.1514
  140OSM    C8F15349   2.209   3.253   7.366  0.1597  0.0616 -0.1534
  140OSM    H8F15350   2.107   3.283   7.398 -0.2827 -1.2968 -0.2071
  140OSM    H8G15351   2.270   3.345   7.355  0.7804 -0.3970 -0.5941
  140OSM    C9F15352   2.277   3.174   7.476 -0.3621 -0.1065 -0.7431
  140OSM    H9F15353   2.382   3.146   7.458 -0.6850 -0.9729 -1.4099
  140OSM   C10F15354   2.230   3.141   7.597  0.2270  0.0705 -0.2758
  140OSM   H10F15355   2.298   3.098   7.672 -1.1144  0.3668  1.1406
  140OSM   C11F15356   2.097   3.173   7.650 -0.0201 -0.2236  0.0191
  140OSM   H11F15357   2.053   3.072   7.658  1.0216 -0.7248 -0.4539
  140OSM   H11G15358   2.030   3.225   7.578 -2.0379 -1.9292  0.5784
  140OSM   C12F15359   2.093   3.253   7.785 -1.2192  0.2078 -0.6274
  140OSM   H12F15360   2.037   3.349   7.776 -0.4489  1.0256  2.2465
  140OSM   H12G15361   2.190   3.299   7.813 -0.1103 -4.0774  3.9864
  140OSM   C13F15362   2.053   3.166   7.900 -0.5638 -0.3475  0.1347
  140OSM   H13F15363   2.118   3.077   7.915 -0.6031 -0.1289  1.7755
  140OSM   H13G15364   1.949   3.131   7.880 -0.3848 -0.8951  0.1521
  140OSM   C14F15365   2.052   3.245   8.029 -0.1179  0.5143  0.5432
  140OSM   H14F15366   1.981   3.329   8.016 -0.7475  0.0596  0.9830
  140OSM   H14G15367   2.155   3.287   8.035 -0.5057  1.6540 -0.5829
  140OSM   C15F15368   2.030   3.163   8.157 -0.3952 -0.6409  0.0112
  140OSM   H15F15369   2.041   3.236   8.240 -0.8934  0.5357 -0.9253
  140OSM   H15G15370   2.110   3.087   8.159  1.7934  1.5304 -0.1062
  140OSM   C16F15371   1.886   3.106   8.179 -0.3278  0.4390  0.0877
  140OSM   H16F15372   1.880   3.028   8.100  1.0112 -0.3473  0.7276
  140OSM   H16G15373   1.813   3.188   8.164  0.4813  0.9665 -1.1905
  140OSM   C17F15374   1.859   3.031   8.309 -0.1690  1.0048 -0.0090
  140OSM   H17F15375   1.865   3.108   8.388 -1.1924  0.2320  0.8639
  140OSM   H17G15376   1.938   2.953   8.321 -0.2656  0.3091 -2.9239
  140OSM   C18F15377   1.720   2.961   8.313 -0.3772  0.2454  0.1425
  140OSM   H18F15378   1.713   2.889   8.397  0.5884  0.6325  0.5617
  140OSM   H18G15379   1.708   2.906   8.217 -0.2112  2.2676 -1.0950
  140OSM   H18H15380   1.645   3.043   8.324  0.6459  1.6379 -2.2557
  141OSM      N15381   1.697   4.910   6.102 -0.0215  0.1971 -0.1584
  141OSM    C1515382   1.682   4.774   6.150  0.0907 -0.1226 -0.6713
  141OSM   H15A15383   1.655   4.714   6.065  2.6629 -0.6889 -1.1743
  141OSM   H15B15384   1.605   4.760   6.224 -1.3538  1.5016 -1.7795
  141OSM   H15C15385   1.778   4.741   6.188 -0.3711  1.1202  1.8614
  141OSM    C1415386   1.784   4.984   6.200 -0.0774  0.7894  1.0365
  141OSM   H14A15387   1.796   5.087   6.169 -1.0549  0.4227 -0.6854
  141OSM   H14B15388   1.880   4.933   6.205  0.3588  1.3947 -0.5557
  141OSM   H14C15389   1.745   4.981   6.300  0.6253 -0.6303  1.2965
  141OSM    C1315390   1.780   4.899   5.970  0.1368 -0.2089 -0.1255
  141OSM   H13A15391   1.712   4.836   5.914  0.7968 -3.2812  2.2270
  141OSM   H13B15392   1.869   4.839   5.975 -0.3126 -0.9001 -0.2693
  141OSM   H13C15393   1.795   4.992   5.917  0.0191 -0.8576 -1.3328
  141OSM    C1215394   1.565   4.970   6.072 -0.1190  0.4650 -0.2434
  141OSM   H12A15395   1.512   4.966   6.165  0.3343 -0.0847  0.0018
  141OSM   H12B15396   1.506   4.908   6.006 -3.2143  3.5409 -0.6659
  141OSM    C1115397   1.563   5.112   6.022 -0.5969 -0.3043  0.3711
  141OSM   H11A15398   1.628   5.124   5.932  0.2600  0.3825  1.0578
  141OSM   H11B15399   1.616   5.174   6.097 -0.9312  1.4290 -0.7445
  141OSM      P15400   1.324   5.196   6.089 -0.2886  0.0681 -0.2678
  141OSM    O1315401   1.369   5.335   6.113 -0.5055  0.9775 -0.3772
  141OSM    O1415402   1.186   5.180   6.035  0.8213 -0.1311  0.3218
  141OSM    O1115403   1.329   5.101   6.222 -0.2285 -0.4417  0.0025
  141OSM    O1215404   1.426   5.145   5.992 -0.8844  0.0327 -0.0859
  141OSM    C1S15405   1.404   5.142   6.331 -0.1345  0.6373 -1.2632
  141OSM    H1S15406   1.385   5.248   6.359  1.5548  0.5472  0.4645
  141OSM    H1T15407   1.514   5.125   6.325  0.1281  0.8067  1.5067
  141OSM     NF15408   1.426   5.107   6.584 -0.1324 -0.3416  0.4682
  141OSM    HNF15409   1.517   5.076   6.610  0.2506 -0.0413 -0.4896
  141OSM    C2S15410   1.377   5.046   6.458  0.1449 -0.5968  0.0323
  141OSM    H2S15411   1.267   5.045   6.474 -0.5385  2.9259 -3.1671
  141OSM    C3S15412   1.425   4.900   6.423  0.3133 -0.2624  0.3600
  141OSM    H3S15413   1.536   4.906   6.421  0.2942  1.4029  1.4399
  141OSM     O315414   1.384   4.843   6.297 -0.3564 -0.2131  0.1372
  141OSM    HO315415   1.329   4.913   6.263 -1.8480 -0.4851  1.8670
  141OSM    C4S15416   1.387   4.806   6.532 -0.0659 -0.3112 -0.4072
  141OSM    H4S15417   1.455   4.794   6.618  1.1209 -0.3391 -1.3356
  141OSM    C5S15418   1.269   4.746   6.538 -0.1821 -0.6525 -0.6800
  141OSM    H5S15419   1.204   4.751   6.449 -2.4021  1.8153  0.9303
  141OSM    C6S15420   1.229   4.656   6.650 -0.0538 -0.0053  0.6221
  141OSM    H6S15421   1.296   4.568   6.641 -0.4894 -0.2806 -0.0075
  141OSM    H6T15422   1.126   4.617   6.633  0.2060 -0.7275  0.6895
  141OSM    C7S15423   1.237   4.715   6.797 -0.3102  0.2579 -0.4840
  141OSM    H7S15424   1.164   4.797   6.810 -1.8229 -0.9725 -0.8985
  141OSM    H7T15425   1.342   4.744   6.821 -0.3159 -1.0878  1.4039
  141OSM    C8S15426   1.202   4.606   6.894  0.1981 -0.0538 -0.5374
  141OSM    H8S15427   1.270   4.518   6.907 -2.5225 -2.0657  1.2847
  141OSM    H8T15428   1.103   4.564   6.868 -0.8447  1.5297  0.6604
  141OSM    C9S15429   1.190   4.664   7.038 -0.1101 -0.4015 -0.4650
  141OSM    H9S15430   1.104   4.733   7.053 -1.6518 -1.6970 -2.7682
  141OSM    H9T15431   1.284   4.718   7.062 -0.6441  0.2906  0.1100
  141OSM   C10S15432   1.181   4.553   7.145  0.2713 -0.3442 -0.1965
  141OSM   H10S15433   1.259   4.474   7.138 -1.2765 -2.1744  1.8086
  141OSM   H10T15434   1.077   4.516   7.153 -0.3981  1.7191  2.0134
  141OSM   C11S15435   1.202   4.607   7.283  0.3044 -0.2230  0.0868
  141OSM   H11S15436   1.131   4.688   7.311  0.7048  1.4052 -3.2287
  141OSM   H11T15437   1.300   4.657   7.269  0.5699 -0.8968 -0.4845
  141OSM   C12S15438   1.209   4.498   7.379 -0.8447 -0.0020 -1.1344
  141OSM   H12S15439   1.294   4.430   7.353  0.1489  1.0930 -0.8134
  141OSM   H12T15440   1.113   4.444   7.365 -1.4163  1.4956 -3.5644
  141OSM   C13S15441   1.217   4.558   7.526 -0.1710  0.2294 -0.0859
  141OSM   H13S15442   1.132   4.627   7.542  0.9603  1.2915  1.7448
  141OSM   H13T15443   1.310   4.618   7.525 -0.4744  0.7095 -1.7677
  141OSM   C14S15444   1.239   4.452   7.632 -0.4392 -0.4899  0.3262
  141OSM   H14S15445   1.340   4.405   7.632 -0.7963 -1.2999 -0.7673
  141OSM   H14T15446   1.181   4.364   7.598 -1.3218  0.4463 -0.6950
  141OSM   C15S15447   1.223   4.504   7.767 -0.6215 -1.0196 -0.1431
  141OSM   H15S15448   1.133   4.570   7.771  0.1372 -0.0193  1.4743
  141OSM   H15T15449   1.312   4.566   7.788 -1.9364  0.2357  2.2098
  141OSM   C16S15450   1.212   4.393   7.873 -0.2900 -0.2466 -0.0111
  141OSM   H16S15451   1.308   4.339   7.873 -0.7747 -1.1985  2.1105
  141OSM   H16T15452   1.119   4.332   7.866  0.2629 -0.8535 -3.5180
  141OSM   C17S15453   1.205   4.462   8.017 -0.4457  0.0453  0.2622
  141OSM   H17S15454   1.109   4.517   8.009 -0.5523 -0.3948 -3.8024
  141OSM   H17T15455   1.279   4.543   8.038  1.3782 -0.6806 -2.8099
  141OSM   C18S15456   1.205   4.367   8.138 -0.2313  0.3056  0.6338
  141OSM   H18S15457   1.308   4.368   8.179 -0.4303 -2.0372  1.3226
  141OSM   H18T15458   1.186   4.261   8.110 -1.7034  0.8353 -0.5239
  141OSM   H18U15459   1.138   4.390   8.224 -0.2407 -3.0287  1.6820
  141OSM    C1F15460   1.380   5.222   6.637 -0.4848  0.3825  0.2340
  141OSM     OF15461   1.308   5.302   6.576 -1.4194  0.2047  0.8429
  141OSM    C2F15462   1.416   5.245   6.780 -0.2705 -0.1050  0.0180
  141OSM    H2F15463   1.433   5.352   6.804 -0.5474 -0.5351  2.3106
  141OSM    H2G15464   1.514   5.196   6.800  0.4204  0.6479 -1.3627
  141OSM    C3F15465   1.306   5.207   6.876 -0.2072  0.3854  0.0449
  141OSM    H3F15466   1.214   5.266   6.852  0.4522  0.8253 -1.5218
  141OSM    H3G15467   1.338   5.252   6.973  0.2043 -1.1584  0.6591
  141OSM    C4F15468   1.279   5.059   6.896 -0.1483  0.1432  0.0279
  141OSM    H4F15469   1.379   5.012   6.910  0.0573  1.2475  2.9204
  141OSM    H4G15470   1.225   5.036   6.802 -0.7789  1.8632 -0.0636
  141OSM    C5F15471   1.177   5.035   7.010 -0.4661  0.9979 -0.5307
  141OSM    H5F15472   1.150   4.928   7.005 -3.0433  1.2883  2.9044
  141OSM    H5G15473   1.080   5.088   7.001 -0.9067  0.1735 -0.7045
  141OSM    C6F15474   1.256   5.058   7.140  0.1086  0.3025 -0.0283
  141OSM    H6F15475   1.270   5.167   7.158 -1.0964  0.6319 -0.9701
  141OSM    H6G15476   1.358   5.014   7.136  0.0667  0.2601 -0.9306
  141OSM    C7F15477   1.175   5.020   7.264  0.1825 -0.3638  0.5856
  141OSM    H7F15478   1.152   4.911   7.255  0.7470 -0.3500 -1.8964
  141OSM    H7G15479   1.076   5.068   7.257  0.5690  0.3300 -0.4299
  141OSM    C8F15480   1.246   5.060   7.397  0.2646  0.5344  0.0350
  141OSM    H8F15481   1.171   5.040   7.477 -0.1521 -2.3840 -0.9832
  141OSM    H8G15482   1.253   5.171   7.389  2.6685  0.5611  1.5277
  141OSM    C9F15483   1.379   4.991   7.430 -0.6851  0.4640 -0.4030
  141OSM    H9F15484   1.443   4.963   7.345  0.2699 -0.3794  0.5704
  141OSM   C10F15485   1.420   4.945   7.552  0.4839 -0.0035 -0.1806
  141OSM   H10F15486   1.510   4.886   7.571  0.6226  0.1107 -0.4789
  141OSM   C11F15487   1.339   4.976   7.680 -0.4947 -0.8814 -0.1221
  141OSM   H11F15488   1.245   5.026   7.649  0.3170  0.1312 -1.0033
  141OSM   H11G15489   1.394   5.054   7.736 -0.5331  0.5011 -1.9456
  141OSM   C12F15490   1.298   4.853   7.771 -1.1367  0.6837 -0.4994
  141OSM   H12F15491   1.392   4.795   7.771 -0.2474  1.8363 -4.2362
  141OSM   H12G15492   1.211   4.794   7.734  0.7118 -1.5678 -1.5055
  141OSM   C13F15493   1.260   4.901   7.909  0.3816  0.3287  0.2635
  141OSM   H13F15494   1.345   4.950   7.959 -1.5872  0.8030  3.4496
  141OSM   H13G15495   1.236   4.803   7.957  1.0023  1.1139  2.2479
  141OSM   C14F15496   1.134   4.991   7.913 -0.0207 -0.0778  0.4903
  141OSM   H14F15497   1.048   4.927   7.884  0.7577 -2.1548  2.5151
  141OSM   H14G15498   1.136   5.070   7.834  1.9150 -0.3176  0.2557
  141OSM   C15F15499   1.119   5.067   8.053 -0.3316  0.4377 -0.1340
  141OSM   H15F15500   1.044   5.146   8.031  0.6635  2.3863  2.9413
  141OSM   H15G15501   1.218   5.112   8.072 -0.6607  1.0103  0.2566
  141OSM   C16F15502   1.073   4.967   8.164  0.0734  0.0802  0.5508
  141OSM   H16F15503   1.138   4.878   8.150  1.4031  1.3266 -1.8811
  141OSM   H16G15504   0.967   4.938   8.146  0.1821 -1.0548  1.5795
  141OSM   C17F15505   1.094   5.017   8.312  0.0262  0.0142  0.4853
  141OSM   H17F15506   1.038   4.947   8.378  0.2763 -0.7679 -0.1074
  141OSM   H17G15507   1.048   5.117   8.315  1.8207  0.8699  0.9667
  141OSM   C18F15508   1.240   5.023   8.357  0.6730 -0.5415 -0.6078
  141OSM   H18F15509   1.240   5.101   8.436 -1.1752 -0.8975 -0.2156
  141OSM   H18G15510   1.309   5.043   8.272  0.9270  1.4058  0.0097
  141OSM   H18H15511   1.274   4.929   8.406  0.0968 -0.9231 -0.9333
  142OSM      N15512   3.414   0.373   6.216 -0.2846 -0.3358 -0.0386
  142OSM    C1515513   3.553   0.324   6.202  0.5297  0.2153 -0.6062
  142OSM   H15A15514   3.549   0.243   6.130  3.4064 -0.8053  0.2138
  142OSM   H15B15515   3.590   0.274   6.290 -1.0756  1.7208  0.9943
  142OSM   H15C15516   3.625   0.398   6.168 -1.8027  2.1162 -1.7411
  142OSM    C1415517   3.437   0.501   6.283 -0.3468  0.0109  0.2648
  142OSM   H14A15518   3.345   0.548   6.313  0.0291  2.0926 -1.5861
  142OSM   H14B15519   3.495   0.559   6.212  0.4567 -2.0303 -0.8288
  142OSM   H14C15520   3.494   0.494   6.374 -2.2785 -1.5542  1.4421
  142OSM    C1315521   3.352   0.403   6.089 -0.2153  0.7589 -0.4123
  142OSM   H13A15522   3.247   0.423   6.103 -1.3897 -3.3977 -1.9172
  142OSM   H13B15523   3.360   0.313   6.030  1.4205  0.7067 -0.1673
  142OSM   H13C15524   3.392   0.490   6.039  1.6449 -0.2408 -0.7338
  142OSM    C1215525   3.325   0.275   6.300  0.0674  0.5190  0.0279
  142OSM   H12A15526   3.356   0.285   6.403 -2.6396  0.7373  0.8971
  142OSM   H12B15527   3.369   0.179   6.279  0.0738  0.8008 -1.3521
  142OSM    C1115528   3.172   0.297   6.290 -0.3587  0.1955 -0.0502
  142OSM   H11A15529   3.131   0.233   6.370  1.1796 -1.0311 -0.2093
  142OSM   H11B15530   3.131   0.255   6.196 -1.0906  0.5203  0.1157
  142OSM      P15531   3.010   0.507   6.286 -0.1367  0.1888 -0.0841
  142OSM    O1315532   3.011   0.639   6.352  0.2352 -0.3144  0.7962
  142OSM    O1415533   2.976   0.497   6.143  0.8560 -0.7526 -0.2378
  142OSM    O1115534   2.914   0.419   6.372  0.7227 -0.1345 -0.0135
  142OSM    O1215535   3.145   0.436   6.314 -0.2312 -0.3323 -0.4910
  142OSM    C1S15536   2.918   0.409   6.514 -0.1802 -0.2624 -0.7348
  142OSM    H1S15537   2.895   0.506   6.565  1.7279 -0.3167  0.3241
  142OSM    H1T15538   3.023   0.394   6.548 -1.4721 -1.0574  3.4613
  142OSM     NF15539   2.886   0.278   6.725 -0.8705  0.1050  0.0840
  142OSM    HNF15540   2.969   0.224   6.740 -0.0635  1.1227 -0.6150
  142OSM    C2S15541   2.848   0.293   6.586 -0.1116 -0.3944  0.3135
  142OSM    H2S15542   2.739   0.315   6.583 -0.6122 -2.1513  2.8448
  142OSM    C3S15543   2.874   0.153   6.507  0.3711  0.1125 -0.5003
  142OSM    H3S15544   2.981   0.124   6.514  0.1471 -0.6183 -0.0285
  142OSM     O315545   2.852   0.157   6.371 -0.0010  0.4388  0.1899
  142OSM    HO315546   2.844   0.251   6.354 -1.9766  0.1620 -0.7263
  142OSM    C4S15547   2.795   0.046   6.575  0.3278  0.1347 -0.4925
  142OSM    H4S15548   2.687   0.043   6.556 -0.0766  0.3873  1.5698
  142OSM    C5S15549   2.852  -0.047   6.655  0.7893 -0.2150 -0.1494
  142OSM    H5S15550   2.960  -0.055   6.669  0.5327 -2.9924  0.8290
  142OSM    C6S15551   2.779  -0.155   6.729 -0.5313 -0.3461 -0.2660
  142OSM    H6S15552   2.804  -0.252   6.682  0.5855 -0.3733  0.3332
  142OSM    H6T15553   2.669  -0.145   6.717 -1.0187 -2.3296  1.8722
  142OSM    C7S15554   2.821  -0.158   6.882 -0.8024 -0.3947 -0.2564
  142OSM    H7S15555   2.923  -0.196   6.902 -0.4524  0.7234  0.1918
  142OSM    H7T15556   2.746  -0.226   6.928  0.9638 -1.9475  0.4699
  142OSM    C8S15557   2.819  -0.025   6.966  0.0608  0.6682  0.8623
  142OSM    H8S15558   2.718   0.022   6.957 -0.1113  0.2860  0.7807
  142OSM    H8T15559   2.896   0.040   6.919  0.2574 -0.6598 -0.7758
  142OSM    C9S15560   2.853  -0.061   7.109 -0.1106  0.3505 -0.1039
  142OSM    H9S15561   2.949  -0.118   7.111 -0.6885 -0.6408  0.3373
  142OSM    H9T15562   2.784  -0.140   7.144  1.7512 -1.0870  0.5324
  142OSM   C10S15563   2.856   0.061   7.206  0.2449  0.2228  0.1846
  142OSM   H10S15564   2.760   0.113   7.187  1.3226  1.5474 -2.0528
  142OSM   H10T15565   2.926   0.141   7.175  0.2886  0.3896  0.6952
  142OSM   C11S15566   2.859   0.020   7.353  0.7140  0.1583 -0.0996
  142OSM   H11S15567   2.943  -0.053   7.358  0.7476  0.0147 -2.1487
  142OSM   H11T15568   2.766  -0.034   7.379  0.3166  2.1675  3.2921
  142OSM   C12S15569   2.883   0.131   7.455  0.2828 -0.2999 -0.0644
  142OSM   H12S15570   2.794   0.198   7.462 -0.4288 -1.2897  0.5742
  142OSM   H12T15571   2.975   0.183   7.420  0.7813 -1.5211 -0.6150
  142OSM   C13S15572   2.896   0.083   7.598 -0.7184  0.0621 -1.3336
  142OSM   H13S15573   2.940  -0.019   7.588  1.1752  1.0015 -3.7870
  142OSM   H13T15574   2.794   0.076   7.640 -0.0084 -4.5063  0.2296
  142OSM   C14S15575   2.981   0.178   7.679  0.5952  0.1728 -0.6554
  142OSM   H14S15576   2.931   0.278   7.676 -1.9347 -0.9737  0.5093
  142OSM   H14T15577   3.082   0.183   7.632  1.1150  1.1110  0.4948
  142OSM   C15S15578   2.998   0.135   7.830  0.0688  0.2930 -0.7215
  142OSM   H15S15579   3.052   0.213   7.888  0.5707  0.4753 -1.4201
  142OSM   H15T15580   3.063   0.045   7.833 -0.0811  0.1906 -0.5771
  142OSM   C16S15581   2.862   0.111   7.906 -0.8127  0.5870 -0.0549
  142OSM   H16S15582   2.824   0.014   7.868 -1.9066  1.1841 -0.5524
  142OSM   H16T15583   2.788   0.194   7.898 -1.7855 -0.2169  0.3393
  142OSM   C17S15584   2.878   0.083   8.052 -0.2109  0.3876 -0.1242
  142OSM   H17S15585   2.958   0.008   8.072  0.2411  1.0565  0.6474
  142OSM   H17T15586   2.781   0.041   8.087  0.2752 -1.2700 -0.6551
  142OSM   C18S15587   2.899   0.204   8.142  0.9220 -0.2797  1.4838
  142OSM   H18S15588   2.908   0.180   8.250  1.8260  2.1368  2.0130
  142OSM   H18T15589   2.813   0.274   8.138  2.2120  1.3655 -1.4710
  142OSM   H18U15590   2.996   0.255   8.124  0.0295  1.8318  2.3734
  142OSM    C1F15591   2.843   0.364   6.815  0.1700 -0.0618 -0.0683
  142OSM     OF15592   2.748   0.441   6.795 -0.7610  0.5357  0.0370
  142OSM    C2F15593   2.909   0.356   6.952 -0.0803  0.6293 -0.5906
  142OSM    H2F15594   2.981   0.272   6.956 -1.7737 -0.8741 -0.5013
  142OSM    H2G15595   2.824   0.336   7.021  1.3232  1.2810  1.4009
  142OSM    C3F15596   2.966   0.488   6.995  0.6004  0.4348  0.4359
  142OSM    H3F15597   2.896   0.574   6.988  1.2992  1.0698  1.0264
  142OSM    H3G15598   3.045   0.509   6.920  2.2841 -0.8201  1.7722
  142OSM    C4F15599   3.031   0.497   7.134 -0.0820 -0.6810 -0.1799
  142OSM    H4F15600   3.097   0.586   7.138  0.4041 -1.0732  1.5697
  142OSM    H4G15601   3.102   0.411   7.140  0.3299 -0.2374  2.3085
  142OSM    C5F15602   2.932   0.502   7.253 -0.2224 -0.0917 -0.0499
  142OSM    H5F15603   2.872   0.409   7.257 -0.7692  0.2952  0.9535
  142OSM    H5G15604   2.855   0.581   7.241 -2.4514 -2.0794  0.4467
  142OSM    C6F15605   3.003   0.524   7.386 -0.1051 -0.4705 -1.0105
  142OSM    H6F15606   3.055   0.620   7.363 -3.5337  1.2337 -2.4409
  142OSM    H6G15607   3.080   0.448   7.412  0.3618  0.2898 -0.1021
  142OSM    C7F15608   2.913   0.533   7.514  0.5586 -0.1559  0.1788
  142OSM    H7F15609   2.863   0.435   7.531 -1.1064  0.6562  0.1008
  142OSM    H7G15610   2.824   0.594   7.490 -0.4052 -1.1369  1.1599
  142OSM    C8F15611   2.985   0.560   7.641  0.7136 -0.0833 -0.9371
  142OSM    H8F15612   3.061   0.483   7.663  2.0566  1.5341  0.4049
  142OSM    H8G15613   2.917   0.546   7.728  0.3000  0.1924 -1.2111
  142OSM    C9F15614   3.060   0.699   7.650 -0.0197 -0.2157  0.1510
  142OSM    H9F15615   3.109   0.731   7.557 -0.2537  0.6843  0.3342
  142OSM   C10F15616   3.070   0.768   7.760  0.3148  0.2997 -0.7289
  142OSM   H10F15617   3.137   0.854   7.771  2.0557 -1.1592  0.4780
  142OSM   C11F15618   3.021   0.737   7.901  0.0960 -0.3163 -0.3015
  142OSM   H11F15619   3.088   0.780   7.979 -1.6648  0.8496  0.6513
  142OSM   H11G15620   3.005   0.628   7.916 -2.1389 -0.0650 -0.4722
  142OSM   C12F15621   2.874   0.805   7.924 -0.2490 -0.4806 -0.3340
  142OSM   H12F15622   2.811   0.738   7.862  0.2074 -1.4130  0.1912
  142OSM   H12G15623   2.867   0.910   7.890  1.0009  0.7365  2.7621
  142OSM   C13F15624   2.827   0.794   8.070 -0.2728 -0.6178  0.0201
  142OSM   H13F15625   2.720   0.825   8.067  0.6289  2.8844 -2.4066
  142OSM   H13G15626   2.871   0.874   8.133 -0.8521  0.2457 -0.6512
  142OSM   C14F15627   2.846   0.655   8.143  0.4865 -0.4352  0.3873
  142OSM   H14F15628   2.957   0.642   8.142  0.8517  2.2002  0.5805
  142OSM   H14G15629   2.812   0.571   8.078  0.2478  1.2817 -1.8119
  142OSM   C15F15630   2.777   0.655   8.277 -0.5231  0.3105  0.1004
  142OSM   H15F15631   2.667   0.659   8.262 -0.3921 -0.6933 -1.3626
  142OSM   H15G15632   2.818   0.747   8.325  0.6268  0.7236 -1.5863
  142OSM   C16F15633   2.802   0.530   8.360  0.8861  0.4951 -0.8359
  142OSM   H16F15634   2.911   0.510   8.370  0.2407 -2.8286  1.0738
  142OSM   H16G15635   2.756   0.443   8.309  1.1460 -0.1379 -0.0019
  142OSM   C17F15636   2.740   0.551   8.500  0.2781 -0.5024 -0.2957
  142OSM   H17F15637   2.629   0.546   8.493  0.1759  0.9242 -0.0307
  142OSM   H17G15638   2.771   0.654   8.527  1.5397 -0.4805 -1.6977
  142OSM   C18F15639   2.795   0.469   8.614  0.2087 -0.5965 -0.0918
  142OSM   H18F15640   2.746   0.487   8.712 -1.4516  1.8486 -1.2628
  142OSM   H18G15641   2.904   0.493   8.622  0.0420  1.2466 -2.2930
  142OSM   H18H15642   2.784   0.361   8.593  1.2580 -0.6734 -0.2918
  143OSM      N15643   4.715   3.318   6.061 -0.0883  0.0650 -0.2152
  143OSM    C1515644   4.587   3.361   6.007  0.4423 -0.8382  0.6729
  143OSM   H15A15645   4.581   3.361   5.899 -1.7187 -0.4023  0.7462
  143OSM   H15B15646   4.556   3.461   6.036  0.8004 -0.3173 -0.6635
  143OSM   H15C15647   4.511   3.286   6.022 -1.9020  1.2000 -0.2451
  143OSM    C1415648   4.826   3.394   5.991 -0.5035 -0.6134 -0.2874
  143OSM   H14A15649   4.923   3.392   6.038  0.9265  1.6656 -2.8272
  143OSM   H14B15650   4.814   3.502   5.988  1.8651 -0.2764  0.0273
  143OSM   H14C15651   4.836   3.368   5.886 -1.0837  0.2053 -0.5588
  143OSM    C1315652   4.721   3.343   6.205  0.4487 -0.3872 -0.0270
  143OSM   H13A15653   4.641   3.283   6.247  1.8799 -1.1327  1.7521
  143OSM   H13B15654   4.711   3.446   6.233 -1.4188 -0.9660  1.7200
  143OSM   H13C15655   4.805   3.301   6.257  1.4231  1.5976  0.0877
  143OSM    C1215656   4.742   3.164   6.040 -0.3714 -0.6620  0.2918
  143OSM   H12A15657   4.822   3.134   6.106  2.1202 -2.1140 -3.0683
  143OSM   H12B15658   4.789   3.146   5.944 -0.2847 -1.2797  0.4491
  143OSM    C1115659   4.624   3.059   6.066 -0.3707  0.2095  0.6560
  143OSM   H11A15660   4.683   2.967   6.086  1.3618  1.1794  0.2712
  143OSM   H11B15661   4.572   3.048   5.969  1.5937 -0.2647 -0.4065
  143OSM      P15662   4.390   3.061   6.158  0.4880 -0.1600 -0.1530
  143OSM    O1315663   4.320   3.135   6.049  0.3003  0.3418 -0.0798
  143OSM    O1415664   4.381   2.916   6.145 -0.1681  0.5163  0.3478
  143OSM    O1115665   4.337   3.103   6.302 -0.6929 -0.5681  0.4747
  143OSM    O1215666   4.539   3.111   6.165 -0.1234  0.2291 -0.2265
  143OSM    C1S15667   4.381   3.217   6.373  0.4051 -0.5631 -0.0355
  143OSM    H1S15668   4.331   3.306   6.329  0.8959  0.2185  0.9558
  143OSM    H1T15669   4.492   3.230   6.371  0.5560 -1.5668  0.6851
  143OSM     NF15670   4.315   3.335   6.578  0.7732  0.9019  0.1489
  143OSM    HNF15671   4.399   3.369   6.619 -0.9349  2.1158  2.8949
  143OSM    C2S15672   4.311   3.209   6.514  0.2249 -0.2878  0.5509
  143OSM    H2S15673   4.207   3.175   6.493  1.0597 -2.2224 -0.8200
  143OSM    C3S15674   4.380   3.096   6.591 -0.4569 -0.1817  0.4129
  143OSM    H3S15675   4.488   3.118   6.602 -0.4808  2.1140 -2.5812
  143OSM     O315676   4.397   2.977   6.522 -0.5598  0.5258 -0.1120
  143OSM    HO315677   4.353   2.995   6.438 -0.8207 -3.3932 -0.9976
  143OSM    C4S15678   4.317   3.080   6.722 -0.2126 -0.2260  0.3377
  143OSM    H4S15679   4.226   3.019   6.718 -0.1330 -0.4671  1.8223
  143OSM    C5S15680   4.362   3.134   6.839 -0.0355 -0.0831  0.6452
  143OSM    H5S15681   4.449   3.202   6.832 -1.3155  1.4468 -1.5227
  143OSM    C6S15682   4.311   3.112   6.976  1.2315 -0.0858 -0.6156
  143OSM    H6S15683   4.224   3.044   6.964  0.9598 -0.0807  1.1496
  143OSM    H6T15684   4.284   3.209   7.023 -1.5257 -1.0708 -0.0206
  143OSM    C7S15685   4.425   3.057   7.068  0.4449 -0.0766  0.2729
  143OSM    H7S15686   4.510   3.127   7.054 -0.2392  0.4862 -1.1634
  143OSM    H7T15687   4.455   2.957   7.031 -1.2551 -1.6453  2.8336
  143OSM    C8S15688   4.394   3.047   7.220 -0.9764 -0.1465  0.0191
  143OSM    H8S15689   4.316   2.970   7.240  0.3378 -1.2965  0.8836
  143OSM    H8T15690   4.346   3.144   7.247  0.2916  0.2468  0.9676
  143OSM    C9S15691   4.514   3.010   7.309 -0.1132 -0.2380 -0.0509
  143OSM    H9S15692   4.575   3.097   7.343 -1.4503 -0.0446  2.0359
  143OSM    H9T15693   4.581   2.944   7.249 -0.8155 -1.3794  0.3906
  143OSM   C10S15694   4.469   2.938   7.439 -0.4697  0.2973  0.1333
  143OSM   H10S15695   4.439   2.837   7.406 -1.3327  0.4993  0.2842
  143OSM   H10T15696   4.378   2.983   7.484  0.1940 -0.0019  1.8660
  143OSM   C11S15697   4.575   2.925   7.548  0.2114 -0.7011  0.1929
  143OSM   H11S15698   4.607   3.029   7.570 -1.2316 -0.0253 -0.6757
  143OSM   H11T15699   4.659   2.868   7.503  0.6427  0.8721 -1.1213
  143OSM   C12S15700   4.520   2.862   7.676 -1.2919 -0.0320  0.8115
  143OSM   H12S15701   4.498   2.756   7.652  0.1853 -0.3049  0.6065
  143OSM   H12T15702   4.427   2.915   7.707 -0.2401  1.7730  1.0056
  143OSM   C13S15703   4.609   2.881   7.793 -0.8328  0.9358 -0.7639
  143OSM   H13S15704   4.602   2.988   7.823  0.8832  1.6614 -2.7221
  143OSM   H13T15705   4.708   2.857   7.747 -0.5929 -0.1432  0.2607
  143OSM   C14S15706   4.573   2.785   7.908  0.2940  0.2200  0.0275
  143OSM   H14S15707   4.550   2.681   7.876 -0.0622 -0.2023  1.5652
  143OSM   H14T15708   4.478   2.810   7.961 -0.4259 -2.1314 -0.0585
  143OSM   C15S15709   4.692   2.767   8.002  0.4531 -0.7740 -0.2492
  143OSM   H15S15710   4.723   2.872   8.023 -1.7719  0.8642 -4.1593
  143OSM   H15T15711   4.778   2.724   7.947 -0.6207 -1.4168 -1.4709
  143OSM   C16S15712   4.671   2.699   8.143 -0.3802 -0.3367 -0.3033
  143OSM   H16S15713   4.761   2.720   8.204 -0.5195 -3.0285  0.9154
  143OSM   H16T15714   4.653   2.591   8.126 -0.8722 -0.1636 -0.9271
  143OSM   C17S15715   4.554   2.766   8.208  0.2439  0.1729 -0.2113
  143OSM   H17S15716   4.464   2.713   8.169  0.6752 -0.5775 -0.2059
  143OSM   H17T15717   4.544   2.875   8.191 -3.0522  0.2533  1.4228
  143OSM   C18S15718   4.570   2.756   8.363 -0.0525 -0.4050 -0.0277
  143OSM   H18S15719   4.568   2.652   8.401 -1.4326  0.6376  3.1437
  143OSM   H18T15720   4.483   2.805   8.412  1.3279 -0.0832  2.3184
  143OSM   H18U15721   4.667   2.804   8.392  0.5912 -0.8771 -1.3207
  143OSM    C1F15722   4.215   3.418   6.569  0.1255  0.1038  0.7868
  143OSM     OF15723   4.129   3.422   6.480 -0.3554  0.5024 -0.3702
  143OSM    C2F15724   4.227   3.529   6.670  0.3247 -1.0672 -0.3870
  143OSM    H2F15725   4.207   3.623   6.614 -2.2394 -0.1459  1.8528
  143OSM    H2G15726   4.328   3.533   6.715  1.6017  0.8992 -3.1246
  143OSM    C3F15727   4.132   3.504   6.788  0.5336  0.5755  0.3045
  143OSM    H3F15728   4.182   3.426   6.849  0.1890 -0.2799 -0.4827
  143OSM    H3G15729   4.031   3.479   6.751 -0.5728  2.8366  1.5879
  143OSM    C4F15730   4.124   3.632   6.870 -0.2333  0.6880 -0.0843
  143OSM    H4F15731   4.081   3.713   6.807  0.6930  1.0760 -0.2334
  143OSM    H4G15732   4.226   3.663   6.902 -1.1095 -0.3605  4.3219
  143OSM    C5F15733   4.033   3.625   6.995  0.1337 -0.0355 -0.1796
  143OSM    H5F15734   3.934   3.576   6.980  0.4573 -0.1870 -2.1183
  143OSM    H5G15735   4.023   3.732   7.022  0.0760 -0.5044  1.8372
  143OSM    C6F15736   4.104   3.559   7.108  0.0035  0.2573  0.4985
  143OSM    H6F15737   4.163   3.623   7.176  1.3788  0.8338 -1.1628
  143OSM    H6G15738   4.188   3.498   7.069  0.1483  0.4024  0.5832
  143OSM    C7F15739   4.012   3.481   7.194 -0.4179  0.4168 -0.3294
  143OSM    H7F15740   3.962   3.411   7.124  0.4220 -0.3287 -0.2009
  143OSM    H7G15741   3.933   3.554   7.224 -0.2071  1.8228 -2.9323
  143OSM    C8F15742   4.079   3.409   7.314  0.4994 -0.2051 -0.6075
  143OSM    H8F15743   4.147   3.487   7.356 -0.5073 -0.0587  0.8074
  143OSM    H8G15744   4.147   3.325   7.289  1.8049 -0.3618  2.8184
  143OSM    C9F15745   3.970   3.367   7.416 -0.0165 -0.3159  0.2904
  143OSM    H9F15746   3.906   3.455   7.431  2.2872  1.2204  1.6745
  143OSM   C10F15747   3.941   3.237   7.452 -0.6911 -0.3182  0.2522
  143OSM   H10F15748   3.861   3.211   7.523 -1.1924  1.3096  0.3300
  143OSM   C11F15749   4.018   3.114   7.398 -0.1842 -0.0599  0.1633
  143OSM   H11F15750   4.103   3.102   7.467 -0.2505  0.3724  0.3259
  143OSM   H11G15751   4.065   3.142   7.301 -2.1668  2.3652 -0.2224
  143OSM   C12F15752   3.936   2.990   7.380 -0.5128 -0.1968  0.0173
  143OSM   H12F15753   3.897   2.958   7.479 -1.6307  0.6685 -0.1226
  143OSM   H12G15754   3.988   2.899   7.343 -1.1347 -1.7449  2.6724
  143OSM   C13F15755   3.823   2.997   7.275  0.3081  0.1747 -0.3066
  143OSM   H13F15756   3.776   3.097   7.281 -1.7416 -0.5553 -2.5108
  143OSM   H13G15757   3.741   2.929   7.306 -2.2794  2.9132 -0.7524
  143OSM   C14F15758   3.877   2.962   7.132 -0.4153 -0.1147  0.0761
  143OSM   H14F15759   3.797   2.924   7.064  1.3065 -1.5021 -1.2882
  143OSM   H14G15760   3.942   2.872   7.136 -1.4350 -0.8404  1.0500
  143OSM   C15F15761   3.937   3.085   7.052  0.4631  0.4323 -0.6186
  143OSM   H15F15762   4.036   3.106   7.097  0.3135  2.9165 -1.3194
  143OSM   H15G15763   3.878   3.177   7.072 -1.1869 -0.9757  1.3915
  143OSM   C16F15764   3.956   3.052   6.900  0.4200 -0.3809 -0.7064
  143OSM   H16F15765   3.869   3.009   6.848  0.2815 -0.1621 -0.6568
  143OSM   H16G15766   4.049   2.993   6.887  0.2453 -0.7610 -0.2605
  143OSM   C17F15767   3.966   3.176   6.817 -0.1078 -0.3563 -0.0845
  143OSM   H17F15768   4.006   3.139   6.719  0.2319  1.2929 -0.5937
  143OSM   H17G15769   4.039   3.246   6.861  0.9914 -0.5793 -1.4627
  143OSM   C18F15770   3.827   3.240   6.808 -0.3208 -0.0895  0.9627
  143OSM   H18F15771   3.774   3.249   6.905 -0.4309 -0.5127  0.9455
  143OSM   H18G15772   3.774   3.169   6.740  1.8120 -1.1160  0.2818
  143OSM   H18H15773   3.818   3.337   6.754 -2.3116 -0.7076  0.0523
  144OSM      N15774   3.772   1.498   6.189 -0.7110  0.4599  0.0582
  144OSM    C1515775   3.830   1.363   6.212  0.3030  0.4562 -0.0692
  144OSM   H15A15776   3.918   1.362   6.275 -2.5253  0.1094  4.3000
  144OSM   H15B15777   3.858   1.313   6.120  2.5370 -0.7807  1.1925
  144OSM   H15C15778   3.767   1.289   6.258  0.5387 -1.7532 -2.9889
  144OSM    C1415779   3.891   1.571   6.128  0.2386 -0.0849 -0.2115
  144OSM   H14A15780   3.871   1.672   6.097  0.4651 -0.3772 -1.3580
  144OSM   H14B15781   3.922   1.516   6.040  2.0409  1.6129 -0.6936
  144OSM   H14C15782   3.975   1.581   6.194 -0.0565  0.3144  0.1079
  144OSM    C1315783   3.665   1.496   6.080 -0.7060 -0.2368 -0.0131
  144OSM   H13A15784   3.695   1.428   6.001 -0.7614  0.7882 -0.9511
  144OSM   H13B15785   3.638   1.592   6.038  0.1670 -0.3574 -0.8793
  144OSM   H13C15786   3.571   1.460   6.121 -1.9140 -1.7110 -3.6181
  144OSM    C1215787   3.733   1.564   6.318 -0.1508 -0.1033 -0.1634
  144OSM   H12A15788   3.804   1.558   6.399  0.4943  1.3535 -0.5911
  144OSM   H12B15789   3.647   1.511   6.359 -0.4418  0.3534 -0.1811
  144OSM    C1115790   3.695   1.716   6.313 -0.4361 -0.0929 -0.2856
  144OSM   H11A15791   3.780   1.765   6.260 -0.2963  0.4894  0.4513
  144OSM   H11B15792   3.692   1.765   6.413  1.2652  1.2812 -0.8624
  144OSM      P15793   3.437   1.712   6.312 -0.2541 -0.1871 -0.3812
  144OSM    O1315794   3.321   1.729   6.226  0.1145  0.3671  0.6854
  144OSM    O1415795   3.452   1.586   6.391  0.3555  0.5544 -0.3400
  144OSM    O1115796   3.434   1.843   6.404 -0.1592 -0.2806 -0.6302
  144OSM    O1215797   3.577   1.738   6.241  0.4589  0.4790  0.1431
  144OSM    C1S15798   3.325   1.875   6.495  0.2138 -0.0545  0.4640
  144OSM    H1S15799   3.228   1.830   6.462 -1.2151  3.5325 -0.7532
  144OSM    H1T15800   3.313   1.985   6.486  1.9958  0.1401  0.1359
  144OSM     NF15801   3.233   1.891   6.711  0.2561  0.5736  0.0396
  144OSM    HNF15802   3.206   1.986   6.725 -3.6374 -0.0692 -1.8257
  144OSM    C2S15803   3.360   1.863   6.647  0.5056 -0.3408 -0.0175
  144OSM    H2S15804   3.384   1.755   6.659 -0.5087 -0.6088 -0.3143
  144OSM    C3S15805   3.469   1.959   6.680  0.1035 -1.1912  0.0955
  144OSM    H3S15806   3.447   2.062   6.647  0.1824 -1.1772  0.0864
  144OSM     O315807   3.577   1.910   6.602 -0.4545  0.1233 -0.6216
  144OSM    HO315808   3.534   1.880   6.521  3.3151  0.0042 -2.8121
  144OSM    C4S15809   3.503   1.950   6.820  0.7604  0.1312 -0.0879
  144OSM    H4S15810   3.480   1.854   6.868 -1.3959  0.4910 -0.2585
  144OSM    C5S15811   3.583   2.031   6.891 -1.3881  0.3091 -0.0545
  144OSM    H5S15812   3.635   2.115   6.842  0.5183 -0.6485  0.2623
  144OSM    C6S15813   3.625   2.001   7.032 -0.2272  0.6380  0.0509
  144OSM    H6S15814   3.735   2.011   7.047 -0.2338  2.7023 -0.9554
  144OSM    H6T15815   3.612   1.892   7.043  0.4930  0.3890 -1.3980
  144OSM    C7S15816   3.544   2.065   7.143 -0.4639 -0.2942 -1.2479
  144OSM    H7S15817   3.437   2.034   7.140 -1.1039  1.7285 -0.9937
  144OSM    H7T15818   3.568   2.174   7.137 -0.2878 -0.2985 -0.6342
  144OSM    C8S15819   3.590   2.013   7.288 -0.4471 -0.0640 -0.2385
  144OSM    H8S15820   3.700   2.028   7.295 -0.2667 -1.6250  0.5486
  144OSM    H8T15821   3.575   1.903   7.288  1.9582 -0.4484 -1.1066
  144OSM    C9S15822   3.544   2.077   7.421  0.1200  0.0385 -1.2008
  144OSM    H9S15823   3.434   2.067   7.432  0.3123  0.5701  2.4008
  144OSM    H9T15824   3.573   2.183   7.412  0.6016 -0.0931 -1.2097
  144OSM   C10S15825   3.613   2.021   7.544 -0.3998  0.4463 -0.3575
  144OSM   H10S15826   3.722   2.036   7.557 -0.2619 -1.5874  1.4013
  144OSM   H10T15827   3.598   1.911   7.544 -0.1275  0.4086 -0.2302
  144OSM   C11S15828   3.550   2.069   7.671  0.3929  0.0485 -0.5290
  144OSM   H11S15829   3.584   2.003   7.753 -3.7482  2.1632  3.3409
  144OSM   H11T15830   3.439   2.073   7.664  0.4989  1.4486 -2.5876
  144OSM   C12S15831   3.616   2.206   7.701  1.0006  0.6853  0.3872
  144OSM   H12S15832   3.571   2.276   7.626  1.0666  1.6475  1.2225
  144OSM   H12T15833   3.723   2.217   7.675  0.7902  1.3997 -0.2233
  144OSM   C13S15834   3.593   2.252   7.839 -0.0566 -0.0464  0.2567
  144OSM   H13S15835   3.640   2.352   7.854 -1.4496  0.5180  1.0372
  144OSM   H13T15836   3.632   2.184   7.918  0.1928  1.2073  1.2598
  144OSM   C14S15837   3.445   2.268   7.879  0.3415  0.2820  0.5532
  144OSM   H14S15838   3.383   2.183   7.844  0.5367  0.4092 -0.1208
  144OSM   H14T15839   3.400   2.358   7.834 -3.0907 -1.2208  0.6973
  144OSM   C15S15840   3.429   2.279   8.032  0.1443 -0.0500 -0.0728
  144OSM   H15S15841   3.447   2.382   8.071  0.9171  0.0425 -0.6451
  144OSM   H15T15842   3.506   2.215   8.080 -2.3504 -0.2107  4.1988
  144OSM   C16S15843   3.288   2.243   8.073  0.0882  0.9736  0.3782
  144OSM   H16S15844   3.254   2.151   8.020 -1.7937  1.7973  0.0813
  144OSM   H16T15845   3.222   2.320   8.028 -1.0993 -0.5558 -0.6034
  144OSM   C17S15846   3.254   2.240   8.226 -0.1270  0.5471 -0.5105
  144OSM   H17S15847   3.263   2.343   8.266 -0.5182  0.3506  0.1089
  144OSM   H17T15848   3.325   2.174   8.280 -1.4586  1.2407  2.3118
  144OSM   C18S15849   3.113   2.192   8.267  0.2019 -0.7792 -0.2770
  144OSM   H18S15850   3.095   2.196   8.376  1.2199 -1.0447 -0.0801
  144OSM   H18T15851   3.113   2.092   8.218 -0.2000 -0.8810 -0.0702
  144OSM   H18U15852   3.023   2.235   8.219 -0.6739  0.7732  2.5600
  144OSM    C1F15853   3.130   1.805   6.710  0.1623 -0.5104 -0.3646
  144OSM     OF15854   3.146   1.685   6.723 -0.1606 -0.0141  0.2543
  144OSM    C2F15855   2.996   1.877   6.696 -0.3202 -0.2255 -0.4088
  144OSM    H2F15856   2.975   1.886   6.588 -0.0286 -1.9572 -0.6370
  144OSM    H2G15857   3.009   1.975   6.747  0.3394 -1.4168  1.8568
  144OSM    C3F15858   2.879   1.809   6.766  0.3702 -1.1836  0.0468
  144OSM    H3F15859   2.885   1.698   6.767 -1.5439 -1.3211 -0.0190
  144OSM    H3G15860   2.797   1.825   6.693  0.7341 -3.1312 -0.8404
  144OSM    C4F15861   2.835   1.859   6.907  0.1372 -0.3452  0.1763
  144OSM    H4F15862   2.769   1.775   6.938 -1.3627 -0.7710 -3.6180
  144OSM    H4G15863   2.766   1.946   6.897  0.0893 -0.5711 -1.7292
  144OSM    C5F15864   2.947   1.880   7.010  0.0055 -0.2738 -0.4536
  144OSM    H5F15865   3.027   1.946   6.970  0.0121 -1.5585 -2.7484
  144OSM    H5G15866   2.995   1.780   7.017  1.2593  0.3016 -0.6129
  144OSM    C6F15867   2.894   1.914   7.149 -0.0084  0.1353  0.3311
  144OSM    H6F15868   2.827   2.003   7.142 -0.7553 -0.3627  0.8696
  144OSM    H6G15869   2.969   1.951   7.222  0.1398  0.1835  0.1522
  144OSM    C7F15870   2.821   1.798   7.227 -0.6332 -0.5479  0.4295
  144OSM    H7F15871   2.893   1.717   7.254  0.9027 -0.2168 -2.2958
  144OSM    H7G15872   2.741   1.754   7.164 -0.3929 -1.5626  0.8114
  144OSM    C8F15873   2.762   1.861   7.358  0.4785  0.5400 -0.1743
  144OSM    H8F15874   2.684   1.937   7.334 -0.6968 -0.7770 -0.6750
  144OSM    H8G15875   2.851   1.902   7.410  1.4445 -1.0821 -0.4793
  144OSM    C9F15876   2.705   1.742   7.438 -0.2777 -0.5475  0.8317
  144OSM    H9F15877   2.778   1.669   7.475  0.0476 -0.1538  0.9708
  144OSM   C10F15878   2.571   1.707   7.444  0.3519 -0.7560  0.9696
  144OSM   H10F15879   2.553   1.619   7.508 -0.9068  0.1424  1.9063
  144OSM   C11F15880   2.451   1.776   7.387 -0.4118 -0.5124  0.8133
  144OSM   H11F15881   2.449   1.782   7.277 -2.7803  0.7166  0.8440
  144OSM   H11G15882   2.447   1.880   7.428 -3.6954 -0.5142  0.7714
  144OSM   C12F15883   2.309   1.722   7.434  0.4614 -0.5074 -0.0070
  144OSM   H12F15884   2.303   1.734   7.545  0.5086 -1.7378  0.1332
  144OSM   H12G15885   2.285   1.617   7.408 -0.9123  0.1513 -1.5825
  144OSM   C13F15886   2.201   1.813   7.374  0.0561 -0.5490 -0.1644
  144OSM   H13F15887   2.223   1.817   7.265  0.1345 -1.1718 -0.1761
  144OSM   H13G15888   2.221   1.914   7.415  1.0444 -1.2987  1.3100
  144OSM   C14F15889   2.060   1.772   7.402 -0.3356  0.0328 -0.5363
  144OSM   H14F15890   2.038   1.774   7.511 -0.0505  1.3840 -0.4961
  144OSM   H14G15891   2.039   1.667   7.371  1.3556  0.3566 -3.0561
  144OSM   C15F15892   1.956   1.869   7.339 -0.1671  0.0161 -0.0012
  144OSM   H15F15893   1.957   1.869   7.228 -3.4619  0.8265 -0.1443
  144OSM   H15G15894   1.993   1.970   7.366 -0.1615  0.6586 -2.2717
  144OSM   C16F15895   1.810   1.846   7.405 -0.1832  0.1668 -0.2202
  144OSM   H16F15896   1.799   1.735   7.404 -0.2427  0.1527  0.9768
  144OSM   H16G15897   1.728   1.888   7.343  0.4001  0.9634 -0.4725
  144OSM   C17F15898   1.798   1.893   7.550  0.3108 -1.0121  0.2034
  144OSM   H17F15899   1.789   2.003   7.544  0.5445 -1.0602 -3.1605
  144OSM   H17G15900   1.894   1.864   7.596 -0.1877 -0.2745  1.7706
  144OSM   C18F15901   1.680   1.832   7.631 -0.3835 -1.0230 -0.2945
  144OSM   H18F15902   1.699   1.832   7.741  1.6366 -2.1010 -0.6008
  144OSM   H18G15903   1.658   1.724   7.618 -2.0565 -0.7674  0.1863
  144OSM   H18H15904   1.591   1.897   7.617 -1.0494 -1.7223  0.6115
  145SAPE     N15905   0.737   3.575  10.588 -0.1969  0.1002  0.0624
  145SAPE   HN115906   0.737   3.534  10.684  1.5308 -2.5370 -0.9557
  145SAPE   HN215907   0.816   3.643  10.585 -1.1195  1.2927  1.4128
  145SAPE   HN315908   0.651   3.631  10.571  0.3702  0.7243 -0.8562
  145SAPE   C1215909   0.753   3.473  10.481 -0.6695 -0.1141  0.3725
  145SAPE  H12A15910   0.722   3.517  10.383 -0.4081  1.5113  0.9903
  145SAPE  H12B15911   0.694   3.385  10.516 -0.9933 -0.5246 -1.1299
  145SAPE   C1115912   0.899   3.431  10.464  1.0765  0.2554  0.5217
  145SAPE  H11A15913   0.954   3.512  10.412  1.6307 -0.0904  0.5624
  145SAPE  H11B15914   0.908   3.347  10.392 -1.1326  1.0847 -0.8255
  145SAPE     P15915   1.113   3.359  10.591  0.2430 -0.2558  0.6245
  145SAPE   O1315916   1.186   3.479  10.541  0.4772 -0.1617  0.4406
  145SAPE   O1415917   1.151   3.314  10.730  0.6668  0.3231 -0.0858
  145SAPE   O1215918   0.965   3.394  10.587  0.1375 -0.3591 -0.2025
  145SAPE   O1115919   1.122   3.246  10.489  0.3028  0.1938 -0.7564
  145SAPE    C115920   1.080   3.114  10.520  0.2798  0.2776 -0.1453
  145SAPE    HA15921   1.092   3.092  10.628  2.2825  1.6810 -0.0240
  145SAPE    HB15922   0.971   3.105  10.504  0.0747 -1.4056  1.7838
  145SAPE    C215923   1.159   3.015  10.430 -0.6394  0.0787  0.0055
  145SAPE    HS15924   1.266   3.046  10.427 -0.7504  0.4978  0.3523
  145SAPE   O2115925   1.096   3.019  10.300 -0.4904  0.3237 -0.1925
  145SAPE   C2115926   1.176   3.001  10.201  0.6130  1.0834  0.3744
  145SAPE   O2215927   1.295   2.993  10.201 -0.0142 -0.0129  0.1194
  145SAPE   C2215928   1.081   2.970  10.074  0.1125 -0.4084  0.2336
  145SAPE   H2R15929   1.111   2.874  10.026 -1.3412 -0.4725 -0.5944
  145SAPE   H2S15930   0.973   2.962  10.095  0.2864 -1.4346  0.8381
  145SAPE    C315931   1.158   2.868  10.490  0.4308  0.5649  0.1519
  145SAPE    HX15932   1.056   2.824  10.497 -0.0398  1.9463  3.6303
  145SAPE    HY15933   1.188   2.867  10.597  1.4169  2.9571 -0.0562
  145SAPE   O3115934   1.242   2.778  10.410 -0.1926 -0.5283  0.1107
  145SAPE   C3115935   1.233   2.648  10.441 -0.5284 -0.7507 -0.4502
  145SAPE   O3215936   1.157   2.605  10.528 -0.5089 -0.4009 -0.1322
  145SAPE   C3215937   1.332   2.567  10.344 -0.9885  0.5503  0.7074
  145SAPE   H2X15938   1.433   2.570  10.390 -0.1245  0.8468 -1.1140
  145SAPE   H2Y15939   1.326   2.635  10.256 -0.2453 -0.6628 -0.2940
  145SAPE   C2315940   1.082   3.087   9.967 -0.3977 -0.2525 -0.1485
  145SAPE   H3R15941   1.149   3.168  10.001 -0.5044 -0.6406  1.0618
  145SAPE   H3S15942   0.977   3.120   9.950 -0.5503 -1.4843 -1.8361
  145SAPE   C2415943   1.125   3.039   9.827  0.9531  0.0820  0.0058
  145SAPE   H4R15944   1.098   3.115   9.750 -0.4326  1.0827  1.4244
  145SAPE   H4S15945   1.063   2.949   9.806  0.9808  0.1977 -0.5916
  145SAPE   C2515946   1.272   3.016   9.831  0.0686  0.0062  0.2274
  145SAPE   H5R15947   1.322   3.030   9.928 -2.1105 -1.2999  1.6283
  145SAPE   C2615948   1.329   2.995   9.714 -0.6838  0.2991 -0.4285
  145SAPE   H6R15949   1.429   2.952   9.727 -0.2547  1.5687  0.7436
  145SAPE   C2715950   1.264   2.973   9.580 -0.5452  0.3435  0.0296
  145SAPE   H7R15951   1.258   3.078   9.544 -0.2907  1.3034  2.6443
  145SAPE   H7S15952   1.165   2.923   9.586 -0.9253  1.1704  0.9254
  145SAPE   C2815953   1.350   2.890   9.488 -0.1485 -0.1898  0.7303
  145SAPE   H8R15954   1.432   2.833   9.534  0.8043  1.8687  1.7331
  145SAPE   C2915955   1.326   2.879   9.354  0.0553  0.1111 -0.1017
  145SAPE   H9R15956   1.403   2.838   9.286 -0.8381 -0.9309 -0.5222
  145SAPE  C21015957   1.198   2.948   9.300 -0.1730  0.4895  0.0317
  145SAPE  H10R15958   1.109   2.946   9.366 -0.7819  1.0859 -0.7576
  145SAPE  H10S15959   1.170   2.891   9.209 -0.2532  0.5801  0.0001
  145SAPE  C21115960   1.214   3.088   9.258 -0.9301  0.7490 -0.0528
  145SAPE  H11R15961   1.237   3.155   9.343 -0.8343 -0.8981  1.2700
  145SAPE  C21215962   1.222   3.135   9.132  0.5445 -0.3863 -0.1529
  145SAPE  H12R15963   1.225   3.245   9.123 -2.1788 -0.4007 -2.4921
  145SAPE  C21315964   1.212   3.051   9.008  0.6800  0.3132 -0.3361
  145SAPE  H13R15965   1.282   2.965   9.020  2.1909  1.2948 -1.6301
  145SAPE  H13S15966   1.248   3.111   8.921  1.0779  0.6598  0.0633
  145SAPE  C21415967   1.069   3.007   8.982 -0.6104  0.1573  0.5610
  145SAPE  H14R15968   0.996   3.022   9.063  0.1249 -2.0713  1.7494
  145SAPE  C21515969   1.030   2.945   8.869  0.0662  0.1732  0.2023
  145SAPE  H15R15970   0.923   2.923   8.853  0.4532 -0.8816 -1.0713
  145SAPE  C21615971   1.101   2.896   8.742  0.4856 -0.1811 -0.7767
  145SAPE  H16R15972   1.070   2.792   8.718  2.1573 -1.2231  1.2395
  145SAPE  H16S15973   1.210   2.912   8.758  0.3150 -0.3338  0.7197
  145SAPE  C21715974   1.068   3.004   8.639 -0.5379  0.2030  0.0978
  145SAPE  H17R15975   1.108   3.103   8.668 -1.7549  1.7811 -3.0949
  145SAPE  H17S15976   0.959   3.023   8.627 -1.0139 -1.9590  0.4959
  145SAPE  C21815977   1.130   2.966   8.507  0.2356 -0.0193  0.2005
  145SAPE  H18R15978   1.239   2.961   8.524 -0.2150 -0.8369  3.5043
  145SAPE  H18S15979   1.123   3.059   8.447  2.3386 -0.0245 -0.1223
  145SAPE  C21915980   1.064   2.839   8.442  0.1229  0.0191 -0.9509
  145SAPE  H19R15981   0.956   2.845   8.467  0.8564  0.6947  2.5123
  145SAPE  H19S15982   1.108   2.750   8.493 -1.0543 -0.6647 -1.1049
  145SAPE  C22015983   1.067   2.817   8.292 -0.6489  0.1056 -0.4100
  145SAPE  H20R15984   1.010   2.884   8.224 -0.6274 -1.7927 -2.4138
  145SAPE  H20S15985   1.031   2.715   8.267  0.2815 -0.1344 -0.8128
  145SAPE  H20T15986   1.171   2.824   8.252 -1.0317  0.5277 -1.3618
  145SAPE   C3315987   1.303   2.419  10.313 -0.4996  0.0334  0.0849
  145SAPE   H3X15988   1.193   2.402  10.304 -0.6240  1.4226 -1.5379
  145SAPE   H3Y15989   1.343   2.358  10.396 -0.0737  0.3661  0.1273
  145SAPE   C3415990   1.383   2.365  10.191 -0.2395  0.6183  0.2996
  145SAPE   H4X15991   1.374   2.255  10.207 -0.7283  0.8057  1.4102
  145SAPE   H4Y15992   1.491   2.383  10.211  0.3756 -0.9020 -1.3271
  145SAPE   C3515993   1.325   2.396  10.057  0.1212 -0.9910 -0.1965
  145SAPE   H5X15994   1.302   2.504  10.049  0.0234 -1.1085 -1.9242
  145SAPE   H5Y15995   1.237   2.330  10.040  0.6739 -1.5464 -0.9927
  145SAPE   C3615996   1.416   2.367   9.939  0.5750 -0.0083  0.1807
  145SAPE   H6X15997   1.483   2.283   9.966 -0.8693 -1.0245  0.7135
  145SAPE   H6Y15998   1.480   2.457   9.923 -2.2814  2.0492 -0.4653
  145SAPE   C3715999   1.342   2.342   9.800 -0.4709 -0.0921  0.6672
  145SAPE   H7X16000   1.283   2.431   9.770 -0.1410 -1.0092 -3.2969
  145SAPE   H7Y16001   1.272   2.256   9.808 -0.1915 -0.2374  1.7681
  145SAPE   C3816002   1.434   2.314   9.677  0.3666 -0.0687  0.2285
  145SAPE   H8X16003   1.474   2.211   9.686 -2.3162 -1.2287  0.0876
  145SAPE   H8Y16004   1.529   2.372   9.672  0.7723 -0.8169 -1.2153
  145SAPE   C3916005   1.369   2.320   9.535 -0.5089 -0.3959  0.6201
  145SAPE   H9X16006   1.423   2.247   9.471  2.5401  0.8518  1.6206
  145SAPE   H9Y16007   1.385   2.425   9.502  0.9293 -0.5181  0.8748
  145SAPE  C31016008   1.216   2.304   9.523 -0.2336 -0.3219  0.0099
  145SAPE  H10X16009   1.157   2.369   9.591 -1.9386  0.2773 -1.8967
  145SAPE  H10Y16010   1.192   2.197   9.539  1.7233 -0.6507  0.9210
  145SAPE  C31116011   1.176   2.342   9.389  0.1459  0.5193  0.7516
  145SAPE  H11X16012   1.229   2.429   9.343 -1.8343  0.1914 -2.5352
  145SAPE  H11Y16013   1.066   2.357   9.384  0.0882 -0.1463 -0.7680
  145SAPE  C31216014   1.209   2.238   9.280  0.7020  0.6316  0.3388
  145SAPE  H12X16015   1.190   2.132   9.307  1.3150  0.9410  2.0853
  145SAPE  H12Y16016   1.318   2.237   9.257  0.9796 -1.1839  1.5482
  145SAPE  C31316017   1.115   2.244   9.151  0.3904 -0.3096  0.0863
  145SAPE  H13X16018   1.103   2.352   9.127 -1.1280 -0.4976 -0.0953
  145SAPE  H13Y16019   1.023   2.192   9.186  0.6506 -1.1474 -0.4323
  145SAPE  C31416020   1.169   2.171   9.032 -0.3423  0.0951  0.0697
  145SAPE  H14X16021   1.177   2.061   9.034 -0.5865  0.0440 -1.1297
  145SAPE  H14Y16022   1.278   2.194   9.030 -0.3164 -0.0094  0.2870
  145SAPE  C31516023   1.104   2.208   8.895 -0.5356 -0.0264  0.8258
  145SAPE  H15X16024   1.172   2.172   8.815 -1.0156 -0.9126  0.7984
  145SAPE  H15Y16025   1.095   2.319   8.895  0.3118  0.0489  0.2931
  145SAPE  C31616026   0.966   2.141   8.874  1.1346 -0.5246 -0.0875
  145SAPE  H16X16027   0.883   2.214   8.885  0.6074 -1.3488  1.9094
  145SAPE  H16Y16028   0.946   2.065   8.953  1.5972 -0.9720 -0.3974
  145SAPE  C31716029   0.950   2.087   8.731  1.1266 -0.2482 -0.6950
  145SAPE  H17X16030   0.845   2.054   8.715  0.4501  1.6756 -0.5355
  145SAPE  H17Y16031   1.022   2.003   8.723  0.5975 -0.5764 -2.4002
  145SAPE  C31816032   0.986   2.175   8.606  0.7489  0.3720 -0.4550
  145SAPE  H18X16033   0.983   2.120   8.510  3.0919  0.1811 -0.4614
  145SAPE  H18Y16034   1.079   2.233   8.622  0.5306  0.4307  0.7193
  145SAPE  H18Z16035   0.905   2.250   8.591 -1.3724 -1.6240  0.3051
  146SAPE     N16036   6.198   4.331  10.808  0.4895  0.4371 -0.1117
  146SAPE   HN116037   6.114   4.274  10.833  1.7127 -1.3234  0.1569
  146SAPE   HN216038   6.247   4.333  10.899 -1.7119 -0.9591  1.2085
  146SAPE   HN316039   6.166   4.426  10.780  1.2529  0.7188 -0.0536
  146SAPE   C1216040   6.270   4.275  10.693 -0.1991  0.1571  0.2304
  146SAPE  H12A16041   6.323   4.184  10.729 -0.5944  1.0473  3.3609
  146SAPE  H12B16042   6.335   4.353  10.648 -1.0636  0.1167 -1.1233
  146SAPE   C1116043   6.166   4.239  10.590 -0.2206 -0.3595 -0.2258
  146SAPE  H11A16044   6.217   4.225  10.492 -2.1176 -0.7267 -1.2303
  146SAPE  H11B16045   6.089   4.318  10.573  0.4509  0.2292 -0.5597
  146SAPE     P16046   5.952   4.087  10.680  0.0347  0.2466 -0.3006
  146SAPE   O1316047   5.923   3.946  10.651 -0.3170 -0.5902 -0.4700
  146SAPE   O1416048   5.956   4.127  10.820  0.0157  0.8312  0.4658
  146SAPE   O1216049   6.100   4.110  10.615 -0.0359  0.1619  0.1077
  146SAPE   O1116050   5.842   4.179  10.606 -1.0157 -0.1388  0.6995
  146SAPE    C116051   5.827   4.174  10.467  0.5236  0.5897  0.3316
  146SAPE    HA16052   5.885   4.091  10.420 -1.5402  0.5840 -2.4648
  146SAPE    HB16053   5.718   4.158  10.450  0.4750 -0.0802  1.2176
  146SAPE    C216054   5.862   4.301  10.391 -0.1137  0.2637  0.1553
  146SAPE    HS16055   5.791   4.318  10.307  1.8900  2.5010 -1.2103
  146SAPE   O2116056   6.001   4.304  10.350 -0.0754 -0.1692 -0.7623
  146SAPE   C2116057   6.028   4.223  10.246 -0.3081 -0.3042  0.3906
  146SAPE   O2216058   5.941   4.165  10.180 -0.2376 -0.4092  0.2377
  146SAPE   C2216059   6.173   4.217  10.218 -0.3655  0.7109 -0.9168
  146SAPE   H2R16060   6.234   4.272  10.293  1.5915 -1.4440 -0.8095
  146SAPE   H2S16061   6.197   4.109  10.223 -1.5529  0.4836  0.3070
  146SAPE    C316062   5.831   4.429  10.482 -0.2751 -0.5049  0.0100
  146SAPE    HX16063   5.906   4.433  10.565 -1.1108 -0.4724  0.7820
  146SAPE    HY16064   5.732   4.398  10.522  0.7949 -1.3347  2.1952
  146SAPE   O3116065   5.826   4.553  10.402 -0.2109  0.3714  0.7079
  146SAPE   C3116066   5.938   4.606  10.363  0.8834  0.7626 -0.7265
  146SAPE   O3216067   6.046   4.564  10.393 -0.1093 -0.0336  0.0993
  146SAPE   C3216068   5.898   4.720  10.269  0.3389  0.4275 -0.5392
  146SAPE   H2X16069   5.859   4.800  10.336 -0.2540 -0.0101 -0.3513
  146SAPE   H2Y16070   5.815   4.693  10.200 -0.3637  1.2526 -0.0410
  146SAPE   C2316071   6.195   4.260  10.077  0.3016 -1.2996  0.1035
  146SAPE   H3R16072   6.129   4.207  10.006 -3.5915  2.7276  0.2106
  146SAPE   H3S16073   6.303   4.251  10.054 -0.0574  0.2757 -2.7687
  146SAPE   C2416074   6.161   4.410  10.053  0.3941 -0.2066 -0.0465
  146SAPE   H4R16075   6.057   4.444  10.077 -0.4231 -1.2681 -1.9118
  146SAPE   H4S16076   6.164   4.411   9.942  0.4281 -1.6409 -0.0753
  146SAPE   C2516077   6.262   4.496  10.112  0.3127  0.0809 -0.2402
  146SAPE   H5R16078   6.294   4.463  10.212  0.5215  0.3963 -0.2004
  146SAPE   C2616079   6.314   4.604  10.060  0.3203 -0.4775 -0.6483
  146SAPE   H6R16080   6.387   4.658  10.123  0.0760 -0.6044 -0.2572
  146SAPE   C2716081   6.288   4.650   9.924  0.0297 -0.5391  0.6929
  146SAPE   H7R16082   6.179   4.664   9.906  0.0229 -1.2912  0.0638
  146SAPE   H7S16083   6.312   4.561   9.861 -1.5270 -0.5092  0.0166
  146SAPE   C2816084   6.358   4.772   9.872  0.6286 -0.0542  0.5022
  146SAPE   H8R16085   6.357   4.852   9.948 -1.0792  0.7502 -0.3072
  146SAPE   C2916086   6.410   4.794   9.751 -0.4929  0.1786  0.5340
  146SAPE   H9R16087   6.452   4.893   9.731  0.3630  0.2004  2.2101
  146SAPE  C21016088   6.403   4.691   9.634  0.0656 -0.1486  0.0045
  146SAPE  H10R16089   6.313   4.726   9.579  0.6624  1.8685  0.2502
  146SAPE  H10S16090   6.377   4.587   9.662  0.4542 -0.0219  0.8790
  146SAPE  C21116091   6.519   4.690   9.539  0.3872 -0.1647 -0.4267
  146SAPE  H11R16092   6.603   4.646   9.594 -0.1937 -0.7313  0.0329
  146SAPE  C21216093   6.518   4.725   9.411 -0.1724  0.3893  0.2205
  146SAPE  H12R16094   6.613   4.731   9.355 -0.3557  1.8539  0.0146
  146SAPE  C21316095   6.402   4.792   9.323  0.5193 -0.0472 -0.3566
  146SAPE  H13R16096   6.446   4.880   9.271 -0.4283  0.5310 -0.1994
  146SAPE  H13S16097   6.330   4.820   9.402 -0.0942 -2.2306 -0.0576
  146SAPE  C21416098   6.344   4.696   9.220  0.4898  0.2063 -0.5233
  146SAPE  H14R16099   6.284   4.617   9.267 -1.0524  1.9650  0.5829
  146SAPE  C21516100   6.364   4.674   9.086  0.7459 -0.9266  0.3308
  146SAPE  H15R16101   6.299   4.596   9.044  0.4594 -0.2401 -0.5077
  146SAPE  C21616102   6.451   4.749   8.984 -0.1695  0.3643 -0.6269
  146SAPE  H16R16103   6.492   4.685   8.903  0.3582  1.3976 -1.2013
  146SAPE  H16S16104   6.533   4.795   9.043 -1.0638 -0.0187  0.9839
  146SAPE  C21716105   6.370   4.852   8.914 -0.0950  0.2131 -0.5471
  146SAPE  H17R16106   6.428   4.914   8.843  0.6264  1.2714  0.9020
  146SAPE  H17S16107   6.323   4.913   8.994 -0.2572  0.4291 -0.8097
  146SAPE  C21816108   6.249   4.798   8.838  0.5962  0.0176  0.2008
  146SAPE  H18R16109   6.188   4.737   8.908 -0.6115  1.9062  0.8951
  146SAPE  H18S16110   6.285   4.740   8.750 -0.7783  0.6707 -0.8328
  146SAPE  C21916111   6.149   4.906   8.792 -0.0414  0.0533 -0.4026
  146SAPE  H19R16112   6.122   4.978   8.872  4.1561  0.2976  1.0518
  146SAPE  H19S16113   6.054   4.861   8.756  1.0106 -1.9329 -0.8798
  146SAPE  C22016114   6.204   4.994   8.679  0.3259 -0.5691 -0.0077
  146SAPE  H20R16115   6.148   5.087   8.656  0.4884 -0.6221 -0.6316
  146SAPE  H20S16116   6.213   4.932   8.587 -2.2834 -0.4747 -0.4033
  146SAPE  H20T16117   6.306   5.027   8.707  0.1493 -2.2821  3.1129
  146SAPE   C3316118   6.013   4.766  10.192 -0.8620  0.3724 -0.7842
  146SAPE   H3X16119   6.052   4.698  10.113  1.7321 -0.4717  1.0587
  146SAPE   H3Y16120   6.103   4.769  10.258  0.1683 -2.4913 -1.8804
  146SAPE   C3416121   6.007   4.903  10.124 -0.8674  0.3262 -0.4826
  146SAPE   H4X16122   6.107   4.943  10.100  0.6795 -1.1959  2.7486
  146SAPE   H4Y16123   5.959   4.989  10.177 -0.7902  0.0605  0.0303
  146SAPE   C3516124   5.926   4.900   9.995 -0.3495  0.6671 -0.6208
  146SAPE   H5X16125   5.820   4.915  10.027  0.0418  0.4750  0.8319
  146SAPE   H5Y16126   5.920   4.807   9.935  1.2354 -0.0054  0.2211
  146SAPE   C3616127   5.954   5.014   9.896 -0.2253 -0.0173  0.1961
  146SAPE   H6X16128   6.062   5.040   9.902 -0.2113 -0.3035  1.5684
  146SAPE   H6Y16129   5.901   5.105   9.931 -0.0356  0.1289  0.1032
  146SAPE   C3716130   5.916   4.965   9.755  1.1160 -0.0593 -0.1345
  146SAPE   H7X16131   5.884   5.051   9.693 -3.1301 -3.1415 -2.7211
  146SAPE   H7Y16132   5.824   4.903   9.765 -0.0746  1.8744  1.5612
  146SAPE   C3816133   6.022   4.893   9.678  0.3223  0.3372  0.6330
  146SAPE   H8X16134   6.085   4.819   9.732  3.3233  1.9780 -0.3695
  146SAPE   H8Y16135   6.109   4.951   9.640  1.0809  0.1051  1.9614
  146SAPE   C3916136   5.966   4.820   9.551 -0.1100 -0.4564  1.0439
  146SAPE   H9X16137   5.863   4.786   9.573 -0.3438 -2.4100 -2.3439
  146SAPE   H9Y16138   6.021   4.724   9.537 -1.3127 -1.2054  1.3143
  146SAPE  C31016139   5.979   4.898   9.417 -0.0525  0.1317 -0.3354
  146SAPE  H10X16140   6.087   4.907   9.395 -0.0208 -0.2580 -0.3440
  146SAPE  H10Y16141   5.938   5.000   9.433 -1.0638 -0.5922  2.2329
  146SAPE  C31116142   5.905   4.834   9.304 -0.2768  0.2969 -0.9296
  146SAPE  H11X16143   5.794   4.834   9.313 -0.1711  0.4059  0.8906
  146SAPE  H11Y16144   5.937   4.728   9.304  0.1003  0.3909  0.1634
  146SAPE  C31216145   5.941   4.890   9.171 -0.5366  0.5640 -0.0193
  146SAPE  H12X16146   6.051   4.882   9.157  0.0250  1.7134  3.0499
  146SAPE  H12Y16147   5.917   4.998   9.179 -1.7262  0.3333 -0.2462
  146SAPE  C31316148   5.859   4.840   9.054  0.8360 -0.4919  0.1048
  146SAPE  H13X16149   5.867   4.904   8.963 -1.6879 -0.8855 -0.4712
  146SAPE  H13Y16150   5.752   4.853   9.079  1.7513  2.7687  3.0677
  146SAPE  C31416151   5.897   4.695   9.022  0.4402  0.1037 -0.0867
  146SAPE  H14X16152   5.912   4.646   9.120 -2.6589  0.1039  0.4887
  146SAPE  H14Y16153   5.990   4.684   8.962 -2.1725 -0.3148 -4.5599
  146SAPE  C31516154   5.776   4.634   8.936 -0.8682 -0.4101 -0.3877
  146SAPE  H15X16155   5.693   4.639   9.011  1.3039 -1.6121  2.2790
  146SAPE  H15Y16156   5.789   4.524   8.927 -2.3796 -0.5088 -1.9877
  146SAPE  C31616157   5.778   4.686   8.795  0.4977  0.2111 -0.1728
  146SAPE  H16X16158   5.879   4.662   8.754  0.4692 -4.3034  1.7303
  146SAPE  H16Y16159   5.759   4.795   8.798  0.0838  0.1266  0.7427
  146SAPE  C31716160   5.673   4.618   8.699 -1.0225  0.8439 -0.4372
  146SAPE  H17X16161   5.575   4.617   8.750 -0.1990 -0.7974  1.2063
  146SAPE  H17Y16162   5.725   4.523   8.676  1.0216  1.8968 -0.4354
  146SAPE  C31816163   5.670   4.694   8.566 -0.4851 -0.0448  0.0188
  146SAPE  H18X16164   5.672   4.805   8.580 -0.4614 -0.3389  3.1519
  146SAPE  H18Y16165   5.584   4.661   8.504 -0.4915 -0.2041  0.1125
  146SAPE  H18Z16166   5.763   4.670   8.510 -1.6825  0.7102 -2.4580
  147SAPE     N16167   1.505   6.154  10.802 -0.3713  0.2048  0.1218
  147SAPE   HN116168   1.518   6.148  10.699 -0.2377 -0.0486  0.1531
  147SAPE   HN216169   1.442   6.236  10.816 -0.1945  0.4057 -0.2185
  147SAPE   HN316170   1.597   6.178  10.845 -0.7425  1.4155  0.2877
  147SAPE   C1216171   1.456   6.021  10.855 -0.3080 -0.7004 -0.2854
  147SAPE  H12A16172   1.549   5.962  10.870  0.5807  0.6716 -0.2638
  147SAPE  H12B16173   1.392   5.975  10.776 -2.1944  2.7402 -0.9294
  147SAPE   C1116174   1.386   6.052  10.989  0.0207  0.1581  0.0101
  147SAPE  H11A16175   1.464   6.087  11.060 -0.0569 -0.0506  0.2009
  147SAPE  H11B16176   1.353   5.953  11.028  0.1581  0.1042 -0.0131
  147SAPE     P16177   1.143   6.128  10.926  0.0158 -0.4608 -0.4351
  147SAPE   O1316178   1.076   6.025  11.002 -0.0468 -0.3548  0.1324
  147SAPE   O1416179   1.082   6.264  10.921  0.3108 -0.0189 -0.2358
  147SAPE   O1216180   1.285   6.157  10.978  0.0844  0.5945 -0.1332
  147SAPE   O1116181   1.168   6.083  10.777  0.3440  0.4365 -0.0447
  147SAPE    C116182   1.112   5.963  10.724  0.4296 -0.7656 -0.4548
  147SAPE    HA16183   1.132   5.875  10.788  0.7558  0.3889  1.1067
  147SAPE    HB16184   1.001   5.970  10.719  0.1476 -1.9436  2.5745
  147SAPE    C216185   1.150   5.939  10.574 -0.3780 -0.0530  0.2998
  147SAPE    HS16186   1.073   5.864  10.546 -1.0285 -0.9573  3.9550
  147SAPE   O2116187   1.279   5.882  10.572 -0.2552  0.2103 -0.0261
  147SAPE   C2116188   1.288   5.760  10.511  0.5844 -0.6584  0.3537
  147SAPE   O2216189   1.199   5.691  10.475  0.1205  0.4190  0.0443
  147SAPE   C2216190   1.438   5.734  10.509  0.1708  0.1390  0.2676
  147SAPE   H2R16191   1.483   5.809  10.439 -0.3651  0.4240  0.2242
  147SAPE   H2S16192   1.475   5.744  10.613  0.5614 -0.4313  0.1884
  147SAPE    C316193   1.145   6.067  10.489 -0.2069  0.7161 -0.6081
  147SAPE    HX16194   1.205   6.140  10.549 -1.2600  0.9633  0.1796
  147SAPE    HY16195   1.040   6.104  10.490 -0.5160 -0.1104  0.8106
  147SAPE   O3116196   1.194   6.036  10.364 -0.0136  0.0731 -0.3796
  147SAPE   C3116197   1.112   5.988  10.273  0.0103 -0.0803  0.1487
  147SAPE   O3216198   0.991   5.975  10.276 -0.0820 -0.2150  0.0537
  147SAPE   C3216199   1.195   5.965  10.142 -0.2959  0.2691 -0.2499
  147SAPE   H2X16200   1.267   5.883  10.166 -1.2086 -0.7074 -0.7558
  147SAPE   H2Y16201   1.244   6.059  10.110 -0.8919  0.5012 -0.4827
  147SAPE   C2316202   1.475   5.589  10.460  0.4215  0.0444 -0.5357
  147SAPE   H3R16203   1.399   5.555  10.387  0.0161 -2.0751  0.8007
  147SAPE   H3S16204   1.456   5.517  10.543  2.2071 -0.4926 -0.5571
  147SAPE   C2416205   1.611   5.567  10.411 -0.3041  0.3039  0.0643
  147SAPE   H4R16206   1.678   5.588  10.497  0.0685  0.6771 -0.3133
  147SAPE   H4S16207   1.640   5.645  10.337  0.1458  0.4819  0.4241
  147SAPE   C2516208   1.650   5.438  10.340  0.4010  0.8082  0.2897
  147SAPE   H5R16209   1.663   5.354  10.410 -0.9886 -0.2853 -0.7088
  147SAPE   C2616210   1.660   5.421  10.208 -0.3611  0.3059 -0.6364
  147SAPE   H6R16211   1.714   5.331  10.174 -0.5287  0.7556 -2.2020
  147SAPE   C2716212   1.640   5.526  10.107  0.0575  0.6879 -0.4793
  147SAPE   H7R16213   1.729   5.592  10.116  0.0590  0.8140 -1.3354
  147SAPE   H7S16214   1.543   5.574  10.135 -0.7318 -1.1142 -0.0147
  147SAPE   C2816215   1.627   5.492   9.962  0.3497  0.1891  1.3167
  147SAPE   H8R16216   1.525   5.502   9.923  0.8524  2.9324  0.4895
  147SAPE   C2916217   1.724   5.448   9.879  0.9487  0.1274 -0.3460
  147SAPE   H9R16218   1.701   5.411   9.779 -0.1995  0.2803 -0.1542
  147SAPE  C21016219   1.869   5.431   9.913 -0.2191  0.5755 -0.1151
  147SAPE  H10R16220   1.906   5.348   9.849 -0.0704  1.0930 -0.7057
  147SAPE  H10S16221   1.877   5.393  10.018 -1.1477 -2.4153 -1.0269
  147SAPE  C21116222   1.955   5.552   9.895  0.4849 -0.4944 -0.1837
  147SAPE  H11R16223   2.000   5.586   9.990  0.5036 -0.8759 -0.0558
  147SAPE  C21216224   1.995   5.602   9.778 -0.0270 -0.1359  0.2671
  147SAPE  H12R16225   2.058   5.692   9.779 -0.3467  0.0921 -0.0172
  147SAPE  C21316226   1.965   5.545   9.641 -0.6635 -0.0244  0.1408
  147SAPE  H13R16227   1.952   5.626   9.566 -0.7188 -0.4128 -0.2728
  147SAPE  H13S16228   1.858   5.515   9.639 -0.8916  0.7675 -0.0513
  147SAPE  C21416229   2.048   5.439   9.578  0.3832 -0.1247 -0.3350
  147SAPE  H14R16230   2.122   5.404   9.652  0.5469  3.2187  1.2898
  147SAPE  C21516231   2.065   5.407   9.451 -0.4186 -0.0278 -0.5496
  147SAPE  H15R16232   2.125   5.319   9.424  1.7315  0.4335  2.2311
  147SAPE  C21616233   1.991   5.465   9.335 -0.2574  0.5291 -0.0885
  147SAPE  H16R16234   1.892   5.483   9.381  0.9002  0.9635  2.3643
  147SAPE  H16S16235   1.975   5.389   9.255  1.7664 -0.5659  0.4914
  147SAPE  C21716236   2.058   5.588   9.271  0.0914 -0.1036  0.2546
  147SAPE  H17R16237   2.155   5.557   9.226  0.2926  0.6669  0.1321
  147SAPE  H17S16238   2.074   5.664   9.350  0.6529  1.7789 -1.5638
  147SAPE  C21816239   1.980   5.656   9.155  0.0452  0.3441  0.0429
  147SAPE  H18R16240   1.885   5.691   9.202 -0.5635  1.1050 -1.6877
  147SAPE  H18S16241   1.949   5.588   9.074  1.6831  0.9017 -1.1014
  147SAPE  C21916242   2.046   5.780   9.099 -0.7334  0.1671  0.0775
  147SAPE  H19R16243   2.147   5.745   9.068 -2.2823 -2.0858 -2.9274
  147SAPE  H19S16244   2.071   5.856   9.176  0.5115 -0.6568  0.5069
  147SAPE  C22016245   1.980   5.843   8.981  0.1450 -0.0953 -0.0796
  147SAPE  H20R16246   2.051   5.893   8.911  1.5232 -1.3094  0.3945
  147SAPE  H20S16247   1.909   5.920   9.016  0.5900 -0.7413  2.4198
  147SAPE  H20T16248   1.929   5.763   8.922 -1.8535  0.3007  1.0234
  147SAPE   C3316249   1.105   5.907  10.025 -0.1756  0.7081 -0.2766
  147SAPE   H3X16250   1.019   5.976  10.011 -0.9280 -0.2858 -0.6929
  147SAPE   H3Y16251   1.075   5.804  10.054  1.9086 -0.2667 -1.3488
  147SAPE   C3416252   1.187   5.909   9.895  0.5890  0.7922  0.3136
  147SAPE   H4X16253   1.286   5.861   9.915 -0.9215 -3.2241 -0.8596
  147SAPE   H4Y16254   1.189   6.015   9.863  0.9869  0.2044 -1.7061
  147SAPE   C3516255   1.124   5.833   9.776 -0.6351 -0.2177  0.5063
  147SAPE   H5X16256   1.025   5.882   9.765  0.1498  0.9572 -2.0294
  147SAPE   H5Y16257   1.105   5.725   9.798  0.1176 -0.5954 -0.6159
  147SAPE   C3616258   1.197   5.849   9.640  1.0901  0.3318 -0.4491
  147SAPE   H6X16259   1.297   5.809   9.668 -1.0191 -2.9253  3.7769
  147SAPE   H6Y16260   1.210   5.955   9.609  1.0323  0.5396  0.2227
  147SAPE   C3716261   1.142   5.758   9.529 -0.6062  0.1788 -0.4262
  147SAPE   H7X16262   1.053   5.807   9.483  1.3027  2.9976 -1.4388
  147SAPE   H7Y16263   1.125   5.653   9.561 -2.1552  0.8302  1.0368
  147SAPE   C3816264   1.258   5.748   9.425  0.7844 -0.1140  0.4160
  147SAPE   H8X16265   1.345   5.700   9.475  0.2383 -1.6001  0.0003
  147SAPE   H8Y16266   1.280   5.852   9.392  0.5237 -0.0771  0.3592
  147SAPE   C3916267   1.224   5.655   9.307 -0.0406 -1.0693  0.5138
  147SAPE   H9X16268   1.176   5.565   9.349  3.5326 -2.1086  2.8084
  147SAPE   H9Y16269   1.314   5.614   9.256  0.5995  2.0082 -1.1246
  147SAPE  C31016270   1.133   5.708   9.192 -0.7543 -0.6714  0.0126
  147SAPE  H10X16271   1.167   5.809   9.159 -3.7553  0.3193 -0.3571
  147SAPE  H10Y16272   1.029   5.722   9.229 -0.0803  1.9355  1.1414
  147SAPE  C31116273   1.134   5.621   9.062 -0.0101 -0.4978  0.3823
  147SAPE  H11X16274   1.066   5.537   9.087  0.6250 -1.1874 -0.1559
  147SAPE  H11Y16275   1.238   5.586   9.045 -0.0257 -0.2309 -0.2935
  147SAPE  C31216276   1.075   5.698   8.947  0.3242 -0.2634 -0.3777
  147SAPE  H12X16277   1.133   5.786   8.914 -1.2628  0.2675 -1.9263
  147SAPE  H12Y16278   0.974   5.740   8.968 -0.2730 -0.6586 -2.2451
  147SAPE  C31316279   1.067   5.615   8.816  0.1445 -0.2962  0.0443
  147SAPE  H13X16280   1.040   5.509   8.833  0.4535 -0.1995  1.1997
  147SAPE  H13Y16281   1.166   5.612   8.766 -0.3829 -1.3114 -0.9943
  147SAPE  C31416282   0.962   5.666   8.711 -0.0981  0.0355 -0.6695
  147SAPE  H14X16283   0.867   5.686   8.765  0.4513  0.7746  0.0584
  147SAPE  H14Y16284   0.943   5.581   8.643  0.0640 -1.1176  0.6780
  147SAPE  C31516285   0.993   5.800   8.645 -0.5111 -0.3315 -0.5480
  147SAPE  H15X16286   1.072   5.776   8.571 -2.5001 -0.0247 -2.8853
  147SAPE  H15Y16287   1.036   5.859   8.729 -0.9168 -1.3244  0.3772
  147SAPE  C31616288   0.879   5.878   8.590 -0.0394  0.8155  0.8638
  147SAPE  H16X16289   0.917   5.973   8.547  1.4078 -0.2132 -0.2071
  147SAPE  H16Y16290   0.806   5.897   8.672 -2.2300 -0.8045 -0.6097
  147SAPE  C31716291   0.798   5.804   8.479  0.4104  0.1309 -0.1542
  147SAPE  H17X16292   0.734   5.734   8.536  1.0516  0.3577  0.8685
  147SAPE  H17Y16293   0.862   5.758   8.400  1.6518 -1.8597  1.8868
  147SAPE  C31816294   0.696   5.897   8.415  0.1337  0.1685  0.1345
  147SAPE  H18X16295   0.637   5.944   8.496  0.6366  2.6906 -0.8728
  147SAPE  H18Y16296   0.620   5.843   8.355 -0.5312  2.3939 -1.1404
  147SAPE  H18Z16297   0.730   5.981   8.350  1.8078 -0.0921  0.6236
  148SAPE     N16298   3.513   2.617  10.947 -0.3288 -0.4616 -0.3542
  148SAPE   HN116299   3.542   2.519  10.930  0.5229 -0.7989  2.5748
  148SAPE   HN216300   3.536   2.646  11.044  0.6565 -1.9651 -0.1062
  148SAPE   HN316301   3.409   2.613  10.938 -0.4145 -0.4522  0.6160
  148SAPE   C1216302   3.596   2.700  10.851 -0.0201  0.2838  0.4247
  148SAPE  H12A16303   3.700   2.708  10.889  1.4395 -0.9857 -2.9270
  148SAPE  H12B16304   3.549   2.799  10.870 -1.0466 -0.5144  2.4227
  148SAPE   C1116305   3.602   2.651  10.709  0.1320  0.4778  0.3482
  148SAPE  H11A16306   3.648   2.731  10.648  0.4984  0.3191  0.4154
  148SAPE  H11B16307   3.494   2.641  10.683  0.4496  0.7522 -1.1472
  148SAPE     P16308   3.674   2.461  10.538 -0.7327 -0.4209  0.1686
  148SAPE   O1316309   3.794   2.503  10.454  0.3299  0.1046 -0.4360
  148SAPE   O1416310   3.661   2.315  10.548 -0.3234 -0.0566 -0.6821
  148SAPE   O1216311   3.674   2.529  10.684  0.3628 -0.7037  0.4751
  148SAPE   O1116312   3.539   2.519  10.476 -0.2052  0.5740  0.2768
  148SAPE    C116313   3.543   2.627  10.381 -0.1465  0.0471 -0.1290
  148SAPE    HA16314   3.473   2.709  10.409  1.6295  1.5077  0.2604
  148SAPE    HB16315   3.641   2.678  10.379 -1.8748  3.7557  0.5161
  148SAPE    C216316   3.509   2.581  10.243 -0.3547  0.0126  0.5698
  148SAPE    HS16317   3.591   2.512  10.216  2.0972  2.5516  0.9708
  148SAPE   O2116318   3.505   2.686  10.147 -0.2239 -0.0996  0.8051
  148SAPE   C2116319   3.589   2.781  10.128  0.0126 -0.3614  0.7173
  148SAPE   O2216320   3.696   2.804  10.186 -0.1766 -0.6101 -0.1306
  148SAPE   C2216321   3.518   2.874  10.032 -0.8273 -0.5153  0.4880
  148SAPE   H2R16322   3.441   2.939  10.080 -0.6462 -0.0485  0.1534
  148SAPE   H2S16323   3.597   2.940   9.991 -1.3910 -0.5399 -0.6857
  148SAPE    C316324   3.372   2.503  10.241 -0.7455 -0.0579 -0.6437
  148SAPE    HX16325   3.305   2.566  10.302 -1.8106  0.6592 -2.4733
  148SAPE    HY16326   3.391   2.412  10.303  0.4330  1.4068  1.2643
  148SAPE   O3116327   3.308   2.474  10.117 -0.3429  0.0794  1.0661
  148SAPE   C3116328   3.374   2.367  10.060 -0.2751  0.3391 -0.7995
  148SAPE   O3216329   3.480   2.324  10.108  0.3374 -0.6037  0.4016
  148SAPE   C3216330   3.308   2.322   9.939  0.5486 -0.8682 -0.2684
  148SAPE   H2X16331   3.325   2.412   9.876 -0.6355  0.7591  1.5726
  148SAPE   H2Y16332   3.200   2.301   9.958  0.9110 -2.8918 -0.2817
  148SAPE   C2316333   3.458   2.805   9.908  0.6427  0.3397 -0.1359
  148SAPE   H3R16334   3.405   2.872   9.837 -1.6692 -2.0293 -0.8184
  148SAPE   H3S16335   3.376   2.733   9.930  0.6719  0.5916  0.8496
  148SAPE   C2416336   3.564   2.725   9.825 -1.1648  0.8536 -0.0852
  148SAPE   H4R16337   3.514   2.649   9.763 -0.7805 -1.1653  1.9285
  148SAPE   H4S16338   3.628   2.662   9.891 -1.8010  1.2744  0.9641
  148SAPE   C2516339   3.654   2.816   9.747  0.8057 -0.3980  0.3617
  148SAPE   H5R16340   3.733   2.871   9.800  0.6283  3.2379 -2.6819
  148SAPE   C2616341   3.657   2.832   9.618 -0.2320 -0.5858  0.5009
  148SAPE   H6R16342   3.728   2.904   9.575 -0.4401 -0.1298  0.9123
  148SAPE   C2716343   3.567   2.760   9.518  0.0582  0.7587  0.9759
  148SAPE   H7R16344   3.482   2.698   9.555 -0.7284  0.2918 -1.4138
  148SAPE   H7S16345   3.631   2.683   9.470 -1.2757 -0.6626  1.4000
  148SAPE   C2816346   3.508   2.863   9.423 -0.1513  0.4907 -0.4462
  148SAPE   H8R16347   3.448   2.937   9.479 -2.0849 -2.3496  1.5136
  148SAPE   C2916348   3.538   2.876   9.295  0.1050  1.3379 -0.4427
  148SAPE   H9R16349   3.485   2.955   9.241 -1.0873  0.8681 -0.0029
  148SAPE  C21016350   3.628   2.792   9.212  0.6939 -0.1692 -0.2521
  148SAPE  H10R16351   3.674   2.703   9.259 -1.2693 -1.1285 -0.0518
  148SAPE  H10S16352   3.712   2.859   9.184  0.8557 -0.2411  0.0593
  148SAPE  C21116353   3.544   2.748   9.089  0.0147 -0.1735  0.3708
  148SAPE  H11R16354   3.455   2.687   9.110 -0.4811  0.4631  0.1487
  148SAPE  C21216355   3.578   2.760   8.959  0.2368 -0.1043  0.3545
  148SAPE  H12R16356   3.499   2.726   8.890 -0.2764 -1.5552  1.6057
  148SAPE  C21316357   3.697   2.813   8.888 -0.0956 -0.2452  0.9573
  148SAPE  H13R16358   3.732   2.914   8.919  0.6032 -0.2023  0.0689
  148SAPE  H13S16359   3.675   2.814   8.779  0.2729 -1.1424  0.8722
  148SAPE  C21416360   3.818   2.726   8.905 -0.7114  0.3244  0.1244
  148SAPE  H14R16361   3.843   2.693   9.007  0.8285  1.0070 -0.0039
  148SAPE  C21516362   3.910   2.718   8.808 -0.0571 -0.3341 -0.6494
  148SAPE  H15R16363   3.994   2.647   8.813  1.1046  1.0107 -0.4478
  148SAPE  C21616364   3.901   2.775   8.665 -0.0321 -0.0864 -0.5098
  148SAPE  H16R16365   3.867   2.881   8.663 -0.7730 -0.3303 -1.9047
  148SAPE  H16S16366   3.833   2.708   8.608 -0.7571  1.0744 -1.0268
  148SAPE  C21716367   4.031   2.785   8.588 -0.5106  0.3879 -0.0422
  148SAPE  H17R16368   4.107   2.847   8.640  0.0628  0.4990 -0.9776
  148SAPE  H17S16369   4.018   2.836   8.490  0.1263  0.1880 -0.2385
  148SAPE  C21816370   4.085   2.648   8.543 -1.0335  0.7596 -0.0050
  148SAPE  H18R16371   4.013   2.607   8.468 -1.9039  1.4209  0.4444
  148SAPE  H18S16372   4.103   2.580   8.629 -1.0911  1.3685  0.4957
  148SAPE  C21916373   4.216   2.656   8.452  0.0278 -0.1247 -1.1096
  148SAPE  H19R16374   4.291   2.715   8.508 -0.5863 -1.1618  0.9208
  148SAPE  H19S16375   4.194   2.714   8.360  0.6607  0.8924 -0.6335
  148SAPE  C22016376   4.276   2.514   8.417  0.4147  0.5775  0.0281
  148SAPE  H20R16377   4.198   2.456   8.363  1.3147 -0.6275 -0.0299
  148SAPE  H20S16378   4.300   2.465   8.514  0.3827 -1.8395 -1.1077
  148SAPE  H20T16379   4.363   2.506   8.349 -0.5553 -0.3124 -1.1629
  148SAPE   C3316380   3.378   2.203   9.870  0.5312  0.0870 -0.0207
  148SAPE   H3X16381   3.303   2.197   9.788 -0.2045  0.3977  0.6159
  148SAPE   H3Y16382   3.377   2.107   9.925  1.1128  0.2848  0.3455
  148SAPE   C3416383   3.519   2.240   9.816 -0.0449 -0.1854 -0.5083
  148SAPE   H4X16384   3.602   2.196   9.877  0.3525  2.6683  1.1709
  148SAPE   H4Y16385   3.537   2.348   9.835  1.7280 -0.1001 -2.2682
  148SAPE   C3516386   3.559   2.202   9.667 -0.1850 -0.8188 -0.0857
  148SAPE   H5X16387   3.537   2.096   9.644 -1.4049 -0.5980 -0.0226
  148SAPE   H5Y16388   3.670   2.207   9.671 -0.1197  2.7651 -1.9560
  148SAPE   C3616389   3.498   2.301   9.563  0.9123 -0.5292 -0.6929
  148SAPE   H6X16390   3.529   2.405   9.588 -1.0554  0.3986 -1.8873
  148SAPE   H6Y16391   3.389   2.302   9.579  0.7965  0.3078 -1.4586
  148SAPE   C3716392   3.532   2.278   9.415  0.5122 -0.9056 -0.0730
  148SAPE   H7X16393   3.462   2.202   9.373 -0.3120  0.6967 -1.7376
  148SAPE   H7Y16394   3.639   2.251   9.417  0.6912 -0.1555  0.7830
  148SAPE   C3816395   3.529   2.397   9.320 -0.4279  0.4129 -0.2644
  148SAPE   H8X16396   3.591   2.481   9.360  0.1032  0.0046 -0.2294
  148SAPE   H8Y16397   3.425   2.438   9.325 -0.9987 -1.1335  1.7432
  148SAPE   C3916398   3.582   2.351   9.183 -0.0416  0.4983  0.6396
  148SAPE   H9X16399   3.532   2.405   9.100  1.2250  0.0104 -0.4741
  148SAPE   H9Y16400   3.543   2.248   9.166 -0.9893  1.1727 -1.7265
  148SAPE  C31016401   3.735   2.368   9.157 -0.1241  0.2180  0.1615
  148SAPE  H10X16402   3.796   2.313   9.232 -0.1512 -0.3869 -0.2509
  148SAPE  H10Y16403   3.757   2.476   9.169 -0.0471 -0.1107  3.9424
  148SAPE  C31116404   3.782   2.309   9.024 -0.4269 -0.5219 -0.4383
  148SAPE  H11X16405   3.774   2.199   9.036 -0.7420 -0.3145  1.6551
  148SAPE  H11Y16406   3.889   2.336   9.008  0.3323 -2.0726  1.6398
  148SAPE  C31216407   3.699   2.366   8.911 -0.3556  0.7447  0.6146
  148SAPE  H12X16408   3.682   2.470   8.945  1.4652  1.3470 -0.2280
  148SAPE  H12Y16409   3.595   2.326   8.919 -0.1969  0.3846  0.9465
  148SAPE  C31316410   3.755   2.355   8.769  0.3883 -0.4842 -0.1863
  148SAPE  H13X16411   3.755   2.247   8.744  0.1214 -0.2719 -1.1351
  148SAPE  H13Y16412   3.862   2.385   8.756 -0.1932  0.4907 -3.8336
  148SAPE  C31416413   3.680   2.437   8.657 -0.0880  0.9055 -0.1195
  148SAPE  H14X16414   3.692   2.548   8.659 -1.2020  1.0615 -1.2507
  148SAPE  H14Y16415   3.570   2.426   8.665 -0.1182  0.2599 -1.2555
  148SAPE  C31516416   3.734   2.381   8.518 -0.4573 -0.7580 -0.7140
  148SAPE  H15X16417   3.703   2.275   8.512 -1.0030 -0.5705 -1.3790
  148SAPE  H15Y16418   3.844   2.392   8.528 -0.2131 -0.7211 -2.8737
  148SAPE  C31616419   3.685   2.456   8.395 -0.2146 -0.1748 -0.3056
  148SAPE  H16X16420   3.719   2.561   8.390  0.2860 -0.3339 -0.3483
  148SAPE  H16Y16421   3.574   2.459   8.397 -0.3635 -1.7122 -2.3540
  148SAPE  C31716422   3.728   2.388   8.257  0.0290  0.2020 -0.3633
  148SAPE  H17X16423   3.662   2.428   8.177  0.9885 -0.8043 -1.6836
  148SAPE  H17Y16424   3.708   2.281   8.275  0.3139 -0.0184 -1.3228
  148SAPE  C31816425   3.872   2.411   8.223  0.7071 -0.4560 -0.2156
  148SAPE  H18X16426   3.935   2.331   8.269 -2.1375 -2.3147  0.7032
  148SAPE  H18Y16427   3.908   2.514   8.243 -0.5127 -0.2625  1.1858
  148SAPE  H18Z16428   3.867   2.401   8.113  0.7724 -3.3382 -0.0331
  149SAPE     N16429   5.862   3.587  11.121  0.9984 -0.3284  0.6944
  149SAPE   HN116430   5.939   3.639  11.168  0.5236 -0.1153  1.2502
  149SAPE   HN216431   5.782   3.653  11.121 -0.3324 -1.8824  0.6468
  149SAPE   HN316432   5.840   3.499  11.172 -1.0256 -0.1017  0.2743
  149SAPE   C1216433   5.880   3.554  10.975  0.0849 -0.2760  0.4966
  149SAPE  H12A16434   5.967   3.608  10.933 -1.1595  0.7958 -0.8123
  149SAPE  H12B16435   5.788   3.590  10.923  0.7577  1.6807  0.5740
  149SAPE   C1116436   5.875   3.405  10.944  0.7031  0.3093  0.7787
  149SAPE  H11A16437   5.976   3.361  10.961 -0.8327 -3.2889  1.3596
  149SAPE  H11B16438   5.865   3.396  10.834  1.2206  0.2212  0.7337
  149SAPE     P16439   5.790   3.185  11.051 -0.3242  0.2838 -0.2300
  149SAPE   O1316440   5.887   3.178  11.159 -0.0532  0.2190 -0.5880
  149SAPE   O1416441   5.654   3.130  11.070 -0.5219 -0.2528 -0.0081
  149SAPE   O1216442   5.768   3.340  11.011 -0.0694 -0.5974  0.6618
  149SAPE   O1116443   5.854   3.125  10.923  0.1691  0.3070  0.8049
  149SAPE    C116444   5.784   3.125  10.797 -0.4262  0.1765 -0.0767
  149SAPE    HA16445   5.702   3.200  10.799 -0.2508  0.4510  3.3908
  149SAPE    HB16446   5.853   3.146  10.713 -0.3905  1.0862  0.1660
  149SAPE    C216447   5.719   2.984  10.768  0.0925 -0.0770  0.0959
  149SAPE    HS16448   5.682   2.938  10.863  0.4463  2.1631  1.3849
  149SAPE   O2116449   5.822   2.900  10.702  0.3461  0.8625 -0.3625
  149SAPE   C2116450   5.787   2.771  10.691 -0.0871 -0.3959 -0.3882
  149SAPE   O2216451   5.693   2.719  10.757  0.1233  0.8354  0.6296
  149SAPE   C2216452   5.882   2.699  10.591 -0.5525  0.4185 -0.1809
  149SAPE   H2R16453   5.984   2.744  10.587  0.0021 -0.7435  0.3489
  149SAPE   H2S16454   5.880   2.592  10.622 -0.8068  0.1240 -1.1834
  149SAPE    C316455   5.594   3.002  10.674 -0.1642 -0.0892  0.0632
  149SAPE    HX16456   5.516   3.060  10.728 -0.4882 -1.1754  0.8165
  149SAPE    HY16457   5.549   2.900  10.673 -1.0587  0.0812  4.2665
  149SAPE   O3116458   5.622   3.046  10.536  0.0990  0.2444  0.3005
  149SAPE   C3116459   5.609   3.178  10.520  0.4197  0.0634  0.3839
  149SAPE   O3216460   5.546   3.247  10.595  0.7080  0.1649  0.4450
  149SAPE   C3216461   5.683   3.224  10.400 -0.1170  0.3335 -0.1561
  149SAPE   H2X16462   5.783   3.178  10.413 -0.6994 -0.3929  2.1863
  149SAPE   H2Y16463   5.678   3.335  10.404 -4.0133  0.5212 -3.7759
  149SAPE   C2316464   5.826   2.695  10.442  0.4047  0.0753  0.5622
  149SAPE   H3R16465   5.813   2.790  10.386  1.3211 -1.0205 -1.6664
  149SAPE   H3S16466   5.720   2.664  10.455 -0.1330  1.8125  0.5111
  149SAPE   C2416467   5.909   2.598  10.356  0.4455 -0.0836  0.4135
  149SAPE   H4R16468   5.841   2.560  10.277 -0.6915  2.0153  0.3120
  149SAPE   H4S16469   5.927   2.504  10.412  0.6733  0.2302  0.8713
  149SAPE   C2516470   6.036   2.655  10.304  0.3197 -0.2184  0.1725
  149SAPE   H5R16471   6.116   2.641  10.378  0.6419 -0.5962 -0.2429
  149SAPE   C2616472   6.055   2.723  10.191  0.0063 -1.1426  0.7203
  149SAPE   H6R16473   6.148   2.776  10.165  0.0420 -2.6025 -2.6933
  149SAPE   C2716474   5.944   2.768  10.099 -0.8927 -0.8702  0.3513
  149SAPE   H7R16475   5.963   2.869  10.057 -2.6238 -0.9986 -0.8195
  149SAPE   H7S16476   5.860   2.784  10.170 -1.0558  0.0692 -0.0376
  149SAPE   C2816477   5.905   2.679   9.982 -0.3663 -0.3530 -0.2312
  149SAPE   H8R16478   5.811   2.625   9.999 -0.3677 -0.6184 -1.0503
  149SAPE   C2916479   5.965   2.665   9.862  0.5709 -0.1249  0.3571
  149SAPE   H9R16480   5.924   2.599   9.784 -2.2720  1.6220  0.2182
  149SAPE  C21016481   6.086   2.741   9.815 -0.4937 -0.0810  0.3793
  149SAPE  H10R16482   6.123   2.816   9.888 -2.2133  1.9410 -0.7247
  149SAPE  H10S16483   6.068   2.806   9.727  2.8645  0.0143 -0.3491
  149SAPE  C21116484   6.197   2.642   9.779 -0.0730 -0.5310 -0.0890
  149SAPE  H11R16485   6.222   2.567   9.855 -0.1411 -1.5208 -1.0069
  149SAPE  C21216486   6.263   2.636   9.664 -0.2516  0.5762 -0.3481
  149SAPE  H12R16487   6.329   2.548   9.662 -1.0752 -0.0516 -0.8004
  149SAPE  C21316488   6.249   2.720   9.546  0.6157  0.1040  0.7109
  149SAPE  H13R16489   6.336   2.708   9.477 -0.3956  2.9612 -1.2288
  149SAPE  H13S16490   6.235   2.825   9.577  0.7923 -0.0791  1.4166
  149SAPE  C21416491   6.130   2.680   9.463  0.6846 -0.2240  0.5874
  149SAPE  H14R16492   6.084   2.584   9.491 -1.8869  0.4104 -1.1130
  149SAPE  C21516493   6.084   2.743   9.357 -0.1821  0.6596  0.0068
  149SAPE  H15R16494   6.010   2.688   9.298 -1.5268 -1.0515  3.0379
  149SAPE  C21616495   6.127   2.871   9.291 -0.6578  0.3777 -0.3403
  149SAPE  H16R16496   6.212   2.914   9.349 -0.5782  0.4522 -0.5115
  149SAPE  H16S16497   6.048   2.949   9.296 -1.5422 -0.5866  2.2497
  149SAPE  C21716498   6.184   2.870   9.146 -0.0768 -0.1750 -0.4947
  149SAPE  H17R16499   6.244   2.777   9.142 -0.4404 -0.3758 -1.6599
  149SAPE  H17S16500   6.244   2.961   9.129  2.7405 -1.6723  0.7910
  149SAPE  C21816501   6.065   2.862   9.051  0.1685 -0.2944  0.0678
  149SAPE  H18R16502   5.999   2.946   9.080 -0.7274 -1.1638  0.5993
  149SAPE  H18S16503   6.012   2.766   9.068  1.0006 -0.9745 -0.9992
  149SAPE  C21916504   6.113   2.893   8.912  0.6007 -0.4868 -0.1351
  149SAPE  H19R16505   6.176   2.809   8.875 -0.3459 -0.1872 -2.6233
  149SAPE  H19S16506   6.171   2.988   8.924 -0.9145  0.6613 -1.5045
  149SAPE  C22016507   5.998   2.899   8.817 -0.0517  0.5239 -0.6547
  149SAPE  H20R16508   5.937   2.991   8.831 -0.2106  0.4372 -0.7786
  149SAPE  H20S16509   5.927   2.816   8.839 -0.4897  0.7183 -1.3332
  149SAPE  H20T16510   6.030   2.901   8.711 -0.6513  1.6563 -0.8265
  149SAPE   C3316511   5.613   3.165  10.271  0.2258 -0.2388  0.0124
  149SAPE   H3X16512   5.502   3.161  10.279  0.1965 -0.8848 -0.5969
  149SAPE   H3Y16513   5.644   3.058  10.263  1.1747  0.0451 -0.2001
  149SAPE   C3416514   5.648   3.241  10.136  0.0249 -0.0203  0.5940
  149SAPE   H4X16515   5.751   3.275  10.157  0.3466 -0.6021 -0.0082
  149SAPE   H4Y16516   5.588   3.335  10.128 -1.3310 -0.9694 -1.3677
  149SAPE   C3516517   5.635   3.165  10.003 -0.0582  0.1248  0.4116
  149SAPE   H5X16518   5.531   3.128   9.991  0.3981 -1.1013  0.0651
  149SAPE   H5Y16519   5.708   3.081   9.996 -0.4173 -0.2667  1.2408
  149SAPE   C3616520   5.672   3.251   9.882 -0.3643 -0.8250  0.9610
  149SAPE   H6X16521   5.770   3.302   9.891 -0.6488 -0.1723  0.4555
  149SAPE   H6Y16522   5.592   3.329   9.873  0.9663  0.5965  1.0033
  149SAPE   C3716523   5.662   3.173   9.744 -0.6171 -0.6314  0.9391
  149SAPE   H7X16524   5.555   3.145   9.731 -0.8709  0.5696  0.3565
  149SAPE   H7Y16525   5.719   3.078   9.757 -1.1578 -0.8945  1.4353
  149SAPE   C3816526   5.711   3.258   9.625 -0.3469  0.6241  0.6027
  149SAPE   H8X16527   5.812   3.304   9.639  0.6979 -0.8645 -1.4066
  149SAPE   H8Y16528   5.635   3.339   9.624  0.6869  1.6213  0.1298
  149SAPE   C3916529   5.702   3.189   9.492  0.4860  0.8368  0.3774
  149SAPE   H9X16530   5.593   3.191   9.468  0.5428 -0.6611 -0.1157
  149SAPE   H9Y16531   5.736   3.085   9.505 -0.6403  0.2637 -0.9888
  149SAPE  C31016532   5.772   3.261   9.381 -0.1845  0.1284  0.0118
  149SAPE  H10X16533   5.803   3.186   9.305  0.5566  0.6697 -0.2300
  149SAPE  H10Y16534   5.857   3.308   9.434 -0.8505  2.6097 -0.9615
  149SAPE  C31116535   5.696   3.376   9.320 -0.0652  0.1906  0.5698
  149SAPE  H11X16536   5.654   3.443   9.397  1.1130  0.6620  0.8220
  149SAPE  H11Y16537   5.605   3.338   9.269 -1.5694  2.6957  1.2252
  149SAPE  C31216538   5.784   3.463   9.220 -0.2796 -0.0242  0.7549
  149SAPE  H12X16539   5.872   3.503   9.274  0.0383 -0.2117  0.3812
  149SAPE  H12Y16540   5.724   3.552   9.191  1.9735  0.9869 -1.0557
  149SAPE  C31316541   5.834   3.381   9.095 -0.3055  0.0872  0.3957
  149SAPE  H13X16542   5.753   3.339   9.031 -1.0091  1.9745 -0.0402
  149SAPE  H13Y16543   5.905   3.302   9.126 -0.1765 -0.0978 -0.3473
  149SAPE  C31416544   5.915   3.463   8.995 -0.0621 -0.1763 -0.0085
  149SAPE  H14X16545   6.002   3.509   9.047 -0.7540 -0.4594  1.4529
  149SAPE  H14Y16546   5.855   3.550   8.961  1.2203  0.9828  0.6097
  149SAPE  C31516547   5.969   3.389   8.867 -0.2089 -0.3833 -0.3472
  149SAPE  H15X16548   6.044   3.315   8.903 -0.0043 -0.0239 -0.0301
  149SAPE  H15Y16549   6.019   3.466   8.804  1.1327 -1.0639 -0.1480
  149SAPE  C31616550   5.870   3.308   8.777 -0.9686  0.3293  0.0542
  149SAPE  H16X16551   5.793   3.379   8.742 -0.9851 -1.0293 -3.0399
  149SAPE  H16Y16552   5.817   3.220   8.820  0.8817  0.1414  2.1369
  149SAPE  C31716553   5.940   3.265   8.643 -0.3848  0.7512 -0.1954
  149SAPE  H17X16554   6.004   3.177   8.665 -0.3270  1.2498  1.8406
  149SAPE  H17Y16555   6.005   3.351   8.617 -1.8733  1.8917 -0.2581
  149SAPE  C31816556   5.851   3.233   8.527  0.4685 -0.0349  0.5306
  149SAPE  H18X16557   5.777   3.153   8.550  1.9454 -1.7795 -0.4515
  149SAPE  H18Y16558   5.900   3.190   8.437 -2.7154 -1.2116 -0.7851
  149SAPE  H18Z16559   5.805   3.324   8.483  0.7868 -0.3287 -0.4474
  150SAPE     N16560   0.860   3.150  11.056  0.0977 -0.2917  0.2443
  150SAPE   HN116561   0.899   3.070  11.110  1.0381 -1.4184 -1.9684
  150SAPE   HN216562   0.932   3.208  11.009 -1.8880  1.7560 -0.4696
  150SAPE   HN316563   0.801   3.214  11.113 -1.9887 -1.4779 -0.4844
  150SAPE   C1216564   0.767   3.082  10.957  0.2407 -0.2116 -0.9025
  150SAPE  H12A16565   0.687   3.035  11.018  0.9235 -0.8981 -0.5163
  150SAPE  H12B16566   0.828   3.012  10.896 -0.8911 -0.1687 -2.1208
  150SAPE   C1116567   0.703   3.191  10.871 -0.3157 -0.0974 -0.0544
  150SAPE  H11A16568   0.612   3.158  10.816 -0.0050  1.1437 -1.3721
  150SAPE  H11B16569   0.776   3.223  10.794 -1.4101  1.3056 -0.5409
  150SAPE     P16570   0.655   3.451  10.902 -0.3752  0.1503  0.6243
  150SAPE   O1316571   0.576   3.535  10.990  0.2277  0.0515  0.1549
  150SAPE   O1416572   0.786   3.503  10.860 -0.8332  0.3305 -0.0615
  150SAPE   O1216573   0.667   3.302  10.955  0.5073 -0.1410  0.3248
  150SAPE   O1116574   0.567   3.436  10.771 -0.2371  0.1810 -0.0955
  150SAPE    C116575   0.429   3.401  10.775 -0.4684 -0.0827  0.4134
  150SAPE    HA16576   0.413   3.306  10.830  1.8821 -0.3655  0.7414
  150SAPE    HB16577   0.373   3.485  10.821 -0.0298  0.2584  0.3384
  150SAPE    C216578   0.375   3.364  10.629 -0.9513  0.1045  0.0154
  150SAPE    HS16579   0.275   3.318  10.644 -0.9764  0.4397  0.9597
  150SAPE   O2116580   0.464   3.283  10.560  0.5333  0.3218  0.7773
  150SAPE   C2116581   0.446   3.149  10.568  0.0982 -0.5202  0.5543
  150SAPE   O2216582   0.363   3.095  10.638 -0.3294  0.1036 -0.3167
  150SAPE   C2216583   0.545   3.078  10.484  0.0633  1.0174  0.1907
  150SAPE   H2R16584   0.648   3.108  10.511 -0.4772  1.7774  1.4909
  150SAPE   H2S16585   0.532   2.972  10.517  1.8178  0.4801 -0.6861
  150SAPE    C316586   0.357   3.500  10.550  0.4474  0.3745 -0.3138
  150SAPE    HX16587   0.462   3.526  10.524  0.2573  0.1718 -1.3108
  150SAPE    HY16588   0.303   3.578  10.608 -1.6205 -1.3083  0.1286
  150SAPE   O3116589   0.282   3.482  10.428 -0.0250 -0.3229  0.1016
  150SAPE   C3116590   0.347   3.469  10.312 -0.3954 -0.1186  0.0142
  150SAPE   O3216591   0.468   3.473  10.295  0.2730 -0.1189  0.9340
  150SAPE   C3216592   0.242   3.455  10.206  0.0759  0.0714  0.3615
  150SAPE   H2X16593   0.155   3.523  10.219 -1.0849 -1.9681  5.6415
  150SAPE   H2Y16594   0.201   3.352  10.213  1.0530 -0.3468  0.1148
  150SAPE   C2316595   0.504   3.095  10.340  0.7314 -0.2641  0.9557
  150SAPE   H3R16596   0.495   3.205  10.322 -1.7628 -0.3669  1.2025
  150SAPE   H3S16597   0.404   3.051  10.325  1.3402 -0.8175 -2.1271
  150SAPE   C2416598   0.600   3.036  10.239 -0.0903  0.3835  0.4360
  150SAPE   H4R16599   0.562   3.072  10.142 -1.5229 -2.7498 -0.2893
  150SAPE   H4S16600   0.592   2.925  10.244 -3.6112  0.5165  0.3923
  150SAPE   C2516601   0.742   3.092  10.259 -0.1984 -0.7435 -0.3261
  150SAPE   H5R16602   0.808   3.046  10.335  0.5488  1.5737  0.5015
  150SAPE   C2616603   0.790   3.202  10.204 -0.3190 -0.0767  0.6093
  150SAPE   H6R16604   0.897   3.223  10.221 -0.5162  0.0974  1.6439
  150SAPE   C2716605   0.721   3.296  10.111  0.0104 -0.4980 -0.1608
  150SAPE   H7R16606   0.710   3.391  10.169  0.4207 -0.9897  0.7246
  150SAPE   H7S16607   0.611   3.281  10.099  0.2117 -2.2993  0.0816
  150SAPE   C2816608   0.786   3.306   9.977 -0.1155 -0.5351 -0.3232
  150SAPE   H8R16609   0.868   3.379   9.973 -0.6107 -0.0062 -1.2189
  150SAPE   C2916610   0.751   3.241   9.869 -0.5656  0.6327  0.6716
  150SAPE   H9R16611   0.809   3.261   9.778 -1.6831 -0.6161 -0.3587
  150SAPE  C21016612   0.643   3.136   9.853  0.3022  0.1343 -0.0486
  150SAPE  H10R16613   0.602   3.151   9.751 -1.5666  0.3353  0.6993
  150SAPE  H10S16614   0.560   3.144   9.927 -0.5036 -1.1346 -0.7890
  150SAPE  C21116615   0.705   3.001   9.860  0.6822  0.3758  0.4928
  150SAPE  H11R16616   0.735   2.960   9.958  0.5320 -1.5040 -0.2028
  150SAPE  C21216617   0.729   2.908   9.767 -0.5975 -0.0478 -0.6820
  150SAPE  H12R16618   0.747   2.806   9.802  0.4579 -0.9042 -3.4754
  150SAPE  C21316619   0.719   2.926   9.615 -0.2730  0.2687 -0.2671
  150SAPE  H13R16620   0.617   2.957   9.584 -0.4571 -1.6213 -1.6804
  150SAPE  H13S16621   0.726   2.823   9.575 -1.9348  0.1086 -0.2071
  150SAPE  C21416622   0.823   3.022   9.555 -0.0252  0.6328  0.0755
  150SAPE  H14R16623   0.917   3.035   9.610  0.1831  0.7366 -0.3023
  150SAPE  C21516624   0.819   3.086   9.441 -0.5689  0.7523 -0.4026
  150SAPE  H15R16625   0.903   3.155   9.424 -0.2817  0.3637 -0.5817
  150SAPE  C21616626   0.707   3.102   9.338 -0.0388  0.3107 -0.0086
  150SAPE  H16R16627   0.659   3.202   9.330 -2.5461 -0.6799  1.4658
  150SAPE  H16S16628   0.618   3.047   9.376 -0.1018 -1.6523 -2.6628
  150SAPE  C21716629   0.739   3.059   9.194 -0.3104 -0.4385 -0.0322
  150SAPE  H17R16630   0.757   2.950   9.208 -0.5395 -0.5553 -0.5740
  150SAPE  H17S16631   0.829   3.117   9.163 -0.7347 -1.1822 -3.0258
  150SAPE  C21816632   0.624   3.088   9.099 -0.0502 -0.4931 -0.1665
  150SAPE  H18R16633   0.604   3.198   9.099 -2.3829 -0.8541 -0.9687
  150SAPE  H18S16634   0.540   3.035   9.149  1.1696 -1.5732  0.7977
  150SAPE  C21916635   0.652   3.051   8.957 -0.0075  0.3451  0.0297
  150SAPE  H19R16636   0.676   2.943   8.960 -2.1249 -0.2106 -0.9449
  150SAPE  H19S16637   0.742   3.097   8.911 -0.2464  1.2304  0.4286
  150SAPE  C22016638   0.545   3.072   8.852 -0.0706  0.6736 -0.1567
  150SAPE  H20R16639   0.582   3.056   8.748  0.9443  2.1781 -0.0518
  150SAPE  H20S16640   0.510   3.177   8.854 -0.4014  0.5487  1.1160
  150SAPE  H20T16641   0.450   3.018   8.873 -0.1267  1.3999  1.6192
  150SAPE   C3316642   0.291   3.476  10.064 -0.7286 -0.2814 -0.1526
  150SAPE   H3X16643   0.371   3.406  10.029 -0.3559  0.6326 -1.1712
  150SAPE   H3Y16644   0.339   3.575  10.052 -1.9428  0.6434  1.9936
  150SAPE   C3416645   0.172   3.472   9.971  0.1819  0.0674 -0.1699
  150SAPE   H4X16646   0.109   3.562   9.989  1.3083  1.2559 -1.8877
  150SAPE   H4Y16647   0.114   3.381   9.998  0.6380 -0.3128 -0.4708
  150SAPE   C3516648   0.203   3.461   9.818  0.0625  0.0910 -0.1179
  150SAPE   H5X16649   0.267   3.550   9.795  0.3334  0.0762  0.5692
  150SAPE   H5Y16650   0.115   3.478   9.752 -2.0777 -1.0424  2.2817
  150SAPE   C3616651   0.288   3.341   9.769  0.4840  0.1953 -0.0453
  150SAPE   H6X16652   0.245   3.252   9.820 -0.6124  1.2180  0.8802
  150SAPE   H6Y16653   0.390   3.356   9.811 -0.3231  1.3219  1.6625
  150SAPE   C3716654   0.293   3.323   9.613 -0.5028  0.2493  0.6203
  150SAPE   H7X16655   0.388   3.363   9.573 -0.6245 -1.0299 -1.0547
  150SAPE   H7Y16656   0.200   3.373   9.576 -1.2967 -1.0094  0.8685
  150SAPE   C3816657   0.297   3.175   9.576  0.3605 -0.1630 -0.1305
  150SAPE   H8X16658   0.199   3.132   9.605  0.3463  0.5440  0.9367
  150SAPE   H8Y16659   0.378   3.118   9.626  0.1021 -0.6635 -0.2766
  150SAPE   C3916660   0.322   3.166   9.423 -0.7478  0.7433  0.1913
  150SAPE   H9X16661   0.342   3.058   9.402  1.5028  1.3580 -1.2139
  150SAPE   H9Y16662   0.404   3.232   9.388 -1.6285  1.4316 -0.6460
  150SAPE  C31016663   0.203   3.210   9.334 -0.0006 -0.2945 -0.5188
  150SAPE  H10X16664   0.179   3.319   9.336  0.4285 -0.0531 -3.3095
  150SAPE  H10Y16665   0.110   3.161   9.370 -0.7654  0.9635 -0.6875
  150SAPE  C31116666   0.220   3.156   9.189  0.0627 -0.3066 -0.1717
  150SAPE  H11X16667   0.209   3.046   9.184  1.2456 -0.4884  0.6177
  150SAPE  H11Y16668   0.313   3.196   9.143 -0.8129 -0.2439 -1.9544
  150SAPE  C31216669   0.117   3.212   9.098  0.9168 -0.9335 -0.0568
  150SAPE  H12X16670   0.130   3.320   9.079 -1.0014 -0.9910 -1.9471
  150SAPE  H12Y16671   0.022   3.217   9.155  1.4019  0.4289  0.6867
  150SAPE  C31316672   0.101   3.139   8.965 -0.1250 -0.5254 -0.5285
  150SAPE  H13X16673   0.190   3.073   8.968  0.8753  0.8365  1.5374
  150SAPE  H13Y16674   0.122   3.220   8.891  1.8854  0.7591  1.3311
  150SAPE  C31416675  -0.029   3.059   8.938 -0.5781 -0.3537  0.3718
  150SAPE  H14X16676  -0.119   3.124   8.950  1.0767  1.9901  0.9141
  150SAPE  H14Y16677  -0.045   2.977   9.011  3.4212 -1.2133  0.5254
  150SAPE  C31516678  -0.042   3.012   8.797 -0.3509 -0.4180  0.1885
  150SAPE  H15X16679   0.046   2.944   8.789 -0.4812 -0.5587 -0.0625
  150SAPE  H15Y16680  -0.031   3.093   8.722  1.8530  1.3393  2.2344
  150SAPE  C31616681  -0.171   2.938   8.756 -0.8955  0.3517 -0.1444
  150SAPE  H16X16682  -0.264   2.997   8.770  0.2013  1.7526  1.6772
  150SAPE  H16Y16683  -0.180   2.847   8.820 -1.3167 -0.1924 -0.9727
  150SAPE  C31716684  -0.168   2.890   8.607  0.5058 -0.0366 -0.3321
  150SAPE  H17X16685  -0.094   2.809   8.591  2.2157  2.0562 -4.2415
  150SAPE  H17Y16686  -0.126   2.972   8.545 -0.1320 -1.0273 -2.1251
  150SAPE  C31816687  -0.308   2.862   8.553  0.9281  0.5240 -0.2427
  150SAPE  H18X16688  -0.364   2.956   8.571 -0.8836 -0.5546 -0.0115
  150SAPE  H18Y16689  -0.356   2.784   8.617 -0.1572  1.0871 -0.3578
  150SAPE  H18Z16690  -0.303   2.821   8.450  2.6141 -0.6394  0.2383
  151SAPE     N16691   5.559   6.723  10.748 -0.1118 -0.4788 -0.0939
  151SAPE   HN116692   5.494   6.645  10.729 -1.0640  0.5263 -1.0910
  151SAPE   HN216693   5.599   6.706  10.843 -1.8943 -1.7379  0.4814
  151SAPE   HN316694   5.504   6.811  10.748  0.0102 -0.3867  0.7496
  151SAPE   C1216695   5.662   6.717  10.643  0.4538 -0.9185 -0.0489
  151SAPE  H12A16696   5.745   6.662  10.694 -0.1595 -0.5597  1.3768
  151SAPE  H12B16697   5.691   6.824  10.636 -1.3127 -0.2880  1.4885
  151SAPE   C1116698   5.609   6.674  10.510  0.0602 -0.4735  0.4628
  151SAPE  H11A16699   5.668   6.705  10.421 -1.9653  2.4239  0.0042
  151SAPE  H11B16700   5.526   6.746  10.493  0.3400 -0.0902  0.7072
  151SAPE     P16701   5.648   6.422  10.460  0.2609 -0.3007  0.6113
  151SAPE   O1316702   5.785   6.470  10.490  0.0655 -0.1038 -0.2061
  151SAPE   O1416703   5.592   6.303  10.525  0.2754  0.2876 -0.4911
  151SAPE   O1216704   5.559   6.540  10.509 -0.1002  0.4894 -0.6738
  151SAPE   O1116705   5.613   6.414  10.309  0.3878 -0.3079 -1.0633
  151SAPE    C116706   5.515   6.490  10.236 -0.0926  0.4365 -0.1087
  151SAPE    HA16707   5.414   6.492  10.284 -0.6391  1.8670 -1.2132
  151SAPE    HB16708   5.545   6.596  10.218 -0.9214  0.7114  0.0310
  151SAPE    C216709   5.500   6.420  10.100  0.2256  0.3827  0.1965
  151SAPE    HS16710   5.410   6.463  10.051 -0.8604 -0.8638  1.0420
  151SAPE   O2116711   5.489   6.282  10.119 -0.1310  0.0461  0.1677
  151SAPE   C2116712   5.375   6.225  10.142 -0.8021 -0.1495 -0.5580
  151SAPE   O2216713   5.268   6.275  10.149 -0.1841 -0.4881 -0.4652
  151SAPE   C2216714   5.405   6.073  10.162  0.2007 -0.1585 -0.3727
  151SAPE   H2R16715   5.462   6.047  10.071 -2.7509 -0.1930 -2.3600
  151SAPE   H2S16716   5.471   6.050  10.248 -0.8895  0.0592  0.5494
  151SAPE    C316717   5.619   6.454  10.011 -0.4559 -0.2784 -0.8744
  151SAPE    HX16718   5.717   6.428  10.057 -1.4944  0.6892  2.1579
  151SAPE    HY16719   5.608   6.563   9.994 -0.8675 -0.2140 -0.2560
  151SAPE   O3116720   5.603   6.375   9.887  0.5427  0.3039 -0.5365
  151SAPE   C3116721   5.661   6.264   9.874 -0.3405  0.5213  0.6821
  151SAPE   O3216722   5.730   6.203   9.953  0.0858 -0.1567  0.1363
  151SAPE   C3216723   5.639   6.215   9.725  0.2468 -0.3522 -0.1170
  151SAPE   H2X16724   5.607   6.301   9.662  0.6767 -0.9083 -1.1013
  151SAPE   H2Y16725   5.560   6.137   9.719 -0.3616  0.0754  1.5670
  151SAPE   C2316726   5.275   5.985  10.175 -0.5435  0.3225  0.5479
  151SAPE   H3R16727   5.213   6.037  10.251 -0.5434  0.0358  0.7460
  151SAPE   H3S16728   5.301   5.882  10.209  2.2229  1.2654  1.5883
  151SAPE   C2416729   5.209   5.948  10.039  1.0030 -0.6194 -0.0339
  151SAPE   H4R16730   5.127   5.874  10.048 -1.8115  1.8572 -2.7385
  151SAPE   H4S16731   5.287   5.900   9.976  0.1825 -0.9211 -0.8533
  151SAPE   C2516732   5.137   6.060   9.970  0.3096 -0.2635  0.0852
  151SAPE   H5R16733   5.069   6.119  10.033 -0.2152 -0.1011 -0.6259
  151SAPE   C2616734   5.139   6.096   9.841 -0.9978 -0.1432  0.5830
  151SAPE   H6R16735   5.090   6.192   9.821 -1.8287 -0.3253  1.6430
  151SAPE   C2716736   5.209   6.042   9.715 -0.8755  0.1444 -0.1987
  151SAPE   H7R16737   5.248   5.944   9.750  1.8912  1.3065  0.2572
  151SAPE   H7S16738   5.297   6.104   9.688  0.4683 -0.8187  1.7411
  151SAPE   C2816739   5.113   6.010   9.600  0.4623  0.0970  0.8680
  151SAPE   H8R16740   5.009   5.985   9.623  0.9655 -1.4713  1.5676
  151SAPE   C2916741   5.142   6.007   9.471 -0.6295 -0.6040 -0.0450
  151SAPE   H9R16742   5.060   5.972   9.406  1.0124 -0.1654 -2.5192
  151SAPE  C21016743   5.278   6.036   9.401  1.3327  0.0616  0.3267
  151SAPE  H10R16744   5.338   6.102   9.467 -0.2134 -1.5061  3.4986
  151SAPE  H10S16745   5.267   6.081   9.300  4.1312  0.2241 -0.0007
  151SAPE  C21116746   5.354   5.903   9.396  0.6816 -0.2504 -0.3112
  151SAPE  H11R16747   5.400   5.875   9.491 -1.1949 -1.3082  0.3276
  151SAPE  C21216748   5.356   5.817   9.293  0.7949  0.3093  0.0185
  151SAPE  H12R16749   5.413   5.723   9.297  2.2840  0.8867 -3.7145
  151SAPE  C21316750   5.293   5.833   9.154  0.6770 -0.0529 -0.1500
  151SAPE  H13R16751   5.289   5.939   9.123  1.4934 -0.0966 -0.4201
  151SAPE  H13S16752   5.189   5.793   9.157  0.8308 -0.5758 -1.3829
  151SAPE  C21416753   5.370   5.762   9.051 -1.1183 -0.3481 -0.4509
  151SAPE  H14R16754   5.411   5.665   9.079 -0.6305 -0.5914 -1.9095
  151SAPE  C21516755   5.387   5.796   8.917 -0.8202 -0.2179  0.3199
  151SAPE  H15R16756   5.445   5.727   8.854 -2.1039  0.2573 -1.4822
  151SAPE  C21616757   5.346   5.926   8.850 -0.0897  0.3402  0.5869
  151SAPE  H16R16758   5.319   5.989   8.938  1.7207  0.2507  1.2437
  151SAPE  H16S16759   5.254   5.922   8.788 -0.4667 -0.3865  1.1691
  151SAPE  C21716760   5.460   6.006   8.776  0.2140 -0.3962 -0.7028
  151SAPE  H17R16761   5.442   6.114   8.795 -0.2438 -0.8591  1.9365
  151SAPE  H17S16762   5.445   6.001   8.667  2.0148 -0.5277 -0.9775
  151SAPE  C21816763   5.612   5.973   8.795 -0.1048 -0.0193  0.7277
  151SAPE  H18R16764   5.614   5.873   8.746  0.9060  0.6123 -0.5619
  151SAPE  H18S16765   5.637   5.955   8.902 -2.6926 -2.1330  1.0788
  151SAPE  C21916766   5.715   6.058   8.723  1.0253  0.4728  0.0935
  151SAPE  H19R16767   5.683   6.052   8.617  1.6668 -2.1608 -0.0331
  151SAPE  H19S16768   5.812   6.005   8.733 -1.1221 -4.2389 -1.1447
  151SAPE  C22016769   5.728   6.199   8.781 -0.2649 -0.1881 -0.6398
  151SAPE  H20R16770   5.771   6.273   8.711  0.4151  0.7042  0.6959
  151SAPE  H20S16771   5.787   6.195   8.875  1.2183  0.8274 -1.5022
  151SAPE  H20T16772   5.626   6.235   8.808 -0.0918 -0.6961  0.8372
  151SAPE   C3316773   5.766   6.166   9.663  0.3157 -0.3921  0.3228
  151SAPE   H3X16774   5.812   6.099   9.739  1.9079  1.6852  1.2910
  151SAPE   H3Y16775   5.829   6.258   9.655 -0.8115  0.3830  0.1996
  151SAPE   C3416776   5.739   6.085   9.540  0.1995  0.3352  0.3339
  151SAPE   H4X16777   5.662   6.006   9.550 -1.4315  1.6232 -1.3033
  151SAPE   H4Y16778   5.825   6.027   9.501 -0.2056  0.7775 -1.3018
  151SAPE   C3516779   5.673   6.163   9.424 -0.2170 -0.0806 -0.3762
  151SAPE   H5X16780   5.568   6.185   9.450  0.0300 -0.3610  0.9412
  151SAPE   H5Y16781   5.668   6.091   9.339 -1.7289 -1.4739  0.8168
  151SAPE   C3616782   5.746   6.284   9.364 -0.4395  0.0121 -1.1721
  151SAPE   H6X16783   5.847   6.254   9.330 -0.5831 -2.1063  0.1210
  151SAPE   H6Y16784   5.753   6.358   9.446  1.2127 -0.3079 -0.9957
  151SAPE   C3716785   5.680   6.341   9.235  0.5649  0.0060 -0.6338
  151SAPE   H7X16786   5.575   6.364   9.262  0.6115 -0.5633  0.0651
  151SAPE   H7Y16787   5.689   6.262   9.158  0.8846 -1.3593  0.7462
  151SAPE   C3816788   5.743   6.474   9.183  0.0823  0.4907 -0.2860
  151SAPE   H8X16789   5.849   6.442   9.169  0.4230  1.1358  0.6860
  151SAPE   H8Y16790   5.758   6.548   9.264  0.4580 -0.2003  0.2861
  151SAPE   C3916791   5.680   6.537   9.066 -0.2251 -0.8241  0.0557
  151SAPE   H9X16792   5.622   6.626   9.101  0.5654 -0.3999  0.3179
  151SAPE   H9Y16793   5.611   6.463   9.021 -1.6135 -0.2663  1.1767
  151SAPE  C31016794   5.787   6.581   8.960 -0.1301  0.0593  0.3280
  151SAPE  H10X16795   5.841   6.487   8.936 -1.3236 -0.4521 -0.4751
  151SAPE  H10Y16796   5.865   6.636   9.016  1.3267 -1.9770  0.4114
  151SAPE  C31116797   5.725   6.667   8.851  0.0542 -0.0114  0.4738
  151SAPE  H11X16798   5.746   6.776   8.860  1.7988 -0.1925 -0.9311
  151SAPE  H11Y16799   5.614   6.655   8.858 -0.3658  0.7483 -3.0777
  151SAPE  C31216800   5.772   6.619   8.718  0.5962 -0.2032 -0.2956
  151SAPE  H12X16801   5.726   6.684   8.641  2.9922  1.8384 -0.1578
  151SAPE  H12Y16802   5.732   6.520   8.690  0.0619  0.4051 -1.8097
  151SAPE  C31316803   5.926   6.633   8.697  0.1002 -0.5344 -0.5317
  151SAPE  H13X16804   5.977   6.557   8.758  2.3592  1.9135  0.8290
  151SAPE  H13Y16805   5.951   6.735   8.735 -1.1765  0.3304 -1.8740
  151SAPE  C31416806   5.965   6.611   8.554 -0.3995  0.0074  0.2545
  151SAPE  H14X16807   5.938   6.690   8.481 -1.3692  1.4460  2.0861
  151SAPE  H14Y16808   5.914   6.521   8.515 -0.6500  0.0016  0.5923
  151SAPE  C31516809   6.117   6.600   8.536 -0.4556 -0.0878  0.7192
  151SAPE  H15X16810   6.156   6.539   8.620  2.9308  1.0150  0.0978
  151SAPE  H15Y16811   6.151   6.703   8.559 -1.4922  0.6432 -0.8229
  151SAPE  C31616812   6.163   6.561   8.402  0.1754  0.1169  0.2393
  151SAPE  H16X16813   6.266   6.603   8.400  0.0273  0.4734 -0.2915
  151SAPE  H16Y16814   6.111   6.622   8.325  1.0053  2.8145  1.6867
  151SAPE  C31716815   6.160   6.408   8.390 -0.5205 -0.5313  0.2844
  151SAPE  H17X16816   6.179   6.388   8.283 -1.2578  3.7214 -0.8191
  151SAPE  H17Y16817   6.055   6.377   8.409 -1.9555  2.0599 -2.5347
  151SAPE  C31816818   6.254   6.329   8.483  0.0417 -0.4744  0.0818
  151SAPE  H18X16819   6.357   6.346   8.444 -0.4811  0.0802 -1.1272
  151SAPE  H18Y16820   6.227   6.221   8.487 -0.4872 -0.3003  2.2760
  151SAPE  H18Z16821   6.261   6.364   8.588 -0.6995 -2.5628  0.8824
  152SAPE     N16822   0.017   0.331  10.722  0.2316 -0.7057  0.2798
  152SAPE   HN116823  -0.015   0.291  10.632 -0.2671  0.2404  0.0209
  152SAPE   HN216824   0.078   0.408  10.688  0.5650 -1.2962 -0.4699
  152SAPE   HN316825   0.078   0.266  10.776  2.0668  0.3650 -0.4282
  152SAPE   C1216826  -0.097   0.390  10.790 -0.0161  0.5754 -0.0921
  152SAPE  H12A16827  -0.071   0.443  10.885 -1.8404 -2.1992  2.1391
  152SAPE  H12B16828  -0.173   0.313  10.813  0.1978  0.6526  0.9546
  152SAPE   C1116829  -0.160   0.499  10.699  0.0872  0.2176  0.3886
  152SAPE  H11A16830  -0.247   0.540  10.753  1.3411  3.4900  0.1646
  152SAPE  H11B16831  -0.191   0.452  10.603 -0.3054  0.5096  0.3704
  152SAPE     P16832  -0.073   0.703  10.552 -0.0405 -0.2163  0.1208
  152SAPE   O1316833  -0.184   0.791  10.583 -0.1511 -0.0529  0.0032
  152SAPE   O1416834   0.058   0.770  10.536 -0.0456 -0.2393 -0.5002
  152SAPE   O1216835  -0.065   0.599  10.671 -0.0999  0.2344  0.3290
  152SAPE   O1116836  -0.103   0.622  10.422  0.0729 -0.1489  0.2002
  152SAPE    C116837  -0.007   0.529  10.379 -0.6018  0.5044 -0.2164
  152SAPE    HA16838   0.096   0.570  10.388  0.1474 -1.0321 -1.3693
  152SAPE    HB16839  -0.014   0.435  10.438 -0.6463  0.3735 -0.4280
  152SAPE    C216840  -0.021   0.486  10.227 -0.1563  0.0589  0.1789
  152SAPE    HS16841   0.051   0.404  10.207  2.3146  1.4161  2.7240
  152SAPE   O2116842  -0.007   0.596  10.136 -0.1395  0.0446  0.6123
  152SAPE   C2116843   0.105   0.656  10.124 -0.2712 -0.3068  1.0604
  152SAPE   O2216844   0.218   0.618  10.158  0.1654 -0.4277  0.2757
  152SAPE   C2216845   0.087   0.791  10.051 -0.1292 -0.2697  0.0819
  152SAPE   H2R16846  -0.001   0.843  10.095  0.4317  1.1557 -0.4562
  152SAPE   H2S16847   0.182   0.844  10.067 -0.4107  0.8049 -1.6194
  152SAPE    C316848  -0.151   0.396  10.200  0.0508  0.0081  0.3023
  152SAPE    HX16849  -0.242   0.431  10.253  0.5890 -1.0920  2.0199
  152SAPE    HY16850  -0.145   0.293  10.240 -2.1388 -0.3881 -0.2580
  152SAPE   O3116851  -0.170   0.381  10.054  0.4508 -0.2567  0.2862
  152SAPE   C3116852  -0.254   0.468  10.001 -0.1098  0.4597  0.1693
  152SAPE   O3216853  -0.333   0.541  10.060 -0.0039 -0.3730 -0.8618
  152SAPE   C3216854  -0.249   0.453   9.847 -1.0971  0.4622 -0.6109
  152SAPE   H2X16855  -0.258   0.346   9.816 -1.4564 -0.6035  2.7996
  152SAPE   H2Y16856  -0.150   0.491   9.815 -1.7473  2.2534 -0.5931
  152SAPE   C2316857   0.069   0.770   9.900  0.2450  0.4477  0.5435
  152SAPE   H3R16858  -0.037   0.742   9.884  0.3348  0.1334  0.4990
  152SAPE   H3S16859   0.143   0.692   9.872  1.6596  1.7861  0.3580
  152SAPE   C2416860   0.094   0.906   9.826 -0.2899  0.2745  0.2377
  152SAPE   H4R16861   0.055   0.984   9.895 -0.0549 -0.7581  1.5863
  152SAPE   H4S16862   0.033   0.905   9.733 -1.4444 -2.5237  0.9407
  152SAPE   C2516863   0.242   0.941   9.797 -0.0176 -0.5282  0.5463
  152SAPE   H5R16864   0.289   0.994   9.882  0.7358  0.9932 -0.7603
  152SAPE   C2616865   0.317   0.921   9.685  0.3917  0.0139  0.2650
  152SAPE   H6R16866   0.424   0.946   9.692  0.4983 -0.5067  0.5374
  152SAPE   C2716867   0.269   0.851   9.557  0.5763 -0.5034 -0.4153
  152SAPE   H7R16868   0.360   0.823   9.499  0.0515 -1.5213 -0.7645
  152SAPE   H7S16869   0.212   0.923   9.494 -1.5764 -2.0122 -0.3118
  152SAPE   C2816870   0.182   0.727   9.575  0.0917 -0.0108 -0.1770
  152SAPE   H8R16871   0.193   0.683   9.675  0.5113 -0.2354 -0.3189
  152SAPE   C2916872   0.094   0.672   9.487  0.0556  0.2816  0.8476
  152SAPE   H9R16873   0.039   0.579   9.510 -1.2666  0.5860 -0.8834
  152SAPE  C21016874   0.064   0.724   9.347  0.6811 -0.5355  0.2080
  152SAPE  H10R16875   0.069   0.636   9.279 -0.9997 -0.2630 -0.3155
  152SAPE  H10S16876   0.139   0.796   9.308 -1.1850  0.8376 -1.0451
  152SAPE  C21116877  -0.081   0.784   9.338  0.3635  0.1569  0.2320
  152SAPE  H11R16878  -0.153   0.746   9.412  0.7787  0.3259  0.7358
  152SAPE  C21216879  -0.108   0.861   9.227  0.3379  0.5387  0.5521
  152SAPE  H12R16880  -0.210   0.897   9.209  0.2058  0.8820  1.8474
  152SAPE  C21316881  -0.009   0.898   9.123  0.1779 -0.0597 -0.3682
  152SAPE  H13R16882   0.038   0.806   9.083  0.9000  0.8535 -1.6986
  152SAPE  H13S16883   0.077   0.956   9.164 -0.3745 -0.4899  1.4731
  152SAPE  C21416884  -0.081   0.955   9.000  0.1934  0.0950 -0.4240
  152SAPE  H14R16885  -0.174   0.903   8.972 -1.0497  2.6166 -1.3401
  152SAPE  C21516886  -0.045   1.057   8.923 -0.4476 -0.4719 -0.2865
  152SAPE  H15R16887  -0.093   1.081   8.827  0.6711  1.6792 -0.3557
  152SAPE  C21616888   0.087   1.134   8.942 -0.7670 -0.0665 -1.0897
  152SAPE  H16R16889   0.172   1.073   8.907  0.2584  1.6872 -1.7825
  152SAPE  H16S16890   0.108   1.152   9.050  2.1820 -1.3233 -1.3618
  152SAPE  C21716891   0.096   1.272   8.868  0.0923 -0.1378 -0.8050
  152SAPE  H17R16892   0.073   1.255   8.761 -2.5400 -0.6866 -0.2394
  152SAPE  H17S16893   0.200   1.310   8.872 -0.5827  1.7689  0.0160
  152SAPE  C21816894  -0.000   1.386   8.923  0.0213  0.0656  1.0452
  152SAPE  H18R16895   0.037   1.400   9.027  1.0876 -0.8751  0.8128
  152SAPE  H18S16896  -0.109   1.365   8.929  0.4002 -2.2699  0.6675
  152SAPE  C21916897   0.023   1.510   8.832  0.0172 -1.1035 -0.8117
  152SAPE  H19R16898   0.126   1.512   8.791  0.9185 -0.8227  1.3366
  152SAPE  H19S16899   0.006   1.602   8.892  1.8085 -0.5492 -1.1060
  152SAPE  C22016900  -0.081   1.516   8.720  0.4384 -0.0916 -0.1014
  152SAPE  H20R16901  -0.181   1.510   8.769  1.3003 -0.7464  1.6973
  152SAPE  H20S16902  -0.064   1.432   8.649  2.0467 -1.3063  1.6302
  152SAPE  H20T16903  -0.074   1.610   8.662 -0.4870 -0.9108 -1.5899
  152SAPE   C3316904  -0.367   0.532   9.778 -0.0292 -0.2229  0.2059
  152SAPE   H3X16905  -0.353   0.638   9.810 -0.4343  0.2806 -1.2183
  152SAPE   H3Y16906  -0.470   0.494   9.793 -0.2732  1.3000  3.1670
  152SAPE   C3416907  -0.345   0.517   9.627 -0.1245  0.1875 -0.3573
  152SAPE   H4X16908  -0.349   0.409   9.598 -1.4593  0.1874 -0.2201
  152SAPE   H4Y16909  -0.248   0.559   9.593 -0.2168 -0.7228 -1.8634
  152SAPE   C3516910  -0.448   0.592   9.540  0.1757 -0.6176  0.3145
  152SAPE   H5X16911  -0.436   0.698   9.572  1.8426 -1.1300  1.4855
  152SAPE   H5Y16912  -0.554   0.571   9.564  0.1433 -3.6900 -1.9370
  152SAPE   C3616913  -0.413   0.569   9.389 -0.2534  0.3228  0.1686
  152SAPE   H6X16914  -0.429   0.461   9.370  1.1068  0.0644  0.3534
  152SAPE   H6Y16915  -0.303   0.588   9.383 -0.1123  1.1433  3.4471
  152SAPE   C3716916  -0.475   0.651   9.280 -0.5739  0.2747 -0.0276
  152SAPE   H7X16917  -0.470   0.759   9.304 -0.8009  0.3126 -0.1491
  152SAPE   H7Y16918  -0.581   0.619   9.286 -0.4328  0.0656  1.9908
  152SAPE   C3816919  -0.419   0.615   9.144  0.0418 -0.0938 -0.7390
  152SAPE   H8X16920  -0.421   0.505   9.135 -0.2292 -0.5581  3.3569
  152SAPE   H8Y16921  -0.316   0.656   9.132 -0.1305  0.1038 -1.6187
  152SAPE   C3916922  -0.496   0.682   9.027  0.3267  0.3053 -0.6067
  152SAPE   H9X16923  -0.453   0.647   8.931 -1.6632 -2.3308 -0.6553
  152SAPE   H9Y16924  -0.492   0.792   9.041  0.0014  0.1001  1.4160
  152SAPE  C31016925  -0.638   0.637   9.025 -0.4821 -0.2249  0.0479
  152SAPE  H10X16926  -0.692   0.687   9.108 -0.2944 -0.3142  0.2257
  152SAPE  H10Y16927  -0.652   0.528   9.039 -2.1911 -0.1193 -0.5518
  152SAPE  C31116928  -0.711   0.673   8.892 -0.6297 -0.1736  0.3115
  152SAPE  H11X16929  -0.657   0.638   8.801 -0.9531 -0.4725  0.2319
  152SAPE  H11Y16930  -0.722   0.784   8.888  0.7134 -0.0424 -0.3025
  152SAPE  C31216931  -0.851   0.610   8.890  0.4848 -0.0340 -0.4558
  152SAPE  H12X16932  -0.920   0.668   8.825 -0.3520  0.6810  0.9960
  152SAPE  H12Y16933  -0.891   0.618   8.994  0.7513 -0.5807 -0.3116
  152SAPE  C31316934  -0.869   0.469   8.844 -0.0587  0.2390 -0.6814
  152SAPE  H13X16935  -0.816   0.462   8.747 -0.2947 -1.0528 -0.7288
  152SAPE  H13Y16936  -0.978   0.455   8.828 -0.7538  3.7165  0.1284
  152SAPE  C31416937  -0.845   0.352   8.945 -0.1775 -0.3780 -0.5485
  152SAPE  H14X16938  -0.748   0.368   8.996 -2.0127 -0.5011  3.3492
  152SAPE  H14Y16939  -0.829   0.267   8.876  2.1332  0.4509 -1.1444
  152SAPE  C31516940  -0.963   0.326   9.042  0.3499 -0.0476  0.1523
  152SAPE  H15X16941  -1.057   0.341   8.985  0.5578  1.2784  0.1359
  152SAPE  H15Y16942  -0.958   0.407   9.117  1.8516  0.1201 -0.1018
  152SAPE  C31616943  -0.953   0.194   9.118  0.5494 -0.3050  0.6566
  152SAPE  H16X16944  -0.848   0.176   9.149  0.1836 -0.5353  1.7941
  152SAPE  H16Y16945  -0.981   0.119   9.041 -1.0023  0.5994  0.3052
  152SAPE  C31716946  -1.039   0.193   9.241  0.0336 -0.1498  0.7925
  152SAPE  H17X16947  -1.143   0.225   9.221  0.2022 -0.5665 -0.8602
  152SAPE  H17Y16948  -0.995   0.260   9.319  0.9754  1.7116 -1.2401
  152SAPE  C31816949  -1.054   0.058   9.311 -0.1954  0.8372 -0.1926
  152SAPE  H18X16950  -1.104  -0.019   9.248  0.1399  0.1315  0.3912
  152SAPE  H18Y16951  -1.108   0.077   9.406  1.5584  1.5513  0.7106
  152SAPE  H18Z16952  -0.958   0.010   9.337 -1.4931 -1.3614  0.8495
  153SAPE     N16953   5.380   0.988  10.647 -0.0949  0.2899 -0.3293
  153SAPE   HN116954   5.396   1.075  10.702 -2.8864  0.3293  0.5827
  153SAPE   HN216955   5.470   0.937  10.650 -0.0570  0.4294  1.5214
  153SAPE   HN316956   5.374   0.999  10.543 -0.1027  0.3283 -0.3257
  153SAPE   C1216957   5.269   0.892  10.692 -0.4689 -0.9348 -0.0700
  153SAPE  H12A16958   5.172   0.945  10.699 -1.6359 -3.1293  1.7748
  153SAPE  H12B16959   5.303   0.845  10.787  0.4239  2.9497  1.7137
  153SAPE   C1116960   5.272   0.767  10.596 -0.4095  0.0840  0.4572
  153SAPE  H11A16961   5.244   0.792  10.492 -0.0770 -1.9348 -0.1613
  153SAPE  H11B16962   5.180   0.713  10.628  0.0315 -1.0944 -0.2005
  153SAPE     P16963   5.399   0.530  10.566 -0.5112  0.1011  0.3458
  153SAPE   O1316964   5.518   0.475  10.636 -0.5545 -0.4638 -0.3850
  153SAPE   O1416965   5.273   0.466  10.606 -0.0071  0.1579 -0.5237
  153SAPE   O1216966   5.390   0.692  10.596 -0.1092  0.8706  1.0317
  153SAPE   O1116967   5.420   0.499  10.413  0.1663  0.2578 -0.2239
  153SAPE    C116968   5.462   0.600  10.327  0.6241  0.5907 -0.3496
  153SAPE    HA16969   5.374   0.653  10.285  0.2743  0.8342  0.6635
  153SAPE    HB16970   5.523   0.673  10.385  0.4603 -0.9250  1.8258
  153SAPE    C216971   5.529   0.544  10.201  0.9320 -0.2898 -0.1854
  153SAPE    HS16972   5.577   0.638  10.165  1.2795 -0.5492 -0.4063
  153SAPE   O2116973   5.427   0.484  10.120  0.1928 -0.4574 -0.4121
  153SAPE   C2116974   5.360   0.565  10.046  0.6237  0.3677 -0.4483
  153SAPE   O2216975   5.368   0.688  10.048 -0.3362  0.6251 -0.2966
  153SAPE   C2216976   5.272   0.475   9.957 -0.2261  0.7403 -0.2230
  153SAPE   H2R16977   5.203   0.419  10.023 -1.0105  2.8944  0.8621
  153SAPE   H2S16978   5.207   0.544   9.900 -0.0044  0.9648 -0.2061
  153SAPE    C316979   5.643   0.444  10.243 -0.1198  0.6800 -0.1602
  153SAPE    HX16980   5.592   0.361  10.298 -0.1254 -1.3648 -2.9970
  153SAPE    HY16981   5.712   0.496  10.313 -2.0515 -0.0720  2.4375
  153SAPE   O3116982   5.712   0.392  10.127 -0.3823 -0.0406 -0.3518
  153SAPE   C3116983   5.664   0.277  10.071 -0.0725  0.3751 -0.7986
  153SAPE   O3216984   5.581   0.211  10.127  0.7850 -0.3000 -0.2578
  153SAPE   C3216985   5.730   0.257   9.941 -0.3911 -0.0621 -0.2221
  153SAPE   H2X16986   5.837   0.283   9.955 -0.4532  0.5254 -0.7878
  153SAPE   H2Y16987   5.684   0.337   9.879 -0.8432 -0.7964 -0.8540
  153SAPE   C2316988   5.357   0.392   9.850  0.1405  0.0500 -0.2079
  153SAPE   H3R16989   5.279   0.357   9.779 -1.6022  1.6702  0.8249
  153SAPE   H3S16990   5.403   0.301   9.894 -1.5166 -0.2321  1.0137
  153SAPE   C2416991   5.468   0.481   9.775 -0.2458 -0.2756  0.4387
  153SAPE   H4R16992   5.514   0.411   9.702 -1.4168 -0.0710 -0.5385
  153SAPE   H4S16993   5.545   0.527   9.840 -0.9626  0.5743  0.7021
  153SAPE   C2516994   5.389   0.587   9.696 -0.1796 -0.0958 -0.4801
  153SAPE   H5R16995   5.360   0.678   9.751 -0.8934 -0.8750  0.4672
  153SAPE   C2616996   5.362   0.581   9.562  0.3420 -0.3109 -0.4942
  153SAPE   H6R16997   5.307   0.661   9.509  1.7929  1.7124  0.9173
  153SAPE   C2716998   5.391   0.460   9.469 -0.6018 -0.4124 -0.0308
  153SAPE   H7R16999   5.300   0.435   9.411 -1.2595  0.9357  0.3877
  153SAPE   H7S17000   5.395   0.372   9.538  0.7010  1.2190  2.1162
  153SAPE   C2817001   5.524   0.460   9.390 -0.8061 -0.4884  0.3441
  153SAPE   H8R17002   5.620   0.440   9.441  1.0014  0.6954 -2.3414
  153SAPE   C2917003   5.536   0.497   9.264 -0.1292 -0.2663  0.4001
  153SAPE   H9R17004   5.629   0.483   9.206  0.5192  0.8960  1.1045
  153SAPE  C21017005   5.420   0.554   9.182  0.0078 -0.7815  0.4725
  153SAPE  H10R17006   5.331   0.559   9.249 -2.2663 -0.4643 -2.3677
  153SAPE  H10S17007   5.391   0.490   9.096 -1.2343 -0.3521  0.5406
  153SAPE  C21117008   5.452   0.700   9.138 -0.0500  0.3147 -0.2009
  153SAPE  H11R17009   5.425   0.775   9.215  0.0361 -1.4316  1.6057
  153SAPE  C21217010   5.517   0.746   9.022  0.3880 -0.0652  0.0825
  153SAPE  H12R17011   5.553   0.849   9.011 -2.6135  1.0175 -0.6370
  153SAPE  C21317012   5.567   0.655   8.912 -0.5118 -0.8141 -0.5396
  153SAPE  H13R17013   5.623   0.577   8.968 -0.0376  1.3353  2.1719
  153SAPE  H13S17014   5.654   0.711   8.871 -1.1500  1.0839  0.5467
  153SAPE  C21417015   5.459   0.619   8.809  0.0362  0.3069  0.1374
  153SAPE  H14R17016   5.400   0.699   8.763 -0.6317  0.1895  0.7723
  153SAPE  C21517017   5.426   0.494   8.773 -0.5260 -0.0719 -0.1129
  153SAPE  H15R17018   5.342   0.474   8.706 -0.3064 -0.8801 -0.1505
  153SAPE  C21617019   5.503   0.367   8.814 -0.4338  0.0351  0.1886
  153SAPE  H16R17020   5.495   0.352   8.924 -0.5467  1.3605  0.3687
  153SAPE  H16S17021   5.612   0.380   8.796 -0.1393 -2.1640  0.0944
  153SAPE  C21717022   5.463   0.237   8.741 -0.1146 -0.0164 -0.3234
  153SAPE  H17R17023   5.546   0.163   8.749  1.2134  1.1998 -2.0537
  153SAPE  H17S17024   5.449   0.265   8.634 -0.9147  0.3306 -0.1307
  153SAPE  C21817025   5.347   0.177   8.820  0.1889  0.4330  0.7573
  153SAPE  H18R17026   5.378   0.154   8.925  3.6928 -2.9930 -0.7831
  153SAPE  H18S17027   5.325   0.079   8.773 -1.4184  0.9306  0.3990
  153SAPE  C21917028   5.214   0.253   8.818 -0.3240  0.2374 -0.1664
  153SAPE  H19R17029   5.175   0.312   8.732 -1.2687  1.7047  1.2233
  153SAPE  H19S17030   5.236   0.329   8.896 -0.4816 -1.5837  1.7233
  153SAPE  C22017031   5.099   0.172   8.867 -0.5603 -0.1245  0.4810
  153SAPE  H20R17032   5.119   0.126   8.966 -0.6507 -0.9545  0.1210
  153SAPE  H20S17033   5.081   0.083   8.803 -2.0526  0.2896  0.2767
  153SAPE  H20T17034   5.007   0.235   8.869 -1.1999 -0.9595 -1.0295
  153SAPE   C3317035   5.699   0.123   9.875  0.4660  0.2664 -0.0868
  153SAPE   H3X17036   5.634   0.155   9.791  1.0464  1.6500 -0.0314
  153SAPE   H3Y17037   5.649   0.046   9.939  1.8498 -0.1943  0.4772
  153SAPE   C3417038   5.814   0.061   9.790  0.0781  0.1357 -0.4294
  153SAPE   H4X17039   5.884   0.029   9.871 -1.6560 -0.0239  1.0614
  153SAPE   H4Y17040   5.855   0.146   9.732 -0.3582  1.0963  0.6294
  153SAPE   C3517041   5.769  -0.061   9.703 -0.0352  0.5805  0.2553
  153SAPE   H5X17042   5.702  -0.023   9.623  1.3956  0.7047 -0.9252
  153SAPE   H5Y17043   5.731  -0.138   9.774  1.5830  0.5882  1.1879
  153SAPE   C3617044   5.895  -0.121   9.632  0.5053  0.1406 -0.5091
  153SAPE   H6X17045   5.950  -0.029   9.604  1.0508  0.0206  0.1510
  153SAPE   H6Y17046   5.857  -0.166   9.537  0.8978 -0.9235 -0.1843
  153SAPE   C3717047   5.978  -0.224   9.709 -0.0201  0.5890 -0.0651
  153SAPE   H7X17048   5.920  -0.311   9.747  0.0017  0.3190 -0.6431
  153SAPE   H7Y17049   6.019  -0.174   9.799  1.8605  0.5652 -0.8639
  153SAPE   C3817050   6.097  -0.284   9.639 -0.2379 -0.1297  0.1785
  153SAPE   H8X17051   6.175  -0.314   9.713  0.9226  0.9994 -0.5323
  153SAPE   H8Y17052   6.147  -0.208   9.575 -0.2962  1.2466  1.7000
  153SAPE   C3917053   6.068  -0.414   9.556  0.1864  0.1320 -0.1188
  153SAPE   H9X17054   5.983  -0.399   9.486 -0.6145 -1.0679  0.5618
  153SAPE   H9Y17055   6.037  -0.492   9.629  0.0192  2.1853  2.1097
  153SAPE  C31017056   6.184  -0.467   9.471 -0.3349  0.2077  0.4846
  153SAPE  H10X17057   6.156  -0.566   9.428  0.5201 -0.0863  0.5873
  153SAPE  H10Y17058   6.276  -0.481   9.532  1.0841  3.1743 -0.7827
  153SAPE  C31117059   6.212  -0.378   9.347  0.7094 -0.5380  0.6656
  153SAPE  H11X17060   6.322  -0.367   9.342  0.6918 -0.6188  0.0373
  153SAPE  H11Y17061   6.174  -0.283   9.390  0.4450 -0.4916  0.3309
  153SAPE  C31217062   6.130  -0.416   9.218  0.2639 -0.1803  0.2160
  153SAPE  H12X17063   6.136  -0.352   9.127 -0.3262 -2.3449 -1.4433
  153SAPE  H12Y17064   6.023  -0.413   9.249  0.3425 -0.9885  0.5888
  153SAPE  C31317065   6.162  -0.559   9.162 -0.2064  0.2335 -0.3745
  153SAPE  H13X17066   6.112  -0.639   9.220 -0.1556 -0.7875 -1.6853
  153SAPE  H13Y17067   6.269  -0.578   9.183 -0.0133  3.8112  2.9286
  153SAPE  C31417068   6.120  -0.575   9.017 -0.3527  1.3280 -0.2950
  153SAPE  H14X17069   6.164  -0.509   8.939 -0.8225  2.2906  0.2338
  153SAPE  H14Y17070   6.011  -0.554   9.007 -0.6974 -0.9536 -1.9823
  153SAPE  C31517071   6.132  -0.723   8.976 -0.2595 -1.0558  0.3161
  153SAPE  H15X17072   6.052  -0.740   8.900 -0.9097 -0.6635  0.8949
  153SAPE  H15Y17073   6.100  -0.788   9.059  3.0283 -0.4482  2.2469
  153SAPE  C31617074   6.265  -0.759   8.914  0.2470  0.8128 -0.3232
  153SAPE  H16X17075   6.285  -0.866   8.934 -2.5005  0.1020 -0.9442
  153SAPE  H16Y17076   6.350  -0.703   8.958  0.2899  0.1304  0.4780
  153SAPE  C31717077   6.282  -0.729   8.765  0.9251  0.2317  0.1616
  153SAPE  H17X17078   6.270  -0.620   8.748 -0.4842 -0.0126 -0.5545
  153SAPE  H17Y17079   6.207  -0.791   8.711 -0.3040  0.3890  1.6019
  153SAPE  C31817080   6.420  -0.762   8.713 -0.1043  0.3332  0.7124
  153SAPE  H18X17081   6.442  -0.871   8.713 -0.9562  0.1556 -0.0872
  153SAPE  H18Y17082   6.489  -0.705   8.780 -0.1280  0.5103  0.5869
  153SAPE  H18Z17083   6.434  -0.718   8.612 -1.6024 -2.3092 -0.7582
  154SAPE     N17084   6.354   0.820  10.606 -0.4758  0.0778  0.1408
  154SAPE   HN117085   6.458   0.818  10.599 -0.4942 -0.4281 -0.0050
  154SAPE   HN217086   6.320   0.848  10.700  0.3121 -0.4965  0.6059
  154SAPE   HN317087   6.320   0.723  10.593 -0.9253  0.0070  1.7341
  154SAPE   C1217088   6.289   0.917  10.502 -0.3487  0.6098 -0.3406
  154SAPE  H12A17089   6.216   0.849  10.453 -1.2265 -0.0023  1.6970
  154SAPE  H12B17090   6.368   0.963  10.440  2.1522 -2.4868  0.2902
  154SAPE   C1117091   6.212   1.031  10.576  0.2155  0.4711  1.0419
  154SAPE  H11A17092   6.116   1.004  10.626 -1.2076  0.6751 -1.4219
  154SAPE  H11B17093   6.178   1.095  10.492 -3.2526  0.2286  2.0718
  154SAPE     P17094   6.271   1.245  10.715 -0.1463 -0.1696  0.1109
  154SAPE   O1317095   6.132   1.266  10.754  0.0886  0.0603  0.1001
  154SAPE   O1417096   6.369   1.266  10.821  0.3679  0.2193 -0.2118
  154SAPE   O1217097   6.301   1.100  10.656  0.2368 -0.3205 -1.0368
  154SAPE   O1117098   6.310   1.343  10.601  0.0122  0.4068 -0.4532
  154SAPE    C117099   6.420   1.317  10.513  0.4330 -0.8061 -0.3084
  154SAPE    HA17100   6.504   1.380  10.551 -1.3219  0.5871  1.4398
  154SAPE    HB17101   6.445   1.210  10.504 -1.2073 -1.1575 -1.0424
  154SAPE    C217102   6.386   1.367  10.366  0.3003 -0.2189  0.4842
  154SAPE    HS17103   6.315   1.452  10.374 -1.5521 -1.7890  1.6457
  154SAPE   O2117104   6.325   1.259  10.302  0.1578 -0.1736  0.2622
  154SAPE   C2117105   6.259   1.299  10.187  0.6739  0.1792  0.2038
  154SAPE   O2217106   6.224   1.412  10.162  0.2006  0.9663  0.3488
  154SAPE   C2217107   6.219   1.170  10.109 -0.2108 -0.1110 -0.5146
  154SAPE   H2R17108   6.272   1.087  10.159  0.2290  0.1332 -0.5745
  154SAPE   H2S17109   6.112   1.151  10.132 -0.0536  1.1726  1.5642
  154SAPE    C317110   6.524   1.401  10.298  0.5512  0.4401  0.2503
  154SAPE    HX17111   6.572   1.301  10.288 -1.9405 -0.7946 -0.1346
  154SAPE    HY17112   6.581   1.467  10.366 -1.4771  0.0482  2.4442
  154SAPE   O3117113   6.506   1.461  10.166 -0.1126 -0.1525  0.3697
  154SAPE   C3117114   6.493   1.597  10.155  0.0474  0.0645  0.3881
  154SAPE   O3217115   6.531   1.675  10.246 -0.8744  0.4828  0.4828
  154SAPE   C3217116   6.460   1.627  10.008  0.6333  0.2937 -0.3968
  154SAPE   H2X17117   6.440   1.737  10.002 -1.5113 -0.0072  0.1704
  154SAPE   H2Y17118   6.363   1.572  10.001  1.4073 -0.8926 -2.4626
  154SAPE   C2317119   6.245   1.177   9.958 -0.2088  0.1920 -0.0851
  154SAPE   H3R17120   6.177   1.261   9.935 -2.6643 -2.0053 -1.3625
  154SAPE   H3S17121   6.194   1.096   9.901  1.8184 -0.2168 -1.4467
  154SAPE   C2417122   6.393   1.184   9.919  0.3003 -0.2047 -0.1522
  154SAPE   H4R17123   6.433   1.265   9.983 -0.2352 -0.1681  0.1458
  154SAPE   H4S17124   6.391   1.211   9.811  2.0091  2.7596  0.4352
  154SAPE   C2517125   6.466   1.055   9.938  0.2871 -0.5326  0.2139
  154SAPE   H5R17126   6.491   1.037  10.044 -0.1597 -1.3068  0.1941
  154SAPE   C2617127   6.509   0.969   9.846  0.6052  0.7677  0.1538
  154SAPE   H6R17128   6.562   0.879   9.882 -0.7691  1.5195  4.5875
  154SAPE   C2717129   6.494   0.989   9.698 -0.0306  0.2561 -0.3346
  154SAPE   H7R17130   6.539   0.901   9.647 -2.8132 -0.9516 -0.9276
  154SAPE   H7S17131   6.555   1.077   9.669  1.8050 -1.7497 -3.0559
  154SAPE   C2817132   6.354   0.999   9.639  0.0352  0.2975 -0.6702
  154SAPE   H8R17133   6.273   0.971   9.708  0.7248  0.0410  0.0405
  154SAPE   C2917134   6.339   1.046   9.514 -0.2129  0.2498 -0.4322
  154SAPE   H9R17135   6.237   1.053   9.473 -0.8523  2.6942  1.3148
  154SAPE  C21017136   6.447   1.085   9.417 -0.0312 -0.4944  0.1921
  154SAPE  H10R17137   6.425   1.038   9.319 -0.9388  0.6750 -0.1958
  154SAPE  H10S17138   6.552   1.058   9.441  1.0904  1.7621 -1.6804
  154SAPE  C21117139   6.441   1.237   9.405 -0.2268 -0.1419  0.3535
  154SAPE  H11R17140   6.452   1.303   9.493  0.3337 -0.0081  0.1921
  154SAPE  C21217141   6.431   1.300   9.288  0.4468 -0.5664  0.0452
  154SAPE  H12R17142   6.414   1.408   9.297  0.4532 -0.6235  0.7545
  154SAPE  C21317143   6.435   1.234   9.151  0.5268  0.3568  0.5689
  154SAPE  H13R17144   6.529   1.175   9.149 -0.6238 -1.5620  0.3430
  154SAPE  H13S17145   6.441   1.319   9.080  2.5965  0.1458  0.4154
  154SAPE  C21417146   6.310   1.152   9.114  0.3684  0.0766  0.8982
  154SAPE  H14R17147   6.272   1.065   9.169 -2.2548 -0.7535 -1.9624
  154SAPE  C21517148   6.242   1.175   9.003  0.5383  0.1502 -0.5747
  154SAPE  H15R17149   6.152   1.117   8.977 -1.2561  2.5393 -0.1599
  154SAPE  C21617150   6.270   1.268   8.893  0.1796  0.3044  0.6017
  154SAPE  H16R17151   6.308   1.366   8.928 -3.0237  2.2274 -0.9085
  154SAPE  H16S17152   6.176   1.279   8.836  0.0796  0.3535  0.7777
  154SAPE  C21717153   6.378   1.226   8.780  0.6491  0.4701 -0.1243
  154SAPE  H17R17154   6.475   1.194   8.824  0.8306 -0.2010 -0.9699
  154SAPE  H17S17155   6.396   1.323   8.729 -0.3269  0.9267  0.3760
  154SAPE  C21817156   6.338   1.127   8.669  0.1220 -0.9302  0.2992
  154SAPE  H18R17157   6.419   1.134   8.593  2.6722  1.2951  2.9321
  154SAPE  H18S17158   6.237   1.129   8.624  0.4998 -3.1179 -0.7547
  154SAPE  C21917159   6.356   0.991   8.714  0.4532  0.5921 -0.0196
  154SAPE  H19R17160   6.281   0.984   8.796 -2.0455 -1.6439 -2.3105
  154SAPE  H19S17161   6.461   0.980   8.750  0.2655 -1.5369  0.0194
  154SAPE  C22017162   6.330   0.882   8.605 -0.6654  0.1456  0.1234
  154SAPE  H20R17163   6.223   0.884   8.577  0.1816  0.4422 -3.5015
  154SAPE  H20S17164   6.347   0.781   8.649 -0.9838  0.4520  0.9788
  154SAPE  H20T17165   6.385   0.887   8.509 -1.1255  1.0853 -0.0985
  154SAPE   C3317166   6.555   1.580   9.905 -0.3166  0.1901 -0.3672
  154SAPE   H3X17167   6.567   1.470   9.914 -0.8322  0.1290 -0.4210
  154SAPE   H3Y17168   6.659   1.608   9.933 -0.6535 -0.2448  1.3995
  154SAPE   C3417169   6.528   1.631   9.760  0.1729 -0.5346 -0.0263
  154SAPE   H4X17170   6.524   1.742   9.761 -1.4795 -0.4714 -2.4773
  154SAPE   H4Y17171   6.424   1.602   9.735 -0.5599  2.2481 -0.6040
  154SAPE   C3517172   6.618   1.580   9.653 -0.0806 -0.5949  0.1620
  154SAPE   H5X17173   6.601   1.473   9.630 -1.0961 -0.4494  0.2091
  154SAPE   H5Y17174   6.722   1.592   9.692 -0.6985  0.1581  1.6762
  154SAPE   C3617175   6.611   1.666   9.526 -0.4283 -0.2271  0.0102
  154SAPE   H6X17176   6.658   1.766   9.537  2.5199 -1.1878 -2.4341
  154SAPE   H6Y17177   6.503   1.689   9.509 -0.8643 -1.2153  1.2981
  154SAPE   C3717178   6.688   1.589   9.412  0.3465 -0.2909 -0.8763
  154SAPE   H7X17179   6.643   1.488   9.421  0.3984 -0.1418  1.7978
  154SAPE   H7Y17180   6.795   1.583   9.443  0.2661 -0.7290 -0.6701
  154SAPE   C3817181   6.660   1.646   9.273 -0.1155  0.6300 -1.1589
  154SAPE   H8X17182   6.553   1.668   9.253 -0.1739 -0.2283 -1.8660
  154SAPE   H8Y17183   6.688   1.561   9.207  2.3827 -0.7400  1.4643
  154SAPE   C3917184   6.751   1.766   9.233  0.4442  0.9245 -0.3742
  154SAPE   H9X17185   6.853   1.751   9.274 -0.5443 -1.0976  1.6066
  154SAPE   H9Y17186   6.712   1.859   9.279  0.1569  1.0735 -0.9120
  154SAPE  C31017187   6.758   1.793   9.091 -0.4774 -0.6088 -0.4498
  154SAPE  H10X17188   6.676   1.747   9.032 -1.6695  1.3570 -0.3847
  154SAPE  H10Y17189   6.851   1.751   9.046  0.8927  1.0338  0.7481
  154SAPE  C31117190   6.745   1.936   9.045  0.5714  0.3919 -0.1934
  154SAPE  H11X17191   6.805   1.997   9.116 -0.4052  0.8849  0.2311
  154SAPE  H11Y17192   6.636   1.955   9.059 -0.0465 -2.3977 -0.7649
  154SAPE  C31217193   6.767   1.960   8.897 -0.2470 -0.4464 -0.5490
  154SAPE  H12X17194   6.702   1.904   8.827  0.1813  0.0910 -1.4018
  154SAPE  H12Y17195   6.874   1.933   8.883 -0.2714 -1.6201  1.2882
  154SAPE  C31317196   6.754   2.114   8.870 -0.2063  0.5948 -0.8595
  154SAPE  H13X17197   6.830   2.170   8.930  0.6659  0.6218 -1.9576
  154SAPE  H13Y17198   6.651   2.147   8.895 -0.0096  0.7032 -0.1756
  154SAPE  C31417199   6.782   2.142   8.718  0.3303  0.0811 -0.0968
  154SAPE  H14X17200   6.727   2.074   8.650 -1.0765  0.7995  0.2700
  154SAPE  H14Y17201   6.891   2.128   8.704  0.1873 -0.3133 -0.8594
  154SAPE  C31517202   6.738   2.284   8.672 -0.6865  0.0844 -0.6879
  154SAPE  H15X17203   6.806   2.362   8.711 -1.0456 -0.7906  1.8528
  154SAPE  H15Y17204   6.639   2.315   8.713 -0.5399  1.7985 -1.5275
  154SAPE  C31617205   6.740   2.307   8.513 -0.6728  0.3477 -0.6599
  154SAPE  H16X17206   6.664   2.241   8.466  0.3556 -0.1641 -1.6685
  154SAPE  H16Y17207   6.836   2.268   8.473 -0.6604  1.0292 -1.3268
  154SAPE  C31717208   6.733   2.452   8.474 -0.8234 -0.5695 -0.2840
  154SAPE  H17X17209   6.679   2.498   8.560  1.0515  1.8364 -0.2955
  154SAPE  H17Y17210   6.685   2.468   8.376  0.7873  0.4519 -0.9362
  154SAPE  C31817211   6.875   2.520   8.481  0.6352 -1.1261 -0.1927
  154SAPE  H18X17212   6.947   2.479   8.407 -1.3132  0.0684 -2.9205
  154SAPE  H18Y17213   6.915   2.529   8.584 -0.5406  2.1658  0.0958
  154SAPE  H18Z17214   6.856   2.623   8.445 -0.3095 -1.3725 -0.4214
  155SAPE     N17215   0.538   1.006  10.824  0.0555 -0.6890  0.1687
  155SAPE   HN117216   0.472   0.928  10.839 -0.5165 -0.0974  0.8024
  155SAPE   HN217217   0.516   1.077  10.751  4.9414  0.8283 -0.2069
  155SAPE   HN317218   0.617   0.952  10.784 -0.6004 -0.1505 -1.9657
  155SAPE   C1217219   0.595   1.078  10.947 -0.3768 -0.7106 -0.0619
  155SAPE  H12A17220   0.635   0.999  11.013  1.9272  1.8024  1.7578
  155SAPE  H12B17221   0.503   1.132  10.979  0.6189  1.2623 -0.3709
  155SAPE   C1117222   0.690   1.188  10.894 -0.0341 -0.1295 -0.5287
  155SAPE  H11A17223   0.728   1.244  10.982  0.4709  1.7092 -1.8703
  155SAPE  H11B17224   0.643   1.263  10.827  2.4035  0.9431 -1.1428
  155SAPE     P17225   0.930   1.094  10.883  0.0410 -0.3454  0.5486
  155SAPE   O1317226   0.976   1.206  10.969  0.3148  0.3012 -0.2071
  155SAPE   O1417227   0.915   0.959  10.941  0.0227 -0.3496  0.0555
  155SAPE   O1217228   0.791   1.118  10.819  0.0485  0.4444 -0.4204
  155SAPE   O1117229   1.038   1.079  10.767  0.0613  0.3568  0.1336
  155SAPE    C117230   0.999   1.046  10.632  0.4652  0.3005  0.2236
  155SAPE    HA17231   1.043   0.945  10.618 -2.1868 -0.9753  0.4503
  155SAPE    HB17232   0.889   1.036  10.622  0.4538  1.0787 -0.4983
  155SAPE    C217233   1.027   1.159  10.537 -0.6942 -0.3074 -0.1987
  155SAPE    HS17234   0.980   1.129  10.441 -0.4692 -0.2277 -0.3360
  155SAPE   O2117235   1.167   1.193  10.522  0.3712  0.5816  0.0117
  155SAPE   C2117236   1.254   1.103  10.480  0.3667  0.3675 -0.3052
  155SAPE   O2217237   1.238   0.980  10.470  0.4380 -0.1817 -0.7456
  155SAPE   C2217238   1.388   1.174  10.448 -0.1939 -0.1676 -0.0034
  155SAPE   H2R17239   1.372   1.280  10.419  0.7517 -0.5346 -2.0205
  155SAPE   H2S17240   1.444   1.163  10.544 -1.5118  0.2468  0.8432
  155SAPE    C317241   0.957   1.295  10.587  0.0220 -0.2407  0.5199
  155SAPE    HX17242   0.995   1.335  10.683 -0.4766 -0.5050  0.8331
  155SAPE    HY17243   0.848   1.273  10.597  0.2773 -1.2117  1.3282
  155SAPE   O3117244   0.962   1.397  10.489 -0.3238 -0.2713  0.4690
  155SAPE   C3117245   1.057   1.484  10.490 -0.7749 -0.4230  0.2316
  155SAPE   O3217246   1.153   1.490  10.566 -0.1570  0.2645 -0.1655
  155SAPE   C3217247   1.045   1.571  10.370 -0.6935 -0.2765  0.4670
  155SAPE   H2X17248   1.100   1.667  10.380  0.6567 -0.5858 -2.8113
  155SAPE   H2Y17249   0.941   1.612  10.362 -0.6670 -0.6047 -3.3204
  155SAPE   C2317250   1.478   1.110  10.337 -0.5140 -0.4101 -1.0427
  155SAPE   H3R17251   1.488   1.001  10.357  0.9225 -0.4870 -2.0221
  155SAPE   H3S17252   1.580   1.151  10.342  0.1817 -1.9448 -1.9080
  155SAPE   C2417253   1.433   1.125  10.193  0.0893  0.6060  0.2238
  155SAPE   H4R17254   1.325   1.098  10.197  0.4676 -1.3718 -1.1472
  155SAPE   H4S17255   1.483   1.045  10.135  0.3999  0.8875  0.0965
  155SAPE   C2517256   1.456   1.256  10.132 -0.3722  0.1710  0.4674
  155SAPE   H5R17257   1.384   1.334  10.160 -0.5133 -0.1715  1.0915
  155SAPE   C2617258   1.559   1.291  10.049  0.1263 -0.4405  0.4563
  155SAPE   H6R17259   1.570   1.397  10.024  0.7236 -0.5599  0.1896
  155SAPE   C2717260   1.680   1.205  10.004 -0.0523  0.5893  0.3020
  155SAPE   H7R17261   1.648   1.101   9.981  1.0431  0.1633  0.6238
  155SAPE   H7S17262   1.733   1.183  10.099  0.1157  2.7952  0.7778
  155SAPE   C2817263   1.770   1.262   9.894  0.0843  0.4316  0.2560
  155SAPE   H8R17264   1.743   1.367   9.873  0.4186  0.8814  1.9277
  155SAPE   C2917265   1.836   1.186   9.805  0.3743 -0.6796  0.1181
  155SAPE   H9R17266   1.890   1.239   9.725 -0.7765  0.3863  0.0078
  155SAPE  C21017267   1.849   1.036   9.812 -0.3040  0.0844  0.1174
  155SAPE  H10R17268   1.847   1.000   9.917  1.4125  1.7352  0.7689
  155SAPE  H10S17269   1.952   1.010   9.778 -0.0935  1.3308 -0.2499
  155SAPE  C21117270   1.743   0.959   9.735  0.2269  0.6833 -0.9220
  155SAPE  H11R17271   1.669   0.926   9.810  3.0851 -0.8333  1.4696
  155SAPE  C21217272   1.753   0.903   9.621  0.8617  0.1293 -0.1874
  155SAPE  H12R17273   1.669   0.842   9.582 -1.0860  1.4839  1.6780
  155SAPE  C21317274   1.862   0.910   9.518 -0.3042  0.2626 -0.0928
  155SAPE  H13R17275   1.901   0.807   9.504 -0.3995  0.1435  0.5153
  155SAPE  H13S17276   1.942   0.971   9.565  0.6075 -0.5949 -0.4727
  155SAPE  C21417277   1.810   0.971   9.393  0.7845 -0.0073  0.1741
  155SAPE  H14R17278   1.744   1.058   9.399  0.8045  0.0702 -0.5567
  155SAPE  C21517279   1.831   0.933   9.265 -0.4369 -0.3323 -0.5957
  155SAPE  H15R17280   1.800   1.006   9.189  1.2769  0.5063 -0.5129
  155SAPE  C21617281   1.906   0.812   9.218 -0.4005  0.9485  0.0880
  155SAPE  H16R17282   1.861   0.718   9.255  0.5618 -0.1789 -1.4499
  155SAPE  H16S17283   2.002   0.822   9.272  0.8868  0.8886 -2.0389
  155SAPE  C21717284   1.951   0.794   9.075 -0.0290 -1.1074 -0.5536
  155SAPE  H17R17285   1.990   0.891   9.036 -2.0823  0.2608  0.5974
  155SAPE  H17S17286   1.861   0.764   9.016 -2.5344  0.9106  1.9356
  155SAPE  C21817287   2.075   0.698   9.062 -0.1023 -0.5933  0.1386
  155SAPE  H18R17288   2.059   0.599   9.110  2.0003 -0.5613  0.9807
  155SAPE  H18S17289   2.159   0.742   9.119  0.0011 -1.4194  0.6384
  155SAPE  C21917290   2.124   0.699   8.908  0.4476 -0.0572  0.1747
  155SAPE  H19R17291   2.031   0.691   8.847 -0.2127  1.5285  0.9128
  155SAPE  H19S17292   2.196   0.617   8.887  1.6689  0.6992  1.2437
  155SAPE  C22017293   2.217   0.814   8.869 -0.2625  0.4855  0.2287
  155SAPE  H20R17294   2.286   0.835   8.954  0.1071  1.2363 -0.2461
  155SAPE  H20S17295   2.157   0.907   8.865 -0.0528  0.8271  2.7747
  155SAPE  H20T17296   2.287   0.800   8.784  1.7451 -2.4492  2.1605
  155SAPE   C3317297   1.084   1.500  10.236  0.4019  0.4165 -0.2760
  155SAPE   H3X17298   0.991   1.446  10.208 -0.3207  2.4309 -2.0023
  155SAPE   H3Y17299   1.168   1.429  10.253 -0.9566 -1.3893 -0.8001
  155SAPE   C3417300   1.101   1.595  10.115 -0.3018  0.6042 -0.3678
  155SAPE   H4X17301   1.164   1.682  10.145  1.8071 -0.8082 -0.4839
  155SAPE   H4Y17302   0.999   1.612  10.076 -1.4843 -0.4237  2.0611
  155SAPE   C3517303   1.175   1.527  10.001  0.0246  0.0915  0.6744
  155SAPE   H5X17304   1.110   1.445   9.963  1.1665 -0.0889 -0.9826
  155SAPE   H5Y17305   1.264   1.468  10.033  0.2574 -0.4972 -0.9557
  155SAPE   C3617306   1.218   1.622   9.891 -0.0208  0.0566 -0.7579
  155SAPE   H6X17307   1.298   1.696   9.917 -0.1261 -1.1718  3.8605
  155SAPE   H6Y17308   1.123   1.672   9.863 -1.3565 -1.5938  0.6653
  155SAPE   C3717309   1.284   1.550   9.768  0.9691 -0.4744  0.1367
  155SAPE   H7X17310   1.228   1.600   9.687 -1.4286  0.8012  2.4240
  155SAPE   H7Y17311   1.245   1.446   9.780 -1.4704  0.2500 -1.0348
  155SAPE   C3817312   1.432   1.540   9.760  0.2362 -0.1871  0.4667
  155SAPE   H8X17313   1.486   1.531   9.857  1.1657  1.7871  0.1677
  155SAPE   H8Y17314   1.480   1.631   9.719  0.6783 -0.4938  0.2960
  155SAPE   C3917315   1.492   1.428   9.683  0.1120  0.3432 -0.9322
  155SAPE   H9X17316   1.436   1.339   9.720  0.4420 -0.0196 -1.2850
  155SAPE   H9Y17317   1.594   1.413   9.725 -0.6957  1.3665  1.5978
  155SAPE  C31017318   1.494   1.436   9.528  0.8108 -0.0206 -0.6830
  155SAPE  H10X17319   1.512   1.543   9.508 -1.0473  0.9706  2.3331
  155SAPE  H10Y17320   1.394   1.404   9.493  0.2695  1.0860 -0.1788
  155SAPE  C31117321   1.588   1.343   9.449  0.1592  0.2249  0.0885
  155SAPE  H11X17322   1.586   1.237   9.484  1.6072  0.6989  1.6770
  155SAPE  H11Y17323   1.691   1.380   9.467  1.2772 -1.7272 -1.7748
  155SAPE  C31217324   1.564   1.366   9.298 -0.1661  0.3806 -0.4988
  155SAPE  H12X17325   1.556   1.476   9.281  1.1822  0.3908 -1.1891
  155SAPE  H12Y17326   1.470   1.315   9.270  0.3674 -0.1764 -1.3190
  155SAPE  C31317327   1.673   1.304   9.215  0.4055  0.0653  0.5371
  155SAPE  H13X17328   1.676   1.196   9.240 -1.1667 -0.7105 -2.2078
  155SAPE  H13Y17329   1.773   1.333   9.254  1.1744 -1.6145 -0.0837
  155SAPE  C31417330   1.670   1.310   9.062  0.0203 -0.7952 -0.0008
  155SAPE  H14X17331   1.671   1.417   9.032  0.5283 -0.2737  1.7605
  155SAPE  H14Y17332   1.576   1.265   9.023  0.7631 -1.5827 -0.9388
  155SAPE  C31517333   1.790   1.227   9.005  0.2571  0.0465 -0.5223
  155SAPE  H15X17334   1.777   1.119   9.029  0.6660 -0.2340 -1.4928
  155SAPE  H15Y17335   1.879   1.279   9.048  1.1481  0.5729 -2.8530
  155SAPE  C31617336   1.813   1.228   8.854  0.0540 -0.1714 -0.4988
  155SAPE  H16X17337   1.782   1.327   8.813  0.1259 -0.3048 -0.8802
  155SAPE  H16Y17338   1.751   1.153   8.800 -1.7550  0.3713  0.7218
  155SAPE  C31717339   1.961   1.202   8.824  0.6649  0.6001  0.4022
  155SAPE  H17X17340   1.978   1.099   8.864 -1.0701  0.6274  1.3266
  155SAPE  H17Y17341   2.024   1.279   8.872 -1.0646  0.4380  3.2213
  155SAPE  C31817342   1.993   1.187   8.675 -0.6617  0.1712 -0.1369
  155SAPE  H18X17343   2.094   1.144   8.659 -0.2338  0.2915  1.9330
  155SAPE  H18Y17344   1.997   1.283   8.621  0.1574 -0.7952 -1.8840
  155SAPE  H18Z17345   1.921   1.124   8.618 -0.6252  0.3809 -0.4148
  156SAPE     N17346   3.895   0.962  10.417  0.1988 -0.3323 -0.0813
  156SAPE   HN117347   3.935   0.959  10.321 -2.1356  0.4583 -1.1335
  156SAPE   HN217348   3.794   0.941  10.407  0.1255  0.3806 -0.9603
  156SAPE   HN317349   3.908   1.058  10.454 -1.7047  0.1658 -0.5860
  156SAPE   C1217350   3.958   0.861  10.506  0.0345  0.6292 -0.3021
  156SAPE  H12A17351   3.918   0.885  10.607 -1.6810  2.6987 -1.3967
  156SAPE  H12B17352   4.067   0.884  10.505  0.6544 -1.6863  2.2362
  156SAPE   C1117353   3.912   0.723  10.454  0.3187  0.1551  0.0236
  156SAPE  H11A17354   3.970   0.646  10.508  2.3470  0.5103 -1.5500
  156SAPE  H11B17355   3.950   0.720  10.350 -0.2831 -0.5370 -0.1768
  156SAPE     P17356   3.701   0.580  10.375 -0.5016 -0.2771 -0.2191
  156SAPE   O1317357   3.668   0.479  10.472  0.1841  0.3657  0.2878
  156SAPE   O1417358   3.592   0.637  10.296  0.0588  0.5052 -0.0694
  156SAPE   O1217359   3.767   0.702  10.458 -0.0108 -0.3003 -0.1000
  156SAPE   O1117360   3.820   0.531  10.283  0.3013  0.0366 -0.3126
  156SAPE    C117361   3.868   0.392  10.292  0.3038 -0.8677 -0.4056
  156SAPE    HA17362   3.862   0.363  10.399 -0.3681 -0.4217 -0.3120
  156SAPE    HB17363   3.802   0.323  10.234 -0.0659 -0.4347 -0.5044
  156SAPE    C217364   4.011   0.382  10.237 -0.0786 -0.0150 -0.4209
  156SAPE    HS17365   4.074   0.455  10.291 -1.0577  1.5488 -1.2925
  156SAPE   O2117366   4.004   0.416  10.096  0.0170  0.8153 -0.0278
  156SAPE   C2117367   4.039   0.546  10.071  0.3939 -0.4659  0.0074
  156SAPE   O2217368   4.089   0.623  10.151  0.1299 -0.2754 -0.1760
  156SAPE   C2217369   4.002   0.577   9.927  0.0166 -0.0885  0.4216
  156SAPE   H2R17370   4.093   0.564   9.865 -0.2666  0.3847 -0.0969
  156SAPE   H2S17371   3.924   0.503   9.901 -2.5573  2.8411 -0.8190
  156SAPE    C317372   4.065   0.243  10.269 -0.3736  0.4879  0.5717
  156SAPE    HX17373   4.067   0.232  10.380  1.6620 -0.6436  0.4796
  156SAPE    HY17374   4.169   0.244  10.230 -1.2873 -0.6252 -2.1144
  156SAPE   O3117375   3.995   0.129  10.219 -0.5920 -0.2890 -0.0470
  156SAPE   C3117376   4.015   0.099  10.095  0.1628  0.4959  0.1362
  156SAPE   O3217377   4.095   0.150  10.016  0.5206  0.1337 -0.4264
  156SAPE   C3217378   3.936  -0.023  10.056  0.2270  0.4594 -0.4746
  156SAPE   H2X17379   3.841   0.018  10.015  1.1444  0.3032 -2.8908
  156SAPE   H2Y17380   3.909  -0.079  10.148 -2.3606  0.6348 -1.0645
  156SAPE   C2317381   3.941   0.720   9.906 -0.5087  1.0550  0.4297
  156SAPE   H3R17382   3.882   0.759   9.991 -0.2797 -0.6100  1.4115
  156SAPE   H3S17383   3.868   0.706   9.824 -0.2172  0.7745  0.2142
  156SAPE   C2417384   4.053   0.810   9.854 -0.3511  0.3631 -0.2837
  156SAPE   H4R17385   4.107   0.753   9.775 -2.3616 -2.3446  0.1293
  156SAPE   H4S17386   4.125   0.815   9.938  0.5113  1.1934 -1.0515
  156SAPE   C2517387   3.997   0.940   9.808 -0.5403 -0.3053  0.4708
  156SAPE   H5R17388   3.978   1.019   9.883 -1.6356 -1.5991  1.6053
  156SAPE   C2617389   3.955   0.963   9.680 -0.2480  0.2361 -0.1697
  156SAPE   H6R17390   3.919   1.066   9.664  0.8584  0.8419  1.0746
  156SAPE   C2717391   3.956   0.875   9.561  0.5157 -0.1854 -0.1674
  156SAPE   H7R17392   3.872   0.895   9.491  0.7433  0.7069 -0.2044
  156SAPE   H7S17393   3.929   0.771   9.588 -3.4743  0.5923 -0.5923
  156SAPE   C2817394   4.084   0.871   9.479 -0.4128 -1.2047 -0.0858
  156SAPE   H8R17395   4.164   0.810   9.523  0.3034 -0.8043 -0.8198
  156SAPE   C2917396   4.105   0.926   9.356  0.3838 -0.6902  0.0674
  156SAPE   H9R17397   4.204   0.922   9.307  0.1488  1.3076 -0.6451
  156SAPE  C21017398   4.006   1.010   9.286  0.8569  0.2360 -0.3851
  156SAPE  H10R17399   4.053   1.092   9.228  0.5523  0.7104  0.0286
  156SAPE  H10S17400   3.941   1.061   9.360  0.7340 -0.7014  0.1610
  156SAPE  C21117401   3.911   0.930   9.202 -0.2221 -0.2741  0.1180
  156SAPE  H11R17402   3.864   0.848   9.259  0.0179  0.1258  0.9140
  156SAPE  C21217403   3.886   0.930   9.071 -0.2173  0.2455  0.5056
  156SAPE  H12R17404   3.818   0.848   9.041  1.4085 -1.4603  1.2647
  156SAPE  C21317405   3.934   1.024   8.966 -1.1126 -0.2048 -0.2049
  156SAPE  H13R17406   4.045   1.018   8.958 -1.2502 -0.5175 -2.4599
  156SAPE  H13S17407   3.903   1.125   9.002 -1.1230 -0.4613  0.5267
  156SAPE  C21417408   3.877   0.984   8.831 -0.0646  0.7032  0.8796
  156SAPE  H14R17409   3.768   0.983   8.813  0.2506 -0.4536 -1.3236
  156SAPE  C21517410   3.946   0.945   8.726 -0.2609 -0.0550  0.5002
  156SAPE  H15R17411   3.888   0.923   8.636  1.5167  1.2390 -1.0396
  156SAPE  C21617412   4.096   0.920   8.707 -1.1017 -0.4773 -0.0369
  156SAPE  H16R17413   4.155   0.942   8.799 -1.8912 -1.4411  0.7244
  156SAPE  H16S17414   4.145   0.980   8.627  0.1748 -2.3007 -0.7051
  156SAPE  C21717415   4.133   0.777   8.665  0.4285 -0.8566 -0.0490
  156SAPE  H17R17416   4.152   0.765   8.556 -1.4043 -1.4688 -0.3230
  156SAPE  H17S17417   4.048   0.711   8.691 -0.4367 -0.1915 -1.1059
  156SAPE  C21817418   4.263   0.743   8.747  0.2225 -0.3564 -0.1841
  156SAPE  H18R17419   4.245   0.771   8.853 -0.7984 -0.3754 -0.3441
  156SAPE  H18S17420   4.351   0.786   8.696  2.1624 -4.7849 -1.0980
  156SAPE  C21917421   4.293   0.599   8.755 -0.2736  0.7993  1.0771
  156SAPE  H19R17422   4.283   0.560   8.652 -2.0546  1.5989  0.8945
  156SAPE  H19S17423   4.224   0.539   8.819 -1.6796 -1.3168 -2.1841
  156SAPE  C22017424   4.434   0.565   8.812 -0.1408 -0.5983  0.1868
  156SAPE  H20R17425   4.464   0.458   8.822  3.3770  0.4048  1.8747
  156SAPE  H20S17426   4.446   0.603   8.915  1.3972 -2.0735  0.5942
  156SAPE  H20T17427   4.509   0.621   8.752 -0.6589  0.9907  0.9764
  156SAPE   C3317428   4.013  -0.094   9.945 -0.8181 -0.0672 -0.3214
  156SAPE   H3X17429   4.118  -0.121   9.967 -0.7098  0.2091 -0.5035
  156SAPE   H3Y17430   4.019  -0.031   9.854 -0.3518 -0.4434 -0.5546
  156SAPE   C3417431   3.939  -0.221   9.894  0.6672 -0.2444  0.5538
  156SAPE   H4X17432   3.940  -0.288   9.982 -0.9790 -0.6012  0.3353
  156SAPE   H4Y17433   4.001  -0.270   9.815 -1.5493  1.6151 -2.6056
  156SAPE   C3517434   3.792  -0.216   9.845 -0.0854 -0.6183 -0.3601
  156SAPE   H5X17435   3.721  -0.171   9.918  1.0959  0.9428 -0.1093
  156SAPE   H5Y17436   3.739  -0.309   9.816 -0.2653 -0.2791 -1.1523
  156SAPE   C3617437   3.793  -0.144   9.718 -0.4588 -0.0333  0.4928
  156SAPE   H6X17438   3.859  -0.203   9.651 -2.8408 -0.7801 -1.3634
  156SAPE   H6Y17439   3.829  -0.040   9.731 -1.8580  0.5113  0.2990
  156SAPE   C3717440   3.647  -0.131   9.651  0.7017  0.6226 -0.4235
  156SAPE   H7X17441   3.573  -0.103   9.730  0.4773 -0.5005 -0.2270
  156SAPE   H7Y17442   3.615  -0.226   9.603  0.7843  0.8892 -1.0127
  156SAPE   C3817443   3.645  -0.037   9.531 -0.6148 -0.1144 -0.8321
  156SAPE   H8X17444   3.640   0.068   9.568  1.8734 -0.7854  1.7665
  156SAPE   H8Y17445   3.559  -0.047   9.461 -0.3969 -2.8442 -0.7878
  156SAPE   C3917446   3.763  -0.050   9.434 -0.6279  0.1725  0.0123
  156SAPE   H9X17447   3.752  -0.152   9.392 -3.1344  0.0536  0.7342
  156SAPE   H9Y17448   3.857  -0.053   9.493 -0.3220 -2.7520 -0.4792
  156SAPE  C31017449   3.755   0.052   9.325 -0.4850  0.0415  0.7251
  156SAPE  H10X17450   3.767   0.155   9.363 -0.1608  0.2121  0.1667
  156SAPE  H10Y17451   3.660   0.049   9.267 -0.1764 -2.4348  0.2206
  156SAPE  C31117452   3.856   0.039   9.215 -0.6679  0.2783 -0.1741
  156SAPE  H11X17453   3.951   0.043   9.272 -1.1703 -2.8037  1.1191
  156SAPE  H11Y17454   3.848   0.122   9.142  1.1310  0.4742 -0.1925
  156SAPE  C31217455   3.843  -0.097   9.140  0.2253  0.1573 -0.7442
  156SAPE  H12X17456   3.741  -0.141   9.133  0.8273 -1.1035 -2.1345
  156SAPE  H12Y17457   3.883  -0.182   9.199 -1.9029  0.3330  1.0713
  156SAPE  C31317458   3.914  -0.105   9.005  0.1720  0.1227 -0.3202
  156SAPE  H13X17459   4.018  -0.092   9.042 -0.2925 -0.4018  1.2810
  156SAPE  H13Y17460   3.881  -0.014   8.951 -3.1849 -0.5464  0.3080
  156SAPE  C31417461   3.897  -0.237   8.935 -0.0733  0.0976 -0.2574
  156SAPE  H14X17462   3.794  -0.258   8.898  0.0879 -1.0348 -0.0956
  156SAPE  H14Y17463   3.937  -0.316   9.002 -2.0662  1.3869  2.6560
  156SAPE  C31517464   3.979  -0.250   8.799  0.4687  0.7727 -0.6808
  156SAPE  H15X17465   4.085  -0.218   8.812  0.8003 -0.9396  1.3425
  156SAPE  H15Y17466   3.931  -0.178   8.729 -0.7719  1.7216  1.0653
  156SAPE  C31617467   3.980  -0.392   8.752 -0.3945 -0.1883  0.2025
  156SAPE  H16X17468   3.875  -0.416   8.726 -0.4552 -0.2469  0.5043
  156SAPE  H16Y17469   4.006  -0.461   8.835 -1.8330  1.4698  2.1047
  156SAPE  C31717470   4.068  -0.430   8.636 -0.6322 -0.1344 -0.0599
  156SAPE  H17X17471   4.033  -0.533   8.612 -0.9356 -0.1309  0.3534
  156SAPE  H17Y17472   4.178  -0.434   8.652 -0.7514 -0.2848  0.7264
  156SAPE  C31817473   4.032  -0.344   8.517  0.4222 -0.9420  0.1186
  156SAPE  H18X17474   4.067  -0.241   8.535  0.9744 -1.1210  0.0773
  156SAPE  H18Y17475   3.924  -0.343   8.489  0.8267  2.7312 -1.8632
  156SAPE  H18Z17476   4.094  -0.377   8.431  1.8722 -0.0857  0.8115
  157SAPE     N17477   4.714   6.756  10.361  0.2695 -0.0297 -0.0611
  157SAPE   HN117478   4.757   6.686  10.297 -1.1898 -1.7520  0.7413
  157SAPE   HN217479   4.753   6.735  10.455  0.9940  2.2288  0.1773
  157SAPE   HN317480   4.613   6.734  10.366 -0.0385  1.3858  0.3566
  157SAPE   C1217481   4.720   6.903  10.328 -0.7836 -0.3886 -0.1270
  157SAPE  H12A17482   4.685   6.918  10.224 -1.1286 -0.7814 -0.0702
  157SAPE  H12B17483   4.829   6.927  10.333 -1.0082  0.3597  1.7351
  157SAPE   C1117484   4.656   7.004  10.422  0.7055 -0.7754 -0.0863
  157SAPE  H11A17485   4.548   6.977  10.418  0.6959 -0.6896 -4.1764
  157SAPE  H11B17486   4.666   7.109  10.388  0.4002 -1.1619 -1.4276
  157SAPE     P17487   4.833   7.052  10.615  0.1475 -0.0413  0.3315
  157SAPE   O1317488   4.779   7.135  10.731 -0.0491 -0.6264  0.3882
  157SAPE   O1417489   4.935   6.953  10.644 -0.2497  0.1313 -0.3737
  157SAPE   O1217490   4.710   6.977  10.550  0.6065  0.1521 -0.6740
  157SAPE   O1117491   4.886   7.154  10.504 -0.3273 -0.0644  0.9099
  157SAPE    C117492   4.926   7.289  10.534  0.7275  0.3270 -0.1125
  157SAPE    HA17493   4.958   7.293  10.640  1.8821 -0.5254 -0.4091
  157SAPE    HB17494   5.020   7.309  10.479  1.2049  1.8540  1.2048
  157SAPE    C217495   4.807   7.394  10.521  0.0942 -0.5447 -0.4796
  157SAPE    HS17496   4.738   7.379  10.607 -0.1803  1.2694 -0.3435
  157SAPE   O2117497   4.745   7.381  10.385 -0.5420  0.8224 -0.2302
  157SAPE   C2117498   4.620   7.426  10.387 -0.4946  0.0787 -0.2160
  157SAPE   O2217499   4.568   7.484  10.479  0.1231  0.3883 -0.5845
  157SAPE   C2217500   4.549   7.414  10.249 -0.7745 -0.5352 -0.0508
  157SAPE   H2R17501   4.631   7.433  10.178  1.7822 -1.8134  2.3570
  157SAPE   H2S17502   4.507   7.313  10.232  0.1839 -0.7574 -1.1631
  157SAPE    C317503   4.870   7.534  10.523  0.1419  0.0271  0.1391
  157SAPE    HX17504   4.914   7.551  10.624 -1.1822  0.4890  0.6649
  157SAPE    HY17505   4.786   7.607  10.528  0.3635  0.3178 -0.3073
  157SAPE   O3117506   4.969   7.562  10.419  0.1276 -0.1276  0.3258
  157SAPE   C3117507   4.918   7.625  10.313  0.0523 -0.2972  0.6801
  157SAPE   O3217508   4.800   7.663  10.294  0.8255  0.0187 -0.2807
  157SAPE   C3217509   5.026   7.647  10.205 -0.3314 -0.0995  0.0672
  157SAPE   H2X17510   5.091   7.558  10.196  0.5854  0.5683  0.0061
  157SAPE   H2Y17511   5.081   7.741  10.227 -0.3071  0.5061 -2.3464
  157SAPE   C2317512   4.438   7.521  10.226  0.2410  0.0510  0.1430
  157SAPE   H3R17513   4.372   7.539  10.314  0.9522 -1.8826  1.1432
  157SAPE   H3S17514   4.377   7.480  10.143  0.4817 -1.3046  0.6088
  157SAPE   C2417515   4.491   7.658  10.187  0.1929 -0.7630  0.5098
  157SAPE   H4R17516   4.546   7.705  10.271 -0.7639  2.5550 -0.5483
  157SAPE   H4S17517   4.406   7.728  10.166  1.7411  1.4838  1.3147
  157SAPE   C2517518   4.584   7.669  10.068 -0.1398  0.2747 -0.1984
  157SAPE   H5R17519   4.691   7.668  10.092  0.4949 -0.9133 -2.7759
  157SAPE   C2617520   4.552   7.658   9.936 -0.0583 -0.8779 -0.0974
  157SAPE   H6R17521   4.630   7.687   9.864 -0.3356  1.3088  0.4130
  157SAPE   C2717522   4.410   7.643   9.879 -0.2979 -0.5432  0.0509
  157SAPE   H7R17523   4.397   7.736   9.821  3.1293  0.3320  0.4665
  157SAPE   H7S17524   4.332   7.632   9.958 -3.2608  1.2702 -2.3752
  157SAPE   C2817525   4.401   7.531   9.779  0.3734  0.0984 -0.4319
  157SAPE   H8R17526   4.398   7.433   9.830 -1.2178 -0.3965 -1.3900
  157SAPE   C2917527   4.408   7.545   9.647  0.3195 -0.0983  0.6704
  157SAPE   H9R17528   4.397   7.448   9.596 -1.5390  0.7009 -0.5783
  157SAPE  C21017529   4.428   7.670   9.557 -0.0752 -0.3962  0.3473
  157SAPE  H10R17530   4.358   7.751   9.586  0.2202 -0.1395  0.3401
  157SAPE  H10S17531   4.398   7.645   9.453 -0.5215  0.4697  0.2652
  157SAPE  C21117532   4.575   7.708   9.550 -0.0275  0.7548 -0.6439
  157SAPE  H11R17533   4.609   7.732   9.652  0.9813  2.3506 -1.3186
  157SAPE  C21217534   4.662   7.716   9.451  0.3032 -1.1689  0.0607
  157SAPE  H12R17535   4.765   7.749   9.470 -0.0366  1.0611 -1.5976
  157SAPE  C21317536   4.625   7.693   9.301 -0.3723 -0.5528 -0.6332
  157SAPE  H13R17537   4.516   7.686   9.281 -0.5701 -1.8040  0.6637
  157SAPE  H13S17538   4.661   7.592   9.271 -0.8432 -0.2604 -2.2497
  157SAPE  C21417539   4.689   7.796   9.211 -0.5332  0.0083 -0.4038
  157SAPE  H14R17540   4.740   7.883   9.256  1.2445 -2.0193  1.7871
  157SAPE  C21517541   4.697   7.796   9.078  0.0342  0.1336 -0.2792
  157SAPE  H15R17542   4.743   7.884   9.031 -1.3364  2.1511  1.9080
  157SAPE  C21617543   4.628   7.696   8.987  0.4372  0.0558  0.5755
  157SAPE  H16R17544   4.555   7.641   9.050  1.6686 -0.8031  1.2795
  157SAPE  H16S17545   4.705   7.622   8.958  0.6601  0.1888  0.8330
  157SAPE  C21717546   4.574   7.744   8.854 -0.2771  0.2703  0.4777
  157SAPE  H17R17547   4.516   7.838   8.856  1.2243  1.2274  1.0224
  157SAPE  H17S17548   4.495   7.671   8.824 -0.7996  1.1819 -0.4072
  157SAPE  C21817549   4.682   7.738   8.743  0.0544 -0.5870  0.2305
  157SAPE  H18R17550   4.716   7.633   8.727  2.6132  0.2098 -0.0927
  157SAPE  H18S17551   4.781   7.773   8.781  0.5086  0.3273 -1.6380
  157SAPE  C21917552   4.644   7.804   8.615 -0.0756 -0.4113  0.5675
  157SAPE  H19R17553   4.725   7.809   8.540 -2.1997 -2.5271 -2.0762
  157SAPE  H19S17554   4.597   7.904   8.627  0.5620 -0.0880  0.3928
  157SAPE  C22017555   4.533   7.728   8.536 -0.1982  0.2223  0.1371
  157SAPE  H20R17556   4.539   7.618   8.546  1.9804  0.3438  0.6067
  157SAPE  H20S17557   4.512   7.767   8.434 -3.0792  1.9440  1.2637
  157SAPE  H20T17558   4.438   7.751   8.590  0.3174  0.4570  0.9654
  157SAPE   C3317559   4.962   7.669  10.067  0.5226 -0.2633 -0.1982
  157SAPE   H3X17560   4.891   7.753  10.054 -1.0596 -1.6788 -1.0913
  157SAPE   H3Y17561   4.891   7.587  10.045 -1.9372  1.2807  1.4614
  157SAPE   C3417562   5.076   7.669   9.961 -0.6397 -0.0473 -0.2423
  157SAPE   H4X17563   5.140   7.579   9.970 -1.8188 -1.0804 -1.6495
  157SAPE   H4Y17564   5.142   7.757   9.975 -0.4780 -0.5670  3.0258
  157SAPE   C3517565   5.012   7.668   9.823 -0.5047 -0.3182 -0.1160
  157SAPE   H5X17566   4.906   7.702   9.829 -0.4483  0.1854 -1.6857
  157SAPE   H5Y17567   4.986   7.561   9.805  0.4175 -0.5194 -0.3068
  157SAPE   C3617568   5.098   7.734   9.713 -0.2854  0.4452 -0.6549
  157SAPE   H6X17569   5.202   7.705   9.740 -0.8951 -0.8907  0.4222
  157SAPE   H6Y17570   5.087   7.844   9.711 -2.9549  0.2548 -0.6702
  157SAPE   C3717571   5.060   7.691   9.572 -0.1854 -0.5792  0.4145
  157SAPE   H7X17572   4.968   7.749   9.550 -0.7275 -1.0566  1.3448
  157SAPE   H7Y17573   5.036   7.584   9.554 -0.7192 -0.2103 -1.2726
  157SAPE   C3817574   5.166   7.736   9.472 -0.3680  0.6817  0.1505
  157SAPE   H8X17575   5.266   7.693   9.491 -0.6501 -0.1856 -0.2656
  157SAPE   H8Y17576   5.172   7.846   9.476 -1.9223  0.8434 -1.0381
  157SAPE   C3917577   5.127   7.712   9.323 -0.5907  1.1658  0.5560
  157SAPE   H9X17578   5.021   7.738   9.305 -0.6263 -0.6684 -2.6363
  157SAPE   H9Y17579   5.135   7.608   9.286  0.1752  1.4654 -0.1627
  157SAPE  C31017580   5.217   7.804   9.236  0.2533  0.1156  0.3533
  157SAPE  H10X17581   5.324   7.788   9.261  0.2815  1.5308  1.2699
  157SAPE  H10Y17582   5.194   7.911   9.258 -0.0465  0.0766  0.2295
  157SAPE  C31117583   5.206   7.781   9.085 -0.5109  0.3094  0.5325
  157SAPE  H11X17584   5.225   7.672   9.070 -0.0159  0.3949  0.5105
  157SAPE  H11Y17585   5.280   7.850   9.040 -0.7201  1.9157  2.5185
  157SAPE  C31217586   5.068   7.811   9.018 -0.8424  0.0663 -0.0432
  157SAPE  H12X17587   5.032   7.912   9.045 -1.1296  0.4753 -1.8037
  157SAPE  H12Y17588   4.995   7.737   9.059  0.9721 -0.6738  2.0224
  157SAPE  C31317589   5.092   7.819   8.861 -0.0738  0.4639 -0.6936
  157SAPE  H13X17590   5.138   7.920   8.848  0.1386  0.3678 -0.6860
  157SAPE  H13Y17591   4.990   7.817   8.816  0.4859 -0.8292 -1.9744
  157SAPE  C31417592   5.181   7.717   8.788  0.4994  0.6476 -0.1988
  157SAPE  H14X17593   5.133   7.619   8.807  1.9693  0.1239  1.0976
  157SAPE  H14Y17594   5.284   7.724   8.830  0.2047  1.0082  0.4964
  157SAPE  C31517595   5.197   7.732   8.635  0.2566  0.2144  0.1493
  157SAPE  H15X17596   5.098   7.756   8.589  0.0018  0.3699  0.7612
  157SAPE  H15Y17597   5.222   7.629   8.604 -0.3101 -0.2912  1.2800
  157SAPE  C31617598   5.306   7.830   8.588  0.4027 -0.2582 -0.0609
  157SAPE  H16X17599   5.407   7.821   8.633  2.0232 -0.1137 -3.3655
  157SAPE  H16Y17600   5.268   7.932   8.610 -0.3489 -0.8670  1.5378
  157SAPE  C31717601   5.310   7.803   8.439  0.4888 -0.8807  0.6917
  157SAPE  H17X17602   5.211   7.787   8.391  1.8655  1.6457 -3.4899
  157SAPE  H17Y17603   5.363   7.707   8.420  0.5968 -0.5684 -0.7146
  157SAPE  C31817604   5.382   7.920   8.360 -0.3427  0.4392  0.1061
  157SAPE  H18X17605   5.483   7.935   8.405 -0.3553  0.1903  0.2193
  157SAPE  H18Y17606   5.331   8.018   8.363 -0.1930  0.6660 -2.6982
  157SAPE  H18Z17607   5.367   7.894   8.254 -1.2403  0.5136  0.2093
  158SAPE     N17608   0.564   6.433  10.625  0.1417 -0.7358 -0.4248
  158SAPE   HN117609   0.482   6.392  10.575 -1.5468  0.1980  1.4028
  158SAPE   HN217610   0.518   6.522  10.652 -0.4690 -0.3881 -2.4217
  158SAPE   HN317611   0.644   6.460  10.564  0.4332  0.0140  0.2721
  158SAPE   C1217612   0.617   6.365  10.741  0.7824  0.1396 -0.5845
  158SAPE  H12A17613   0.542   6.378  10.823 -0.8425  2.0226 -2.2649
  158SAPE  H12B17614   0.715   6.411  10.767  1.0637 -0.5684 -0.3693
  158SAPE   C1117615   0.654   6.221  10.704  0.7063 -1.0108  0.3713
  158SAPE  H11A17616   0.693   6.171  10.795  0.3894 -1.8694  0.0459
  158SAPE  H11B17617   0.740   6.228  10.634  0.2204  0.5466 -0.1120
  158SAPE     P17618   0.431   6.082  10.733 -0.4001 -0.0736  0.0553
  158SAPE   O1317619   0.502   5.971  10.793 -0.4743 -0.1678  0.2493
  158SAPE   O1417620   0.356   6.177  10.817 -0.5438 -0.6974  0.0541
  158SAPE   O1217621   0.541   6.155  10.640 -0.1319 -0.0457  0.1387
  158SAPE   O1117622   0.324   6.021  10.632  0.3697 -0.0545 -0.6377
  158SAPE    C117623   0.371   5.920  10.535  0.3018 -0.2442 -0.2900
  158SAPE    HA17624   0.481   5.905  10.528  0.4331  1.2309 -2.2070
  158SAPE    HB17625   0.328   5.822  10.565 -1.6218  1.2057  2.1239
  158SAPE    C217626   0.296   5.958  10.399  0.0065  0.5910  0.4231
  158SAPE    HS17627   0.303   5.880  10.320 -3.2564  0.8211 -0.2409
  158SAPE   O2117628   0.350   6.079  10.345  0.3646  0.3488 -0.5090
  158SAPE   C2117629   0.477   6.088  10.321 -0.1699  0.1319  0.2393
  158SAPE   O2217630   0.553   5.993  10.326 -0.1272 -0.0908  0.7610
  158SAPE   C2217631   0.524   6.227  10.278 -0.7507 -0.7190 -0.2598
  158SAPE   H2R17632   0.447   6.267  10.209 -2.1130  0.5642  1.8694
  158SAPE   H2S17633   0.531   6.288  10.371  1.2322  1.8722 -1.9855
  158SAPE    C317634   0.140   5.966  10.426 -0.0522  0.1440 -0.1376
  158SAPE    HX17635   0.123   6.039  10.508  0.6670  0.6250 -0.4084
  158SAPE    HY17636   0.108   5.871  10.474 -3.9062  0.9703 -0.7005
  158SAPE   O3117637   0.056   5.992  10.314 -0.2608  0.4534 -0.4613
  158SAPE   C3117638   0.034   6.120  10.290 -0.2647 -0.3455  1.0572
  158SAPE   O3217639   0.076   6.214  10.350 -1.0250 -0.0821  0.1853
  158SAPE   C3217640  -0.054   6.127  10.161 -0.5393 -0.0183 -0.3661
  158SAPE   H2X17641  -0.156   6.110  10.201 -0.0057  0.4453  1.2644
  158SAPE   H2Y17642  -0.027   6.036  10.104  1.9190  0.6224 -0.3437
  158SAPE   C2317643   0.654   6.222  10.195  0.0970 -0.2192 -0.4208
  158SAPE   H3R17644   0.730   6.168  10.256  0.0078  0.5775  0.4128
  158SAPE   H3S17645   0.685   6.328  10.183  0.8045 -0.1401  1.6734
  158SAPE   C2417646   0.633   6.155  10.061  0.1117 -0.0132  0.1093
  158SAPE   H4R17647   0.563   6.217  10.001  0.7369  1.2267  0.6207
  158SAPE   H4S17648   0.578   6.060  10.076 -2.0778  1.0679 -0.6698
  158SAPE   C2517649   0.759   6.126   9.992 -0.4932  0.2028 -0.1238
  158SAPE   H5R17650   0.843   6.093  10.055  1.9760  1.5057 -2.5472
  158SAPE   C2617651   0.784   6.125   9.860  0.3020  0.8899  0.4195
  158SAPE   H6R17652   0.881   6.096   9.816 -0.1227 -0.1953  0.1799
  158SAPE   C2717653   0.678   6.170   9.757 -0.1922  0.1944 -0.4487
  158SAPE   H7R17654   0.743   6.206   9.674  1.0464 -1.6302 -0.3197
  158SAPE   H7S17655   0.630   6.263   9.795  0.8475 -0.7413  3.5612
  158SAPE   C2817656   0.571   6.077   9.720 -0.0217 -0.0841 -0.1277
  158SAPE   H8R17657   0.560   5.999   9.796  0.7736  0.6052  0.7257
  158SAPE   C2917658   0.498   6.102   9.609  0.2509  0.0259  0.1395
  158SAPE   H9R17659   0.418   6.032   9.581  2.0629 -1.4823 -1.5533
  158SAPE  C21017660   0.508   6.225   9.516 -0.0340 -0.4645 -0.4067
  158SAPE  H10R17661   0.579   6.301   9.557 -0.5512 -0.9673  1.5139
  158SAPE  H10S17662   0.410   6.276   9.503 -0.2859 -1.3044 -2.0802
  158SAPE  C21117663   0.568   6.174   9.382  0.4153 -0.0202  0.1020
  158SAPE  H11R17664   0.642   6.093   9.392  1.0092  0.3205 -1.3045
  158SAPE  C21217665   0.548   6.223   9.261 -0.0056  0.1310 -0.1237
  158SAPE  H12R17666   0.607   6.181   9.178 -2.2265  0.3645 -1.9356
  158SAPE  C21317667   0.460   6.329   9.211  0.4926 -0.6068  0.7448
  158SAPE  H13R17668   0.527   6.405   9.165 -0.2642  0.1623  0.8975
  158SAPE  H13S17669   0.393   6.375   9.286 -0.6598  0.4820 -0.8787
  158SAPE  C21417670   0.376   6.275   9.102 -0.1863  0.0330 -0.7184
  158SAPE  H14R17671   0.332   6.179   9.132  2.7178 -0.7386  1.4317
  158SAPE  C21517672   0.332   6.339   8.996  0.2375  0.0243  0.8543
  158SAPE  H15R17673   0.276   6.281   8.921  2.5543 -3.7509  1.7275
  158SAPE  C21617674   0.376   6.481   8.952  0.4113 -0.0414 -0.1531
  158SAPE  H16R17675   0.470   6.509   9.005  0.9209 -1.9249  0.0108
  158SAPE  H16S17676   0.291   6.540   8.992 -0.7760 -2.2708  0.7534
  158SAPE  C21717677   0.411   6.512   8.806 -0.0962  0.5143  0.2230
  158SAPE  H17R17678   0.319   6.504   8.744 -1.1155 -2.3098  1.9202
  158SAPE  H17S17679   0.491   6.440   8.776 -0.3607  0.4754 -0.4071
  158SAPE  C21817680   0.473   6.644   8.780 -0.8117 -0.3454 -0.5885
  158SAPE  H18R17681   0.574   6.646   8.826 -1.3421 -2.5900  0.8676
  158SAPE  H18S17682   0.417   6.732   8.818 -1.0094 -0.8845  0.4127
  158SAPE  C21917683   0.495   6.666   8.633  0.4970  0.3436 -0.1099
  158SAPE  H19R17684   0.399   6.649   8.579  1.5228 -1.6997 -1.4629
  158SAPE  H19S17685   0.560   6.590   8.584 -0.4262  0.4965 -1.6640
  158SAPE  C22017686   0.545   6.798   8.597 -0.3053  0.2397  0.6129
  158SAPE  H20R17687   0.476   6.881   8.625 -0.8715 -0.2357  0.6478
  158SAPE  H20S17688   0.556   6.807   8.487  2.2586  0.6076  0.8340
  158SAPE  H20T17689   0.644   6.811   8.647  0.1605  0.0390 -0.2305
  158SAPE   C3317690  -0.045   6.258  10.087 -0.1684  0.0212 -0.1232
  158SAPE   H3X17691  -0.059   6.347  10.151  1.3301  1.1851 -1.3143
  158SAPE   H3Y17692  -0.119   6.268  10.005  1.5239  2.9261 -1.4563
  158SAPE   C3417693   0.092   6.279  10.018  0.1676 -0.0072 -0.1244
  158SAPE   H4X17694   0.117   6.199   9.945  1.4484  0.4517 -0.2079
  158SAPE   H4Y17695   0.167   6.285  10.099  0.2593  0.6538 -0.2553
  158SAPE   C3517696   0.093   6.416   9.937 -0.5099 -0.6940 -1.0173
  158SAPE   H5X17697   0.090   6.503  10.007 -1.1723  1.0544 -3.1010
  158SAPE   H5Y17698   0.005   6.428   9.869 -1.6885  1.9827  0.8024
  158SAPE   C3617699   0.221   6.426   9.856 -0.5621  0.3810  0.1092
  158SAPE   H6X17700   0.246   6.341   9.789  0.3140  0.6111  0.1299
  158SAPE   H6Y17701   0.313   6.432   9.919 -0.4507 -2.2477  0.3107
  158SAPE   C3717702   0.226   6.557   9.774 -0.0539  0.2060 -0.5041
  158SAPE   H7X17703   0.289   6.633   9.825 -0.7336  0.0975  0.5299
  158SAPE   H7Y17704   0.123   6.599   9.768  1.2617  4.0396  0.4130
  158SAPE   C3817705   0.288   6.540   9.637 -0.0540 -0.4988  0.1183
  158SAPE   H8X17706   0.232   6.468   9.573  0.8049 -2.8306  1.8175
  158SAPE   H8Y17707   0.389   6.494   9.652  0.1442  0.4329  1.8685
  158SAPE   C3917708   0.298   6.673   9.565  0.6864  0.1156  0.4908
  158SAPE   H9X17709   0.353   6.742   9.632 -2.0079  1.7144  1.2480
  158SAPE   H9Y17710   0.191   6.703   9.563  0.4655 -0.6661 -0.0971
  158SAPE  C31017711   0.358   6.657   9.420  0.0229 -0.2449 -0.0328
  158SAPE  H10X17712   0.295   6.589   9.359 -1.8527  2.0921 -0.8654
  158SAPE  H10Y17713   0.456   6.607   9.433  0.0016 -0.4471 -0.6416
  158SAPE  C31117714   0.374   6.801   9.351  0.1489  0.2680 -0.4379
  158SAPE  H11X17715   0.414   6.873   9.425 -1.7939  0.6317  0.2906
  158SAPE  H11Y17716   0.270   6.832   9.329 -0.3169 -1.2156 -0.4002
  158SAPE  C31217717   0.459   6.812   9.222 -0.2929  0.2653  0.4625
  158SAPE  H12X17718   0.410   6.744   9.149  0.2193 -0.8884  1.1695
  158SAPE  H12Y17719   0.563   6.789   9.250 -0.9256 -1.3842  1.6079
  158SAPE  C31317720   0.466   6.956   9.158  0.6264  0.2242  0.8372
  158SAPE  H13X17721   0.489   7.020   9.246  0.1450  0.5602  0.7234
  158SAPE  H13Y17722   0.365   6.989   9.125  0.1254 -1.8186  0.1528
  158SAPE  C31417723   0.569   6.969   9.048 -0.2981 -0.7426  0.3133
  158SAPE  H14X17724   0.548   6.886   8.977  0.5979  0.5148 -1.5145
  158SAPE  H14Y17725   0.672   6.944   9.082  0.3530  1.0307 -0.2475
  158SAPE  C31517726   0.567   7.109   8.986 -0.5873 -0.0228 -0.3747
  158SAPE  H15X17727   0.585   7.183   9.065 -1.7969  0.4016 -0.4727
  158SAPE  H15Y17728   0.462   7.125   8.954  0.0037  1.0680 -1.8876
  158SAPE  C31617729   0.659   7.121   8.863 -0.2092 -0.1640  0.0930
  158SAPE  H16X17730   0.655   7.024   8.808 -0.3542 -0.3890  0.4934
  158SAPE  H16Y17731   0.765   7.122   8.895 -0.1680  0.3197 -0.0443
  158SAPE  C31717732   0.629   7.227   8.757 -0.6558 -0.3262 -1.3522
  158SAPE  H17X17733   0.650   7.332   8.787  0.6904 -0.2523 -2.4489
  158SAPE  H17Y17734   0.525   7.211   8.722 -0.3840 -2.7327 -1.2454
  158SAPE  C31817735   0.719   7.205   8.639 -0.1837  0.8402  0.6398
  158SAPE  H18X17736   0.680   7.277   8.564 -0.9212  0.7826  0.9570
  158SAPE  H18Y17737   0.692   7.109   8.590 -0.8439  1.3454 -0.0057
  158SAPE  H18Z17738   0.827   7.227   8.655  0.3361  0.4520 -1.9498
  159SAPE     N17739   3.372   6.255   6.459 -0.0620  0.3179 -0.0795
  159SAPE   HN117740   3.432   6.186   6.409  1.3255  0.2718  1.5685
  159SAPE   HN217741   3.350   6.331   6.390  0.0074 -0.8271 -1.4168
  159SAPE   HN317742   3.416   6.305   6.539 -1.9124  0.8205  0.6710
  159SAPE   C1217743   3.246   6.196   6.511 -0.0584 -0.9115  0.1507
  159SAPE  H12A17744   3.205   6.131   6.431  1.0300 -1.0842 -0.2858
  159SAPE  H12B17745   3.170   6.276   6.524 -1.0554 -1.5646 -1.3694
  159SAPE   C1117746   3.266   6.118   6.636  0.3466 -0.1656 -0.2692
  159SAPE  H11A17747   3.168   6.068   6.653  0.3018 -0.2835 -0.8439
  159SAPE  H11B17748   3.271   6.191   6.719  0.1329  1.5116 -1.6698
  159SAPE     P17749   3.502   6.016   6.701  0.5048  0.5802 -0.3187
  159SAPE   O1317750   3.576   5.897   6.651 -0.4576  0.3488  0.2313
  159SAPE   O1417751   3.562   6.151   6.674 -0.4409 -0.3078 -0.3612
  159SAPE   O1217752   3.364   6.012   6.626  0.3534 -0.4886 -0.3019
  159SAPE   O1117753   3.454   5.993   6.846  0.1199 -0.1147 -0.8608
  159SAPE    C117754   3.376   5.875   6.887 -0.1800 -0.0744 -0.8166
  159SAPE    HA17755   3.273   5.873   6.847 -1.1802  1.9236  1.4027
  159SAPE    HB17756   3.439   5.784   6.874  2.0179  1.3171 -0.4790
  159SAPE    C217757   3.350   5.870   7.039  0.3369  0.0396 -1.2082
  159SAPE    HS17758   3.287   5.781   7.060  0.6043  0.0958 -0.1044
  159SAPE   O2117759   3.305   6.002   7.085  0.5597 -0.5312 -0.3614
  159SAPE   C2117760   3.184   6.025   7.045  0.9550  0.3897  1.1315
  159SAPE   O2217761   3.110   5.944   6.990 -0.3754  0.3720  0.7265
  159SAPE   C2217762   3.154   6.161   7.093 -0.8099  0.1237  0.3559
  159SAPE   H2R17763   3.071   6.141   7.163  0.3228 -2.5561  1.0439
  159SAPE   H2S17764   3.234   6.201   7.159 -0.5402 -0.2857  0.2858
  159SAPE    C317765   3.486   5.842   7.102  0.2148 -0.3947 -0.7232
  159SAPE    HX17766   3.545   5.933   7.079  0.2548 -0.2736 -0.1733
  159SAPE    HY17767   3.541   5.760   7.050  2.4070 -0.1340  0.9953
  159SAPE   O3117768   3.486   5.827   7.247 -0.0984 -0.0565 -0.5583
  159SAPE   C3117769   3.494   5.699   7.289  0.3994 -1.0497 -0.2995
  159SAPE   O3217770   3.487   5.601   7.222  0.1510  0.1903  0.3987
  159SAPE   C3217771   3.497   5.695   7.443  0.1444 -0.6390 -0.7425
  159SAPE   H2X17772   3.438   5.774   7.495  0.5578 -2.4252  2.7821
  159SAPE   H2Y17773   3.603   5.720   7.463 -0.3455  1.2837 -0.3265
  159SAPE   C2317774   3.110   6.273   6.984 -0.4083 -0.1656 -0.5879
  159SAPE   H3R17775   3.015   6.235   6.940  0.2275 -1.8916 -0.5374
  159SAPE   H3S17776   3.194   6.285   6.912  1.1178 -1.2294  0.9449
  159SAPE   C2417777   3.105   6.409   7.056  0.3754  0.1487 -1.1435
  159SAPE   H4R17778   3.093   6.502   6.997  0.1501 -0.6356 -2.3685
  159SAPE   H4S17779   3.203   6.432   7.103  0.1844  2.6672 -1.8303
  159SAPE   C2517780   2.997   6.405   7.167 -0.6524 -0.1664 -0.3364
  159SAPE   H5R17781   2.897   6.401   7.121 -0.5483  1.6461 -0.7880
  159SAPE   C2617782   3.010   6.424   7.297  1.0007 -0.0419 -0.3415
  159SAPE   H6R17783   2.912   6.423   7.347  0.7024  1.0695 -0.8773
  159SAPE   C2717784   3.129   6.447   7.383 -0.0009 -0.0310  0.3079
  159SAPE   H7R17785   3.204   6.503   7.324  1.6291  0.9319  3.1243
  159SAPE   H7S17786   3.183   6.353   7.404 -0.2297  0.4129  3.2977
  159SAPE   C2817787   3.104   6.521   7.512  0.1469 -0.1733  0.7497
  159SAPE   H8R17788   3.106   6.630   7.499  0.9520 -0.3367 -0.7561
  159SAPE   C2917789   3.074   6.477   7.633  0.7546  0.2077  0.3580
  159SAPE   H9R17790   3.059   6.553   7.711  1.1535 -0.0600  0.6998
  159SAPE  C21017791   3.067   6.335   7.672  0.3384  0.6686  0.2468
  159SAPE  H10R17792   3.167   6.301   7.707 -0.3006 -0.6503  0.8565
  159SAPE  H10S17793   3.028   6.274   7.589 -2.0848  1.5839  0.6061
  159SAPE  C21117794   2.956   6.314   7.778  0.5456 -0.2731  0.2027
  159SAPE  H11R17795   2.875   6.249   7.741  2.4805 -2.7133 -0.0497
  159SAPE  C21217796   2.959   6.347   7.908  0.5562  0.4427  0.4099
  159SAPE  H12R17797   2.866   6.324   7.961  0.2634 -0.2382 -0.3791
  159SAPE  C21317798   3.067   6.417   7.984 -0.0753  0.0659 -0.2491
  159SAPE  H13R17799   3.048   6.527   7.989  1.2611  0.4548 -2.3821
  159SAPE  H13S17800   3.163   6.410   7.929 -0.0472  1.9711 -0.5073
  159SAPE  C21417801   3.074   6.361   8.125  0.0497 -0.4921  0.1697
  159SAPE  H14R17802   3.014   6.270   8.138  1.0835 -1.1685  0.3544
  159SAPE  C21517803   3.141   6.417   8.233  0.1991 -0.6132 -0.6883
  159SAPE  H15R17804   3.140   6.360   8.327 -0.3099  0.8547  0.2474
  159SAPE  C21617805   3.227   6.540   8.234 -0.1642 -0.0523 -0.0950
  159SAPE  H16R17806   3.251   6.593   8.140  0.3764  1.5798  0.9184
  159SAPE  H16S17807   3.324   6.521   8.286 -0.7509 -2.0687  0.3466
  159SAPE  C21717808   3.144   6.654   8.311  0.0768 -0.6052  0.0074
  159SAPE  H17R17809   3.042   6.656   8.268  0.6583 -0.1077 -1.4263
  159SAPE  H17S17810   3.202   6.747   8.290 -0.1830 -0.1895  1.0448
  159SAPE  C21817811   3.140   6.637   8.463 -0.3352 -0.3333 -0.0310
  159SAPE  H18R17812   3.240   6.631   8.510  0.1849 -1.5495 -1.2266
  159SAPE  H18S17813   3.081   6.547   8.490  0.1033  0.1139  2.7892
  159SAPE  C21917814   3.059   6.750   8.522  0.2256  0.6060 -0.7824
  159SAPE  H19R17815   3.037   6.731   8.629 -0.9975  0.6434 -1.0229
  159SAPE  H19S17816   2.963   6.749   8.466 -0.6461 -0.7000  0.6637
  159SAPE  C22017817   3.126   6.889   8.504 -0.9296  0.3291 -0.1978
  159SAPE  H20R17818   3.212   6.902   8.573 -1.7020  1.9656  0.5056
  159SAPE  H20S17819   3.045   6.962   8.522 -1.3062  0.3077 -1.6819
  159SAPE  H20T17820   3.166   6.906   8.402  0.4897 -0.8280  0.1356
  159SAPE   C3317821   3.464   5.555   7.482  0.3199  0.6590  0.2392
  159SAPE   H3X17822   3.547   5.496   7.437  1.1177  1.1804  0.9877
  159SAPE   H3Y17823   3.367   5.529   7.434  0.5005  1.9667 -0.8868
  159SAPE   C3417824   3.468   5.528   7.631  0.4649 -0.4504 -0.1625
  159SAPE   H4X17825   3.381   5.583   7.673  1.0001  0.2500  0.0496
  159SAPE   H4Y17826   3.550   5.578   7.687 -1.6432  1.7507  1.1031
  159SAPE   C3517827   3.447   5.378   7.668  0.2025 -0.2948  0.3663
  159SAPE   H5X17828   3.526   5.318   7.618 -0.9366 -2.7139  1.3159
  159SAPE   H5Y17829   3.350   5.345   7.625  0.5830 -0.5841 -0.2897
  159SAPE   C3617830   3.453   5.352   7.830 -0.5690  0.7752 -0.2430
  159SAPE   H6X17831   3.557   5.377   7.858 -0.1260 -2.5179  1.5934
  159SAPE   H6Y17832   3.441   5.244   7.854 -2.4336  1.0980  0.4246
  159SAPE   C3717833   3.350   5.436   7.901  0.4812  0.4965  0.1349
  159SAPE   H7X17834   3.256   5.379   7.885  0.1383  0.6373  1.4903
  159SAPE   H7Y17835   3.338   5.539   7.861 -2.0059  0.0510 -0.4665
  159SAPE   C3817836   3.371   5.444   8.051  1.0752  0.2925 -0.0255
  159SAPE   H8X17837   3.334   5.541   8.091  1.4245  1.1218 -1.6569
  159SAPE   H8Y17838   3.480   5.426   8.062  1.0844 -1.4834 -2.2877
  159SAPE   C3917839   3.284   5.333   8.112 -0.0351  0.0432 -0.2341
  159SAPE   H9X17840   3.285   5.236   8.059 -0.3152 -1.0207  1.6400
  159SAPE   H9Y17841   3.182   5.377   8.107 -0.1448 -0.2950 -1.2522
  159SAPE  C31017842   3.321   5.320   8.263  0.2539  0.1955 -0.0132
  159SAPE  H10X17843   3.265   5.249   8.327  0.5627 -0.9314 -0.9507
  159SAPE  H10Y17844   3.308   5.413   8.322 -1.6731 -0.6198  0.9283
  159SAPE  C31117845   3.459   5.259   8.276 -0.1663  0.0832  0.2677
  159SAPE  H11X17846   3.520   5.323   8.344  0.2821  0.5700 -0.5835
  159SAPE  H11Y17847   3.508   5.246   8.178  1.1691  0.0591  0.9059
  159SAPE  C31217848   3.467   5.122   8.342  0.1430  0.5477  0.7061
  159SAPE  H12X17849   3.398   5.055   8.288  0.6521 -0.2661  1.0487
  159SAPE  H12Y17850   3.448   5.123   8.452 -2.1091 -1.7957  0.4200
  159SAPE  C31317851   3.603   5.054   8.315  0.0627  0.0137 -0.1419
  159SAPE  H13X17852   3.672   5.105   8.386  0.6295  1.4326 -1.6292
  159SAPE  H13Y17853   3.629   5.073   8.209 -3.6054  1.3785 -0.9426
  159SAPE  C31417854   3.614   4.907   8.346 -0.0965  0.0664 -0.8454
  159SAPE  H14X17855   3.714   4.867   8.316 -0.0254  0.1148 -0.6747
  159SAPE  H14Y17856   3.533   4.852   8.294  1.4263 -2.8819 -0.3750
  159SAPE  C31517857   3.609   4.885   8.503 -0.4694  0.5926 -0.3151
  159SAPE  H15X17858   3.515   4.932   8.537  0.4741  1.6287  0.9601
  159SAPE  H15Y17859   3.699   4.936   8.543 -0.4738 -0.5838  1.2503
  159SAPE  C31617860   3.609   4.741   8.540  0.1319 -0.1984 -0.0845
  159SAPE  H16X17861   3.569   4.740   8.644  0.1402 -0.5963 -0.0837
  159SAPE  H16Y17862   3.709   4.693   8.547 -0.5355 -1.4669  1.8502
  159SAPE  C31717863   3.521   4.651   8.446 -0.4436  0.5313  0.2094
  159SAPE  H17X17864   3.568   4.650   8.345 -0.0667 -2.3129  0.3238
  159SAPE  H17Y17865   3.413   4.678   8.456 -0.5204 -0.3062  1.9255
  159SAPE  C31817866   3.514   4.503   8.485 -0.0946 -0.4300  0.1245
  159SAPE  H18X17867   3.458   4.493   8.580  0.2091 -0.8393  0.2621
  159SAPE  H18Y17868   3.612   4.452   8.498  0.2815  0.0713 -0.6243
  159SAPE  H18Z17869   3.460   4.451   8.403  0.1279  0.4764 -0.6165
  160SAPE     N17870   4.250   0.225   6.024  0.8118 -0.3868 -0.2091
  160SAPE   HN117871   4.270   0.292   5.947 -1.3667 -0.2569 -0.7261
  160SAPE   HN217872   4.244   0.281   6.112 -3.1444 -0.7851 -0.0325
  160SAPE   HN317873   4.334   0.163   6.025  0.9242 -0.2938  2.1903
  160SAPE   C1217874   4.118   0.152   6.000 -0.7348 -0.4689 -0.2832
  160SAPE  H12A17875   4.125   0.102   5.901  0.2188 -0.2705 -0.3294
  160SAPE  H12B17876   4.046   0.235   6.012 -1.6440 -1.4559  1.5408
  160SAPE   C1117877   4.085   0.051   6.119  1.1050  0.1561 -0.2754
  160SAPE  H11A17878   4.168  -0.020   6.099  1.0191  0.4598 -1.7995
  160SAPE  H11B17879   3.989  -0.001   6.096  0.6684  0.6138  0.4807
  160SAPE     P17880   3.980   0.136   6.354  0.1668 -0.1418  0.3312
  160SAPE   O1317881   3.945   0.280   6.336  0.4577  0.2640 -0.5265
  160SAPE   O1417882   3.870   0.046   6.325  0.4394  0.3302  0.7480
  160SAPE   O1217883   4.099   0.103   6.253  0.1821 -0.5692 -0.1217
  160SAPE   O1117884   4.034   0.112   6.504  0.1907 -0.0451 -0.2565
  160SAPE    C117885   4.020  -0.023   6.555 -0.0296 -0.0280 -0.4796
  160SAPE    HA17886   4.019  -0.099   6.474 -1.7831  0.3070 -0.8152
  160SAPE    HB17887   4.102  -0.038   6.628 -0.9292  3.5271  1.4786
  160SAPE    C217888   3.880  -0.055   6.632 -0.4090 -0.3493 -0.3074
  160SAPE    HS17889   3.793  -0.023   6.570 -0.6485 -1.1522 -0.3949
  160SAPE   O2117890   3.873   0.023   6.753 -0.3024 -0.3064 -0.1121
  160SAPE   C2117891   3.821   0.151   6.746 -0.1645 -0.3455 -0.6680
  160SAPE   O2217892   3.758   0.190   6.652  0.1240 -0.3218  0.3977
  160SAPE   C2217893   3.855   0.226   6.874 -0.3384 -0.3354  0.2172
  160SAPE   H2R17894   3.963   0.214   6.898  0.1310  0.2886 -1.4464
  160SAPE   H2S17895   3.843   0.335   6.856 -1.0263 -0.4011  0.2327
  160SAPE    C317896   3.849  -0.202   6.655 -0.5391 -0.0678 -0.6663
  160SAPE    HX17897   3.838  -0.254   6.557 -0.5582 -3.1704  0.8603
  160SAPE    HY17898   3.757  -0.198   6.717  0.6145  1.9750  1.0581
  160SAPE   O3117899   3.965  -0.270   6.715 -0.3551 -0.3361  0.1040
  160SAPE   C3117900   3.949  -0.296   6.848 -0.1043  0.1104  0.3785
  160SAPE   O3217901   3.861  -0.245   6.914  0.1192  0.6113  0.6159
  160SAPE   C3217902   4.070  -0.376   6.892  0.0689 -0.0672 -0.4031
  160SAPE   H2X17903   4.159  -0.310   6.900  0.1092 -0.2519  0.9283
  160SAPE   H2Y17904   4.074  -0.462   6.822  0.6527 -0.8350  0.5267
  160SAPE   C2317905   3.771   0.161   6.982  0.0547 -0.2305  0.4651
  160SAPE   H3R17906   3.814   0.061   7.004  1.2598  0.2730  0.4676
  160SAPE   H3S17907   3.667   0.144   6.948  0.2344 -1.4820  0.4837
  160SAPE   C2417908   3.780   0.230   7.116  0.6161  0.2997  0.3366
  160SAPE   H4R17909   3.760   0.336   7.091 -2.3447 -0.4274 -0.7999
  160SAPE   H4S17910   3.886   0.222   7.148  0.3639  1.7774  1.6355
  160SAPE   C2517911   3.687   0.178   7.225 -0.5678 -0.3167  0.1257
  160SAPE   H5R17912   3.587   0.217   7.204  0.0405 -0.0743 -2.7994
  160SAPE   C2617913   3.727   0.094   7.320 -0.0944 -0.8343 -0.6164
  160SAPE   H6R17914   3.653   0.067   7.397 -0.0341  0.8577  0.0719
  160SAPE   C2717915   3.861   0.023   7.330 -0.2921  0.2368 -0.7141
  160SAPE   H7R17916   3.945   0.088   7.361 -1.5063  1.2482  0.5841
  160SAPE   H7S17917   3.877  -0.026   7.232 -0.9209 -2.4432  0.4277
  160SAPE   C2817918   3.856  -0.092   7.429 -1.3024 -0.1419 -0.2189
  160SAPE   H8R17919   3.841  -0.192   7.385  0.7387 -0.7544  0.3781
  160SAPE   C2917920   3.869  -0.087   7.564 -1.0263  0.0309 -0.9190
  160SAPE   H9R17921   3.856  -0.178   7.624 -1.4058  1.3953  1.1937
  160SAPE  C21017922   3.896   0.038   7.652 -0.1449  0.4900  0.7579
  160SAPE  H10R17923   3.833   0.127   7.631  0.0891  0.7986  1.3366
  160SAPE  H10S17924   4.000   0.078   7.650 -0.1129  0.5339  2.2132
  160SAPE  C21117925   3.888   0.004   7.802  0.7748  0.5170  0.2300
  160SAPE  H11R17926   3.863  -0.102   7.819 -1.5451  0.7375 -1.3284
  160SAPE  C21217927   3.920   0.092   7.905 -0.7680  0.5326  0.2109
  160SAPE  H12R17928   3.918   0.052   8.008 -0.7183 -0.9045 -0.3225
  160SAPE  C21317929   3.971   0.233   7.895 -0.3596  0.0497  0.0610
  160SAPE  H13R17930   4.044   0.246   7.812 -0.3015 -0.8188 -0.0383
  160SAPE  H13S17931   4.042   0.259   7.977  2.4787 -1.1185 -1.8567
  160SAPE  C21417932   3.856   0.321   7.885 -0.0728 -0.0003  0.0287
  160SAPE  H14R17933   3.824   0.340   7.781  2.1879 -0.7169 -0.8624
  160SAPE  C21517934   3.796   0.390   7.982 -0.3614  0.1366  0.0933
  160SAPE  H15R17935   3.728   0.466   7.940 -0.6351 -1.2740 -2.2333
  160SAPE  C21617936   3.826   0.385   8.128  0.3858 -0.1566 -0.6438
  160SAPE  H16R17937   3.927   0.343   8.145 -0.1951 -1.0833  0.6808
  160SAPE  H16S17938   3.751   0.320   8.178  1.9573 -0.4071  1.5430
  160SAPE  C21717939   3.819   0.522   8.193 -0.4818  0.7883  0.9109
  160SAPE  H17R17940   3.739   0.589   8.154  0.5493  1.3469 -0.3244
  160SAPE  H17S17941   3.909   0.580   8.167  0.5307 -0.9486  0.3799
  160SAPE  C21817942   3.816   0.511   8.352 -0.0662  0.5334  0.8837
  160SAPE  H18R17943   3.918   0.473   8.374  0.5699  1.1513 -0.8054
  160SAPE  H18S17944   3.749   0.424   8.370  2.1372 -1.4265  0.1571
  160SAPE  C21917945   3.771   0.632   8.415 -0.1835  0.0887 -0.7609
  160SAPE  H19R17946   3.668   0.653   8.378 -0.6371 -1.2528 -0.2978
  160SAPE  H19S17947   3.839   0.717   8.392  0.8223 -0.0134  1.5746
  160SAPE  C22017948   3.778   0.605   8.563  0.3428 -0.2246 -0.1373
  160SAPE  H20R17949   3.730   0.694   8.609 -0.0178 -0.4486 -0.0751
  160SAPE  H20S17950   3.886   0.600   8.587  0.7525 -0.8174 -1.9173
  160SAPE  H20T17951   3.720   0.514   8.590  0.7428 -0.9490 -1.5802
  160SAPE   C3317952   4.045  -0.428   7.042  0.5982  0.6291  0.3449
  160SAPE   H3X17953   3.955  -0.493   7.038  0.2754  1.0109  1.1355
  160SAPE   H3Y17954   4.017  -0.344   7.108 -0.5038 -0.3743  1.1975
  160SAPE   C3417955   4.155  -0.510   7.105  0.5973 -0.7316  0.6871
  160SAPE   H4X17956   4.247  -0.448   7.118  0.2509 -0.2747  0.9917
  160SAPE   H4Y17957   4.183  -0.595   7.038 -0.8633  0.7099 -1.9121
  160SAPE   C3517958   4.128  -0.559   7.251 -0.3967  0.3737  0.1154
  160SAPE   H5X17959   4.201  -0.637   7.281 -2.2740 -0.9895  1.3453
  160SAPE   H5Y17960   4.036  -0.621   7.264 -0.6855  0.2661 -2.0820
  160SAPE   C3617961   4.129  -0.438   7.351  0.1224  0.3595  0.0229
  160SAPE   H6X17962   4.053  -0.361   7.330 -0.8382 -0.1465  1.4926
  160SAPE   H6Y17963   4.228  -0.389   7.342 -0.4962  1.5846 -0.2472
  160SAPE   C3717964   4.127  -0.482   7.504  0.2502  0.7608  0.5229
  160SAPE   H7X17965   4.205  -0.560   7.507  1.3952  1.7689 -1.0825
  160SAPE   H7Y17966   4.031  -0.527   7.536  1.2098 -0.5305  1.6673
  160SAPE   C3817967   4.180  -0.368   7.591  0.4848 -0.6063  0.1011
  160SAPE   H8X17968   4.111  -0.282   7.574  1.9619  0.5168 -0.4544
  160SAPE   H8Y17969   4.281  -0.343   7.554 -0.6741  4.4259 -0.4694
  160SAPE   C3917970   4.178  -0.417   7.738 -0.1272  0.0520 -0.2390
  160SAPE   H9X17971   4.234  -0.345   7.800 -3.8772  1.7262  1.5246
  160SAPE   H9Y17972   4.219  -0.519   7.754  0.8631  0.4265 -0.2994
  160SAPE  C31017973   4.039  -0.401   7.808  0.0410  0.1457 -0.0623
  160SAPE  H10X17974   3.966  -0.452   7.741 -2.7166  2.8099  0.7175
  160SAPE  H10Y17975   4.015  -0.293   7.803 -0.9701 -0.0972 -0.8126
  160SAPE  C31117976   4.042  -0.451   7.948 -0.7968 -0.3954 -0.3347
  160SAPE  H11X17977   4.139  -0.446   8.000 -1.5391 -2.2369  1.3662
  160SAPE  H11Y17978   4.020  -0.559   7.941  0.3900 -0.6149 -0.8457
  160SAPE  C31217979   3.943  -0.389   8.047  0.3836  0.5417  0.1499
  160SAPE  H12X17980   3.844  -0.355   8.012  0.0253 -1.1061 -0.5380
  160SAPE  H12Y17981   3.986  -0.301   8.100  1.2322  0.5812 -0.5779
  160SAPE  C31317982   3.903  -0.493   8.159 -0.1893  0.2341 -0.1205
  160SAPE  H13X17983   3.985  -0.511   8.231  0.5953  0.7854 -0.8511
  160SAPE  H13Y17984   3.888  -0.593   8.111 -2.5256 -0.0080  0.9823
  160SAPE  C31417985   3.783  -0.450   8.240 -0.1159 -0.3392  0.6178
  160SAPE  H14X17986   3.720  -0.398   8.164  0.5232 -1.6335 -0.8754
  160SAPE  H14Y17987   3.806  -0.371   8.314 -3.4584  1.1298  0.2705
  160SAPE  C31517988   3.709  -0.568   8.299  0.2361  0.4503 -0.4739
  160SAPE  H15X17989   3.779  -0.631   8.358 -0.8388 -0.6961 -0.3733
  160SAPE  H15Y17990   3.679  -0.614   8.203 -4.0957  3.1186 -0.6721
  160SAPE  C31617991   3.590  -0.516   8.382 -0.0061 -0.0602  0.2870
  160SAPE  H16X17992   3.535  -0.612   8.390  1.6000 -1.0881 -0.3253
  160SAPE  H16Y17993   3.524  -0.441   8.334 -1.2301 -1.8345 -0.9561
  160SAPE  C31717994   3.624  -0.467   8.524  0.1717 -0.4793  0.6711
  160SAPE  H17X17995   3.724  -0.509   8.546  1.0094  2.2671  2.7949
  160SAPE  H17Y17996   3.558  -0.517   8.598 -0.5389  0.4502  0.6947
  160SAPE  C31817997   3.615  -0.319   8.532 -0.1684  0.5670 -0.1765
  160SAPE  H18X17998   3.515  -0.276   8.515 -1.0391 -0.6331  1.5629
  160SAPE  H18Y17999   3.694  -0.275   8.468  0.9252 -0.3716  0.4804
  160SAPE  H18Z18000   3.638  -0.287   8.636  1.9858 -0.8023 -0.1714
  161SAPE     N18001   5.277   4.310   6.239  0.4760  0.1103 -0.0752
  161SAPE   HN118002   5.232   4.390   6.287  0.8901  0.2642  0.0664
  161SAPE   HN218003   5.356   4.268   6.293 -1.0992 -0.0542  2.2461
  161SAPE   HN318004   5.320   4.349   6.153 -1.0762 -0.1228 -0.9956
  161SAPE   C1218005   5.187   4.193   6.227 -0.6324  0.4152  0.0239
  161SAPE  H12A18006   5.185   4.159   6.333  4.2195  0.6772  0.4404
  161SAPE  H12B18007   5.232   4.105   6.178  1.9731  2.5970 -1.8418
  161SAPE   C1118008   5.048   4.244   6.194  0.2928 -0.0512  0.8193
  161SAPE  H11A18009   4.975   4.161   6.206 -2.3545  1.4825 -3.0628
  161SAPE  H11B18010   5.047   4.272   6.087  0.8879  3.3809  1.6135
  161SAPE     P18011   4.867   4.362   6.335  0.4366  0.5390 -0.4344
  161SAPE   O1318012   4.843   4.493   6.395 -0.0982 -0.3570 -0.2998
  161SAPE   O1418013   4.764   4.322   6.235  0.1209 -0.1736 -0.3829
  161SAPE   O1218014   5.009   4.363   6.271 -0.2558  0.6481 -0.0618
  161SAPE   O1118015   4.876   4.242   6.441 -0.0460 -0.0786 -0.3468
  161SAPE    C118016   4.977   4.235   6.536 -0.3664  0.1477  0.3566
  161SAPE    HA18017   5.023   4.136   6.513  2.8483  2.1983 -3.1420
  161SAPE    HB18018   5.060   4.308   6.525 -0.8825  0.6801 -0.0627
  161SAPE    C218019   4.919   4.240   6.683  0.8771  0.6680  0.0883
  161SAPE    HS18020   4.852   4.153   6.704  2.1660 -0.2334  0.5858
  161SAPE   O2118021   4.849   4.364   6.693  0.0597 -0.0875 -0.0193
  161SAPE   C2118022   4.750   4.374   6.777  0.5496 -0.1439 -0.2331
  161SAPE   O2218023   4.686   4.285   6.824  0.3447  0.2591 -0.1132
  161SAPE   C2218024   4.720   4.521   6.815  0.5268  0.4148  0.5489
  161SAPE   H2R18025   4.798   4.590   6.776  1.7613 -0.8359  0.7443
  161SAPE   H2S18026   4.625   4.536   6.758  0.9526 -1.2692 -0.6898
  161SAPE    C318027   5.023   4.229   6.794 -0.0650  0.0694 -0.6605
  161SAPE    HX18028   5.092   4.314   6.775  1.8104 -1.3645 -0.5900
  161SAPE    HY18029   5.098   4.151   6.768 -0.4748 -0.2064 -1.0336
  161SAPE   O3118030   4.971   4.231   6.928  0.7337 -0.1653  0.0915
  161SAPE   C3118031   4.926   4.108   6.967 -0.4883 -0.5795  0.5626
  161SAPE   O3218032   4.936   4.007   6.900  0.2948 -0.1709 -0.2666
  161SAPE   C3218033   4.885   4.126   7.115  0.3949 -0.0960 -0.1720
  161SAPE   H2X18034   4.786   4.178   7.115  1.1947  1.4996 -0.9626
  161SAPE   H2Y18035   4.957   4.195   7.163 -0.2160  0.4776 -0.0595
  161SAPE   C2318036   4.694   4.544   6.961  0.0028 -0.5299 -0.2501
  161SAPE   H3R18037   4.688   4.445   7.012 -2.2628 -0.8537 -1.0114
  161SAPE   H3S18038   4.588   4.578   6.972  0.3321  0.7938 -1.0427
  161SAPE   C2418039   4.793   4.642   7.022 -0.7629 -0.0223  0.3022
  161SAPE   H4R18040   4.749   4.683   7.116 -1.0736  0.7401 -0.1702
  161SAPE   H4S18041   4.809   4.719   6.944 -1.5834 -2.9703 -3.0700
  161SAPE   C2518042   4.931   4.589   7.040 -0.0510  0.2538  0.5955
  161SAPE   H5R18043   4.980   4.565   6.944  0.0051  0.8937  0.4629
  161SAPE   C2618044   4.978   4.541   7.151  0.0767 -0.6767 -1.4034
  161SAPE   H6R18045   5.075   4.490   7.154  1.2779  1.5504  0.1707
  161SAPE   C2718046   4.898   4.542   7.283 -0.2946  0.1829  0.0194
  161SAPE   H7R18047   4.939   4.459   7.344  2.6532 -0.6106 -2.7489
  161SAPE   H7S18048   4.797   4.502   7.262  0.3806 -1.6381  0.0390
  161SAPE   C2818049   4.901   4.675   7.348 -0.2130 -0.6833 -0.5265
  161SAPE   H8R18050   4.878   4.765   7.288 -0.3736  0.4469  1.1350
  161SAPE   C2918051   4.928   4.696   7.481  0.1641 -0.1333 -0.4780
  161SAPE   H9R18052   4.930   4.801   7.513  2.3998 -0.0971 -0.5795
  161SAPE  C21018053   4.970   4.601   7.590  0.4470  0.9204 -0.1811
  161SAPE  H10R18054   5.038   4.648   7.664 -2.0644 -0.1322  3.0064
  161SAPE  H10S18055   5.034   4.526   7.538  0.8067  0.7026  0.5643
  161SAPE  C21118056   4.861   4.527   7.650 -0.4627  1.3113 -0.3297
  161SAPE  H11R18057   4.758   4.550   7.620 -0.1015  0.4109 -2.4320
  161SAPE  C21218058   4.879   4.410   7.729 -0.2674 -0.1786 -0.0790
  161SAPE  H12R18059   4.794   4.346   7.756  0.2579  0.3197  3.2075
  161SAPE  C21318060   5.016   4.373   7.760 -0.7987  0.4060  0.3110
  161SAPE  H13R18061   5.019   4.359   7.871 -0.4136 -0.2508  0.2249
  161SAPE  H13S18062   5.094   4.446   7.730 -2.1958  1.0226 -2.0272
  161SAPE  C21418063   5.053   4.242   7.694  0.0234  0.3343  0.0364
  161SAPE  H14R18064   5.103   4.254   7.597 -0.0069  1.1854  0.1181
  161SAPE  C21518065   5.034   4.113   7.740 -0.3024 -0.4343  0.4080
  161SAPE  H15R18066   5.047   4.029   7.670  2.9885  0.6562 -0.5227
  161SAPE  C21618067   4.973   4.084   7.879  0.7416  0.5617 -0.7060
  161SAPE  H16R18068   4.942   3.978   7.895  1.9011  0.3345  0.1310
  161SAPE  H16S18069   4.884   4.149   7.895  0.4854  0.0152  0.1896
  161SAPE  C21718070   5.072   4.106   7.997 -0.3815  0.6673  0.6258
  161SAPE  H17R18071   5.131   4.199   7.988 -1.5498  1.2355 -3.6834
  161SAPE  H17S18072   5.146   4.023   7.993 -0.6330  0.1282  4.2297
  161SAPE  C21818073   4.994   4.089   8.125  0.1934  0.1770  0.2287
  161SAPE  H18R18074   5.059   4.051   8.207 -0.0275  0.4787  0.5438
  161SAPE  H18S18075   4.912   4.018   8.100 -0.4999  1.1328 -0.2479
  161SAPE  C21918076   4.933   4.221   8.170  0.1871  0.2648 -0.6705
  161SAPE  H19R18077   4.862   4.187   8.248  1.3721  0.4999  0.5533
  161SAPE  H19S18078   4.880   4.271   8.086  0.5813 -1.9460 -2.3387
  161SAPE  C22018079   5.011   4.321   8.236 -0.5467 -0.2738  0.6551
  161SAPE  H20R18080   4.940   4.403   8.260  1.3685  1.3344  1.0350
  161SAPE  H20S18081   5.096   4.367   8.181  0.1686  1.1840  2.8337
  161SAPE  H20T18082   5.056   4.286   8.331 -2.5278 -0.9586  1.3997
  161SAPE   C3318083   4.875   3.993   7.183  0.5124 -0.1589  0.1231
  161SAPE   H3X18084   4.972   3.939   7.185  1.3880  1.3314  1.8365
  161SAPE   H3Y18085   4.799   3.925   7.141 -0.6712  1.1558  0.0567
  161SAPE   C3418086   4.837   4.020   7.333  0.8165 -0.2732  0.0048
  161SAPE   H4X18087   4.749   4.087   7.319  0.5046 -1.0186 -1.9330
  161SAPE   H4Y18088   4.913   4.079   7.389  0.7456  2.3975 -2.4638
  161SAPE   C3518089   4.792   3.899   7.403  0.0463 -0.2235  0.0215
  161SAPE   H5X18090   4.873   3.833   7.442 -1.0952 -1.0735  1.0339
  161SAPE   H5Y18091   4.733   3.834   7.335  2.3036 -1.3492 -0.9801
  161SAPE   C3618092   4.710   3.938   7.525  1.0676  0.9757 -0.5506
  161SAPE   H6X18093   4.616   3.986   7.492  0.7959  0.2482 -0.8478
  161SAPE   H6Y18094   4.772   4.015   7.576 -0.0066  0.8491  1.0044
  161SAPE   C3718095   4.667   3.814   7.607 -0.6317 -0.3839  0.4152
  161SAPE   H7X18096   4.701   3.722   7.555 -0.0937 -0.6114  1.1665
  161SAPE   H7Y18097   4.557   3.801   7.621 -0.6628 -0.6832 -0.0681
  161SAPE   C3818098   4.729   3.819   7.751  0.7134 -0.0292 -0.9267
  161SAPE   H8X18099   4.682   3.890   7.822  1.1056  0.9323 -1.6106
  161SAPE   H8Y18100   4.837   3.843   7.741  0.6703  0.8703  0.5438
  161SAPE   C3918101   4.704   3.682   7.815  0.4694 -0.4815  0.4687
  161SAPE   H9X18102   4.758   3.605   7.755 -0.3387  1.5633 -3.1689
  161SAPE   H9Y18103   4.597   3.656   7.807  0.6088 -1.2090  0.8563
  161SAPE  C31018104   4.760   3.684   7.958  0.7202 -0.3903 -0.3158
  161SAPE  H10X18105   4.769   3.791   7.987 -0.4293  0.0134 -1.3667
  161SAPE  H10Y18106   4.865   3.648   7.957  0.6832 -0.5004 -1.1084
  161SAPE  C31118107   4.675   3.618   8.059  0.4889 -0.3328 -0.1277
  161SAPE  H11X18108   4.692   3.509   8.048  4.2653  0.2307 -1.3612
  161SAPE  H11Y18109   4.566   3.636   8.047  0.3708 -1.4289 -0.8838
  161SAPE  C31218110   4.708   3.657   8.205 -0.1601 -0.2769  0.5525
  161SAPE  H12X18111   4.674   3.761   8.226  0.7967  0.4693 -1.3789
  161SAPE  H12Y18112   4.818   3.653   8.215  0.2468  3.6856 -0.6282
  161SAPE  C31318113   4.632   3.580   8.311  0.2626  0.5355 -0.8914
  161SAPE  H13X18114   4.706   3.587   8.393  0.3807 -1.3412 -0.7976
  161SAPE  H13Y18115   4.631   3.472   8.285  0.3902 -0.0023  1.1727
  161SAPE  C31418116   4.485   3.625   8.331 -0.0371  0.0425  0.3528
  161SAPE  H14X18117   4.429   3.532   8.352  2.0520 -1.1456  0.9474
  161SAPE  H14Y18118   4.446   3.665   8.236 -1.4667 -2.3357 -0.1473
  161SAPE  C31518119   4.475   3.734   8.441  0.4251  0.3924 -0.2100
  161SAPE  H15X18120   4.373   3.778   8.432 -1.5301 -3.6854 -0.1358
  161SAPE  H15Y18121   4.545   3.816   8.415  0.5184 -0.2043 -2.0368
  161SAPE  C31618122   4.506   3.669   8.581  0.3488 -0.6368  0.2544
  161SAPE  H16X18123   4.616   3.652   8.578  0.4734  0.1573  0.0544
  161SAPE  H16Y18124   4.443   3.578   8.591 -1.0906  0.0874 -1.5038
  161SAPE  C31718125   4.494   3.779   8.688 -0.6058 -0.1283  0.4934
  161SAPE  H17X18126   4.389   3.814   8.699 -0.3994  1.0496 -0.8639
  161SAPE  H17Y18127   4.575   3.850   8.663  1.4082 -2.1206  1.0590
  161SAPE  C31818128   4.532   3.701   8.817 -0.1661 -0.1730 -0.1516
  161SAPE  H18X18129   4.642   3.689   8.828  0.0198  1.1290 -0.4001
  161SAPE  H18Y18130   4.478   3.604   8.817 -2.4064  0.9229  2.6813
  161SAPE  H18Z18131   4.499   3.771   8.897  1.2763  1.6857 -1.1121
  162SAPE     N18132   5.954   0.031   6.252 -0.2735  0.1185 -0.0370
  162SAPE   HN118133   5.894   0.095   6.308  0.1071  1.6006 -1.2485
  162SAPE   HN218134   5.914  -0.065   6.258  0.7325 -0.5063 -2.1444
  162SAPE   HN318135   6.048   0.016   6.294 -0.2020 -0.3964 -0.3699
  162SAPE   C1218136   5.945   0.093   6.114  0.4496  0.3272  0.0873
  162SAPE  H12A18137   6.008   0.049   6.034  1.3947  0.5151  0.7217
  162SAPE  H12B18138   5.993   0.192   6.127  1.0617  0.3185 -1.8776
  162SAPE   C1118139   5.812   0.128   6.049 -0.2489  0.0200 -0.3886
  162SAPE  H11A18140   5.751   0.036   6.038  1.9041 -1.2229 -3.2152
  162SAPE  H11B18141   5.827   0.164   5.944  3.3794 -0.7420 -0.2586
  162SAPE     P18142   5.730   0.375   6.111 -0.0789 -0.1865  0.5793
  162SAPE   O1318143   5.814   0.414   5.999  0.0093  0.0002 -0.2862
  162SAPE   O1418144   5.586   0.421   6.111 -0.3654 -0.5055 -0.6592
  162SAPE   O1218145   5.731   0.216   6.129  0.5127 -0.4931  0.1331
  162SAPE   O1118146   5.788   0.420   6.249 -0.2898  0.0562  0.0044
  162SAPE    C118147   5.924   0.431   6.283 -0.4018 -0.3591  0.2834
  162SAPE    HA18148   5.949   0.329   6.319 -2.2295 -1.9152 -2.4800
  162SAPE    HB18149   5.981   0.465   6.194 -1.1175  1.3895  0.4600
  162SAPE    C218150   5.938   0.541   6.386  0.2882 -0.2795  0.6446
  162SAPE    HS18151   6.046   0.541   6.411  0.7404 -1.8125 -1.0546
  162SAPE   O2118152   5.856   0.515   6.496  0.3175 -0.0992 -0.3479
  162SAPE   C2118153   5.899   0.421   6.578 -0.7166  0.6814  0.3590
  162SAPE   O2218154   6.003   0.357   6.571  0.7881 -0.0664 -0.4055
  162SAPE   C2218155   5.803   0.399   6.682 -0.1150 -0.3839  0.8055
  162SAPE   H2R18156   5.797   0.490   6.745  0.3411  0.1412  0.1026
  162SAPE   H2S18157   5.705   0.386   6.632  1.5226 -0.8279 -2.5638
  162SAPE    C318158   5.891   0.680   6.325  0.3315  0.1122  0.3281
  162SAPE    HX18159   5.787   0.658   6.293  0.2698 -0.8212  1.1106
  162SAPE    HY18160   5.946   0.712   6.234 -0.4887 -2.6431 -1.2523
  162SAPE   O3118161   5.877   0.782   6.426 -0.2335  0.2084  0.2597
  162SAPE   C3118162   5.990   0.837   6.465 -0.2279  0.9151 -0.6538
  162SAPE   O3218163   6.099   0.798   6.428 -0.1398 -0.0977  0.1074
  162SAPE   C3218164   5.971   0.942   6.579 -0.3821 -0.1074  0.7837
  162SAPE   H2X18165   5.870   0.989   6.573  0.5196  1.7529 -1.7343
  162SAPE   H2Y18166   6.054   1.015   6.571  1.0024 -1.7486 -0.4198
  162SAPE   C2318167   5.831   0.288   6.776 -0.2602  0.3256 -0.0853
  162SAPE   H3R18168   5.918   0.312   6.841  0.4500 -2.9607  0.3641
  162SAPE   H3S18169   5.847   0.197   6.714  0.1695  0.5362 -0.2847
  162SAPE   C2418170   5.710   0.258   6.866  0.0733  0.3573 -0.0221
  162SAPE   H4R18171   5.762   0.185   6.931  1.4586 -0.4892 -1.9811
  162SAPE   H4S18172   5.633   0.199   6.811  1.1141 -0.9406 -0.1251
  162SAPE   C2518173   5.645   0.373   6.930  0.3286  0.8885 -0.1246
  162SAPE   H5R18174   5.585   0.444   6.871 -0.2011 -0.2873 -1.0261
  162SAPE   C2618175   5.653   0.399   7.063 -0.2755  0.1010  0.2986
  162SAPE   H6R18176   5.599   0.488   7.098 -1.3460 -0.5170  0.2628
  162SAPE   C2718177   5.740   0.327   7.166  0.1707 -0.0121  0.7143
  162SAPE   H7R18178   5.749   0.218   7.147 -0.0647 -0.3424  2.3110
  162SAPE   H7S18179   5.701   0.339   7.270 -1.1027  1.1779  0.1274
  162SAPE   C2818180   5.880   0.388   7.154  0.1512  0.5828  0.2162
  162SAPE   H8R18181   5.935   0.355   7.065  2.3108 -0.7430  1.9442
  162SAPE   C2918182   5.943   0.468   7.239 -0.4869 -0.3982  0.4432
  162SAPE   H9R18183   6.039   0.510   7.203  0.7822 -2.2264  1.5285
  162SAPE  C21018184   5.895   0.524   7.373  0.6803  0.2753  0.7092
  162SAPE  H10R18185   5.984   0.563   7.427  1.3741 -1.0543  0.5706
  162SAPE  H10S18186   5.866   0.439   7.438  0.3168  0.2015  0.4555
  162SAPE  C21118187   5.783   0.626   7.373  0.0256  0.2072  0.3297
  162SAPE  H11R18188   5.735   0.645   7.276  0.4908  2.0106  0.4191
  162SAPE  C21218189   5.739   0.686   7.493  0.1477  0.7294  0.5735
  162SAPE  H12R18190   5.663   0.765   7.485  0.3526  0.8369 -0.5296
  162SAPE  C21318191   5.788   0.665   7.633 -0.1043 -0.9601 -0.4816
  162SAPE  H13R18192   5.878   0.601   7.637  1.1993  0.8072 -0.3651
  162SAPE  H13S18193   5.708   0.625   7.699 -1.4013 -0.5874 -1.7799
  162SAPE  C21418194   5.830   0.805   7.683  0.3022  0.5105 -0.7165
  162SAPE  H14R18195   5.793   0.889   7.622  1.0914 -1.0377 -3.5009
  162SAPE  C21518196   5.883   0.821   7.804  0.3656 -0.1415 -0.4080
  162SAPE  H15R18197   5.915   0.921   7.836 -1.4868 -0.1948  1.8124
  162SAPE  C21618198   5.928   0.713   7.908  0.5539 -0.1087 -0.2889
  162SAPE  H16R18199   6.038   0.700   7.900  0.7758  1.3539 -0.0108
  162SAPE  H16S18200   5.874   0.619   7.887  1.8364 -0.5873 -1.6040
  162SAPE  C21718201   5.902   0.744   8.062  0.2624 -0.4365  0.5561
  162SAPE  H17R18202   5.961   0.668   8.117  0.5489  0.9503  2.2853
  162SAPE  H17S18203   5.794   0.731   8.082 -0.0484 -1.3048 -1.4340
  162SAPE  C21818204   5.957   0.882   8.112  0.2370  0.0392 -0.6680
  162SAPE  H18R18205   5.880   0.951   8.071 -1.6154 -0.1829  2.2302
  162SAPE  H18S18206   6.062   0.890   8.075  0.7147  0.6180  0.7422
  162SAPE  C21918207   5.952   0.877   8.267 -0.3982  0.5860  0.0410
  162SAPE  H19R18208   5.863   0.820   8.299 -0.3179 -0.0204 -0.8043
  162SAPE  H19S18209   5.943   0.981   8.306 -1.9723 -0.4665  2.7620
  162SAPE  C22018210   6.082   0.824   8.328  0.5586 -0.4676  0.6610
  162SAPE  H20R18211   6.080   0.819   8.439 -0.5709 -0.5273  0.6489
  162SAPE  H20S18212   6.171   0.880   8.291 -0.9817  1.5787 -0.1022
  162SAPE  H20T18213   6.095   0.722   8.287 -0.8125 -0.7652  0.9173
  162SAPE   C3318214   5.992   0.885   6.718  0.5555  0.7051  0.2661
  162SAPE   H3X18215   5.980   0.967   6.791  0.8181  1.6615 -0.7345
  162SAPE   H3Y18216   6.102   0.877   6.727  0.4781  1.1801  1.9361
  162SAPE   C3418217   5.904   0.768   6.767 -0.7057  0.8108 -0.4272
  162SAPE   H4X18218   5.932   0.686   6.697  0.3655  1.7534 -1.1270
  162SAPE   H4Y18219   5.795   0.788   6.765 -1.3907 -2.2680  0.3639
  162SAPE   C3518220   5.941   0.710   6.910  0.5423 -0.7313  0.0662
  162SAPE   H5X18221   5.887   0.614   6.925 -0.6903  0.1917  2.0613
  162SAPE   H5Y18222   5.899   0.790   6.976  1.1546 -1.1267  0.9564
  162SAPE   C3618223   6.089   0.692   6.938 -0.0787  0.5274 -0.0856
  162SAPE   H6X18224   6.137   0.679   6.838 -0.3970  1.1769 -0.3261
  162SAPE   H6Y18225   6.099   0.595   6.992 -0.7832 -0.7139 -2.0771
  162SAPE   C3718226   6.168   0.807   7.014  0.2740  0.1947 -0.8285
  162SAPE   H7X18227   6.154   0.898   6.952  1.5661  1.1688  0.2396
  162SAPE   H7Y18228   6.275   0.778   7.020  0.1919  0.1939  2.1140
  162SAPE   C3818229   6.119   0.828   7.157  0.8049 -0.6963  0.2612
  162SAPE   H8X18230   6.116   0.725   7.199  0.1540 -1.2523 -1.0973
  162SAPE   H8Y18231   6.010   0.853   7.159  0.4791 -1.9634 -0.4624
  162SAPE   C3918232   6.212   0.918   7.245 -0.1682  0.6930  0.4985
  162SAPE   H9X18233   6.178   1.022   7.228  0.9474  1.5667  3.0565
  162SAPE   H9Y18234   6.318   0.913   7.212 -0.0149  1.4792  0.8391
  162SAPE  C31018235   6.214   0.891   7.395 -0.3545  0.0078  0.4057
  162SAPE  H10X18236   6.110   0.895   7.434 -0.3507  1.6177  0.3007
  162SAPE  H10Y18237   6.276   0.969   7.445  0.1382  0.7729 -1.3285
  162SAPE  C31118238   6.262   0.751   7.429  0.2102 -0.8682  0.3047
  162SAPE  H11X18239   6.370   0.738   7.405  0.0989 -1.0745 -0.0898
  162SAPE  H11Y18240   6.214   0.671   7.369 -0.0742 -0.8929  0.5648
  162SAPE  C31218241   6.232   0.711   7.570  0.0347  0.0205 -0.4372
  162SAPE  H12X18242   6.126   0.736   7.592  0.1371  1.7906 -1.8032
  162SAPE  H12Y18243   6.302   0.776   7.627 -0.5354  1.0568 -0.9048
  162SAPE  C31318244   6.246   0.552   7.587 -0.2702 -0.1530 -0.3491
  162SAPE  H13X18245   6.333   0.516   7.528  1.0697  0.4649  1.1685
  162SAPE  H13Y18246   6.160   0.500   7.538  0.3009 -2.4681  0.9123
  162SAPE  C31418247   6.265   0.505   7.732 -0.2987  0.6307 -0.2779
  162SAPE  H14X18248   6.279   0.394   7.728 -0.2268  0.6245  0.0677
  162SAPE  H14Y18249   6.177   0.531   7.795  1.5491 -0.0173  2.7915
  162SAPE  C31518250   6.387   0.568   7.809 -0.0405  0.6736  0.5502
  162SAPE  H15X18251   6.375   0.678   7.797  2.2060  0.8632 -0.5079
  162SAPE  H15Y18252   6.481   0.546   7.753 -0.7382  1.9149 -1.2193
  162SAPE  C31618253   6.393   0.540   7.957  0.5166  0.4459  0.4613
  162SAPE  H16X18254   6.429   0.435   7.946 -0.1982 -0.0466  2.3950
  162SAPE  H16Y18255   6.293   0.557   8.003  0.2681  2.7687 -0.7733
  162SAPE  C31718256   6.493   0.620   8.039  0.4806  0.0678  1.3738
  162SAPE  H17X18257   6.465   0.727   8.052 -0.7630 -0.2027  1.0898
  162SAPE  H17Y18258   6.589   0.624   7.984  1.6402 -0.4388  3.2885
  162SAPE  C31818259   6.519   0.569   8.182  0.2345 -0.3202 -0.1127
  162SAPE  H18X18260   6.552   0.463   8.190 -4.1430 -2.0268 -1.1009
  162SAPE  H18Y18261   6.425   0.587   8.239  0.7663  0.8720  0.4044
  162SAPE  H18Z18262   6.594   0.632   8.233  0.8548 -0.5091 -0.7815
  163SAPE     N18263   2.343   5.969   6.250  0.4135  0.3082 -0.3598
  163SAPE   HN118264   2.401   5.887   6.224 -0.5304 -0.1296 -1.1466
  163SAPE   HN218265   2.315   6.018   6.163 -0.3443 -1.9755 -1.4977
  163SAPE   HN318266   2.388   6.031   6.320 -1.5492  2.0513 -0.5617
  163SAPE   C1218267   2.230   5.900   6.309  0.3185 -0.0612  0.1306
  163SAPE  H12A18268   2.223   5.800   6.262  0.1920  0.1231 -0.2451
  163SAPE  H12B18269   2.150   5.977   6.300  1.3945  1.5449  2.9988
  163SAPE   C1118270   2.250   5.863   6.458 -0.0672  0.2867  0.4291
  163SAPE  H11A18271   2.183   5.779   6.487  1.4848 -0.9263  0.6920
  163SAPE  H11B18272   2.216   5.947   6.523 -1.2504 -0.3734  0.6865
  163SAPE     P18273   2.458   5.708   6.507 -0.8941  0.0616  0.2711
  163SAPE   O1318274   2.450   5.634   6.381  0.0898 -0.0549 -0.2121
  163SAPE   O1418275   2.590   5.725   6.565 -0.0156 -0.1591  0.0765
  163SAPE   O1218276   2.389   5.843   6.494 -0.1003 -0.2538  0.4524
  163SAPE   O1118277   2.379   5.626   6.608  0.9891  0.2467 -0.1471
  163SAPE    C118278   2.338   5.683   6.732 -0.5489  0.4441 -0.1290
  163SAPE    HA18279   2.423   5.690   6.803 -0.6743 -0.4578  0.1245
  163SAPE    HB18280   2.283   5.779   6.724  0.8637  1.1567 -1.6145
  163SAPE    C218281   2.235   5.595   6.808  0.2525  0.1071  0.6250
  163SAPE    HS18282   2.290   5.500   6.829  1.8585  0.2111 -2.5666
  163SAPE   O2118283   2.127   5.565   6.717 -0.4189 -0.3225  0.5571
  163SAPE   C2118284   2.034   5.492   6.763  0.4858  0.5177  0.6955
  163SAPE   O2218285   2.035   5.435   6.874  0.3324  0.5803  0.5258
  163SAPE   C2218286   1.925   5.483   6.660  0.3119  0.6873  0.2493
  163SAPE   H2R18287   1.981   5.477   6.564 -1.7365  0.0400 -0.9539
  163SAPE   H2S18288   1.875   5.384   6.664  1.6211  0.0013  0.4878
  163SAPE    C318289   2.188   5.664   6.940  0.0970 -0.4200  0.1247
  163SAPE    HX18290   2.127   5.595   7.002 -1.4930 -0.5544 -1.5081
  163SAPE    HY18291   2.118   5.749   6.924  0.1606 -0.2529  0.7181
  163SAPE   O3118292   2.306   5.711   7.007 -0.0725 -0.7335 -0.3039
  163SAPE   C3118293   2.365   5.623   7.088  0.2199  0.6692 -0.4151
  163SAPE   O3218294   2.334   5.506   7.107 -0.1647 -0.0888 -0.2552
  163SAPE   C3218295   2.500   5.683   7.150  0.6976  0.3502  0.6182
  163SAPE   H2X18296   2.497   5.794   7.156  0.4319  0.4846 -1.2116
  163SAPE   H2Y18297   2.583   5.647   7.085  1.4779  0.6393  1.4406
  163SAPE   C2318298   1.826   5.605   6.653  0.6140  0.1667 -0.7232
  163SAPE   H3R18299   1.775   5.590   6.555 -1.4586 -1.2772  0.5029
  163SAPE   H3S18300   1.870   5.705   6.630  0.0260  0.1631 -1.9992
  163SAPE   C2418301   1.724   5.620   6.765  0.2874 -0.1761 -0.6019
  163SAPE   H4R18302   1.679   5.519   6.779  0.3342 -0.0707  0.3604
  163SAPE   H4S18303   1.643   5.689   6.734 -0.5406  1.1580  3.7844
  163SAPE   C2518304   1.769   5.672   6.895 -0.1681  0.3517 -0.5715
  163SAPE   H5R18305   1.873   5.704   6.877  0.4065 -1.9932 -1.8740
  163SAPE   C2618306   1.703   5.673   7.008  0.0711 -0.3722  0.2068
  163SAPE   H6R18307   1.762   5.705   7.095  1.4980 -0.9494 -0.5053
  163SAPE   C2718308   1.563   5.629   7.021  0.5539  0.0296 -0.3268
  163SAPE   H7R18309   1.545   5.612   7.130 -3.7161 -2.6689 -1.2175
  163SAPE   H7S18310   1.545   5.533   6.967  1.2743 -0.4236  0.2035
  163SAPE   C2818311   1.465   5.728   6.966  0.2243  0.3928 -0.4421
  163SAPE   H8R18312   1.424   5.707   6.866 -2.5255 -1.0695  0.8719
  163SAPE   C2918313   1.437   5.847   7.021  0.5286  0.4498  0.5904
  163SAPE   H9R18314   1.366   5.918   6.976 -2.9893 -1.7031  2.2789
  163SAPE  C21018315   1.489   5.916   7.146  0.1679 -0.8703  0.8937
  163SAPE  H10R18316   1.434   6.011   7.163  1.8080  0.7016 -1.8219
  163SAPE  H10S18317   1.591   5.953   7.120 -0.6288  0.8735  0.1554
  163SAPE  C21118318   1.475   5.844   7.275  0.3538  0.4719  0.1821
  163SAPE  H11R18319   1.387   5.781   7.292 -0.6414  1.6194 -0.6275
  163SAPE  C21218320   1.568   5.849   7.378  0.2304 -0.2595 -0.7481
  163SAPE  H12R18321   1.550   5.802   7.475 -0.9974  0.8438 -0.4119
  163SAPE  C21318322   1.693   5.927   7.380 -0.1363  0.1266  0.3598
  163SAPE  H13R18323   1.716   5.963   7.278  0.2871  1.1889  0.8176
  163SAPE  H13S18324   1.777   5.863   7.415  1.9964  3.5520  2.1064
  163SAPE  C21418325   1.705   6.048   7.473 -0.1000  0.0951  0.0320
  163SAPE  H14R18326   1.713   6.140   7.414  1.0552  0.9551  1.4526
  163SAPE  C21518327   1.699   6.056   7.604  0.3774 -0.1509 -0.2830
  163SAPE  H15R18328   1.710   6.161   7.637 -0.8963  0.6657 -2.2343
  163SAPE  C21618329   1.680   5.947   7.709 -0.3080 -0.6821  0.6792
  163SAPE  H16R18330   1.747   5.961   7.796 -1.1740 -0.9548  1.3933
  163SAPE  H16S18331   1.701   5.846   7.669  1.1218  0.3073 -1.2919
  163SAPE  C21718332   1.532   5.952   7.755 -0.2327  0.2895  0.6781
  163SAPE  H17R18333   1.464   5.954   7.668 -0.6830  2.3564  1.0189
  163SAPE  H17S18334   1.514   6.054   7.796 -0.3432  1.3245 -1.8106
  163SAPE  C21818335   1.487   5.848   7.862 -0.7282 -0.0768 -0.2410
  163SAPE  H18R18336   1.540   5.753   7.839  0.7123  1.0051 -1.6512
  163SAPE  H18S18337   1.377   5.840   7.853 -1.0313  3.4394 -1.1456
  163SAPE  C21918338   1.523   5.902   8.003  0.4754  0.1121  0.0416
  163SAPE  H19R18339   1.483   6.005   8.015  0.4510  0.0442  0.5307
  163SAPE  H19S18340   1.633   5.910   8.000  0.4853  1.5562  2.4003
  163SAPE  C22018341   1.489   5.800   8.110 -0.7284 -0.2666 -0.1401
  163SAPE  H20R18342   1.528   5.697   8.096 -0.1127  0.0831 -1.0850
  163SAPE  H20S18343   1.379   5.795   8.123 -0.6697 -1.6210 -0.0405
  163SAPE  H20T18344   1.531   5.830   8.209  2.9757 -4.4326 -0.1402
  163SAPE   C3318345   2.521   5.615   7.288  0.3728 -0.5377  0.1762
  163SAPE   H3X18346   2.620   5.651   7.324 -0.3014  2.0666 -0.4098
  163SAPE   H3Y18347   2.520   5.504   7.282 -0.1678 -0.4844 -0.8532
  163SAPE   C3418348   2.414   5.654   7.391 -1.0200 -0.2390 -0.0784
  163SAPE   H4X18349   2.325   5.590   7.372  1.0609 -2.6824 -2.3968
  163SAPE   H4Y18350   2.387   5.762   7.387 -1.1835 -0.3030 -1.1333
  163SAPE   C3518351   2.478   5.628   7.527 -0.5866  0.1365  0.0554
  163SAPE   H5X18352   2.564   5.693   7.555 -0.5886 -0.3137  1.1430
  163SAPE   H5Y18353   2.513   5.523   7.520 -0.9896  0.0341 -0.5208
  163SAPE   C3618354   2.392   5.636   7.654 -0.2895 -0.0102 -0.2804
  163SAPE   H6X18355   2.315   5.556   7.651 -0.4610  0.1092  0.6405
  163SAPE   H6Y18356   2.336   5.729   7.676  0.8717  0.1235  2.4449
  163SAPE   C3718357   2.479   5.592   7.771 -0.4863 -0.4132 -0.3105
  163SAPE   H7X18358   2.554   5.666   7.806 -1.8891  0.5620  0.7546
  163SAPE   H7Y18359   2.534   5.498   7.750  2.4734  0.9761  0.6695
  163SAPE   C3818360   2.394   5.580   7.897  0.3915 -0.0237 -0.5706
  163SAPE   H8X18361   2.298   5.530   7.872 -0.3622  0.4371  1.2419
  163SAPE   H8Y18362   2.368   5.680   7.937 -1.3817 -1.1840  1.3874
  163SAPE   C3918363   2.457   5.487   8.007  0.1960 -0.6582  0.3780
  163SAPE   H9X18364   2.555   5.536   8.023  0.4732 -1.5516  1.5828
  163SAPE   H9Y18365   2.486   5.398   7.947  0.8985  1.0186 -1.9187
  163SAPE  C31018366   2.380   5.455   8.133  0.2301 -0.1304  0.5389
  163SAPE  H10X18367   2.292   5.397   8.096  0.5152  0.1298 -0.5922
  163SAPE  H10Y18368   2.348   5.546   8.189 -1.0325 -1.2652  1.7530
  163SAPE  C31118369   2.448   5.368   8.238 -0.6090  0.1866  0.7349
  163SAPE  H11X18370   2.545   5.419   8.255  1.3864 -2.8351 -0.6368
  163SAPE  H11Y18371   2.470   5.271   8.187 -0.4795 -0.0459  1.2275
  163SAPE  C31218372   2.370   5.373   8.368 -0.4603 -0.2009  0.1616
  163SAPE  H12X18373   2.272   5.323   8.353 -0.0832 -1.4619  1.6172
  163SAPE  H12Y18374   2.365   5.479   8.398  5.1360  0.5744 -0.5221
  163SAPE  C31318375   2.448   5.294   8.480 -0.8578  0.9406  0.1109
  163SAPE  H13X18376   2.438   5.342   8.580  0.5702  1.3837  0.0685
  163SAPE  H13Y18377   2.556   5.299   8.454 -0.6991  2.1751  0.8888
  163SAPE  C31418378   2.404   5.145   8.471  0.2296 -0.5167 -0.3375
  163SAPE  H14X18379   2.392   5.126   8.362  2.7970  0.8935 -0.9411
  163SAPE  H14Y18380   2.299   5.129   8.503 -0.0130 -0.5265 -1.0983
  163SAPE  C31518381   2.495   5.055   8.552 -0.1620  0.1381 -0.1575
  163SAPE  H15X18382   2.486   5.085   8.659 -1.2819 -2.5653  0.6043
  163SAPE  H15Y18383   2.604   5.067   8.531  0.0478  0.4475  1.0133
  163SAPE  C31618384   2.449   4.901   8.550 -0.0301 -0.1226 -0.6232
  163SAPE  H16X18385   2.442   4.872   8.443 -1.1496  0.2614 -0.6717
  163SAPE  H16Y18386   2.348   4.890   8.595  0.4486 -1.5979  0.1827
  163SAPE  C31718387   2.541   4.804   8.634 -0.4303 -0.7295  0.3383
  163SAPE  H17X18388   2.559   4.839   8.738  0.8462 -1.1902  0.2846
  163SAPE  H17Y18389   2.641   4.811   8.587  1.7089  0.9396  4.6038
  163SAPE  C31818390   2.502   4.655   8.639  0.3118 -0.1622 -1.1754
  163SAPE  H18X18391   2.576   4.591   8.691 -0.6651  0.6065  1.3365
  163SAPE  H18Y18392   2.482   4.618   8.536 -1.1862 -0.2818 -0.8730
  163SAPE  H18Z18393   2.402   4.640   8.685  0.3664 -2.1082 -1.5913
  164SAPE     N18394   6.605   2.204   6.064  0.8943  0.2625  0.0701
  164SAPE   HN118395   6.512   2.247   6.049  0.0789 -1.6018 -0.4125
  164SAPE   HN218396   6.635   2.172   5.970 -0.2395 -1.2295  0.1805
  164SAPE   HN318397   6.587   2.115   6.115 -1.1032 -0.6697 -2.1284
  164SAPE   C1218398   6.702   2.306   6.131  0.0221  0.1666 -0.3422
  164SAPE  H12A18399   6.775   2.258   6.199 -0.3792  3.0766  2.4146
  164SAPE  H12B18400   6.631   2.372   6.186 -1.3325 -1.4547 -0.0480
  164SAPE   C1118401   6.777   2.399   6.034  0.0402 -0.2192  0.6464
  164SAPE  H11A18402   6.844   2.335   5.972  0.9077  2.1549 -0.9705
  164SAPE  H11B18403   6.845   2.471   6.084  0.4202 -0.3346  0.3022
  164SAPE     P18404   6.617   2.591   5.953 -0.4088 -0.0303 -0.0005
  164SAPE   O1318405   6.699   2.700   5.902 -0.4785  0.0721  0.6273
  164SAPE   O1418406   6.481   2.587   5.889  0.7479  0.7064 -0.3198
  164SAPE   O1218407   6.692   2.453   5.936 -0.1634  0.6644  0.7430
  164SAPE   O1118408   6.608   2.607   6.103 -0.5403 -0.0951 -0.6790
  164SAPE    C118409   6.698   2.692   6.173  0.1792  0.2951  0.1215
  164SAPE    HA18410   6.805   2.671   6.151  0.5040  2.8245 -1.1269
  164SAPE    HB18411   6.676   2.797   6.143  0.4460  0.4519  0.4727
  164SAPE    C218412   6.683   2.681   6.331 -0.3953 -0.7544  0.0165
  164SAPE    HS18413   6.736   2.765   6.380 -1.3894 -0.4169  0.5549
  164SAPE   O2118414   6.735   2.552   6.371 -0.7151 -0.3103  0.2215
  164SAPE   C2118415   6.865   2.548   6.389 -0.1942 -0.2514  0.0138
  164SAPE   O2218416   6.939   2.640   6.356 -0.2953 -0.4222 -0.0781
  164SAPE   C2218417   6.895   2.415   6.465  0.4570 -0.1577 -0.2028
  164SAPE   H2R18418   6.810   2.402   6.534  1.2542 -0.5397  0.7272
  164SAPE   H2S18419   6.890   2.350   6.375  2.3190  0.8325 -1.1003
  164SAPE    C318420   6.537   2.689   6.380  0.2518 -0.0223 -0.4373
  164SAPE    HX18421   6.489   2.591   6.359  0.1140 -0.2662  0.8867
  164SAPE    HY18422   6.484   2.770   6.326  1.3593  0.0239 -1.4733
  164SAPE   O3118423   6.537   2.723   6.521  0.4761 -0.9396  0.6420
  164SAPE   C3118424   6.424   2.705   6.586  0.4740 -0.2824 -0.2329
  164SAPE   O3218425   6.316   2.684   6.530 -0.4166 -0.1836 -0.3699
  164SAPE   C3218426   6.448   2.710   6.731 -0.4436  0.1122 -0.8292
  164SAPE   H2X18427   6.539   2.769   6.752 -1.8271  2.0445  0.0533
  164SAPE   H2Y18428   6.461   2.604   6.762 -0.3990  0.4535  0.3460
  164SAPE   C2318429   7.035   2.398   6.537  0.3136 -0.1204 -0.7668
  164SAPE   H3R18430   7.045   2.480   6.612  0.1231  0.3029 -1.1952
  164SAPE   H3S18431   7.117   2.406   6.462  1.0775 -1.8524 -0.1488
  164SAPE   C2418432   7.060   2.260   6.601 -0.1081 -0.0704  0.3106
  164SAPE   H4R18433   7.168   2.242   6.618 -0.1774 -0.7643  0.0481
  164SAPE   H4S18434   7.022   2.192   6.521  1.3075 -2.2250  1.3851
  164SAPE   C2518435   6.988   2.237   6.732 -0.0485  0.3517 -0.5329
  164SAPE   H5R18436   6.881   2.261   6.733 -0.8220 -2.7196 -0.1677
  164SAPE   C2618437   7.043   2.203   6.854 -0.0633 -0.0280  0.3454
  164SAPE   H6R18438   6.974   2.193   6.939 -2.1277 -1.6614 -1.3918
  164SAPE   C2718439   7.183   2.183   6.894  0.1302  0.3182  0.7527
  164SAPE   H7R18440   7.231   2.100   6.838  0.1893  0.3428  0.7671
  164SAPE   H7S18441   7.170   2.141   6.997  0.2934  0.5149  0.8543
  164SAPE   C2818442   7.277   2.306   6.895  0.4438 -0.2105 -0.1853
  164SAPE   H8R18443   7.299   2.357   6.800  0.3155  1.4884  0.6625
  164SAPE   C2918444   7.317   2.376   7.001 -0.8135  0.1770 -0.1892
  164SAPE   H9R18445   7.380   2.465   6.985 -0.4147  0.2044  1.3573
  164SAPE  C21018446   7.291   2.351   7.146 -0.4564  0.5395 -0.1344
  164SAPE  H10R18447   7.390   2.328   7.192  0.3159  1.1690 -1.4177
  164SAPE  H10S18448   7.235   2.258   7.171 -2.7154  1.8763  0.0493
  164SAPE  C21118449   7.229   2.457   7.234  0.3441  0.5056 -0.6742
  164SAPE  H11R18450   7.208   2.553   7.185  0.1969  0.6591 -0.3092
  164SAPE  C21218451   7.195   2.443   7.362  0.9164 -0.2373 -0.0513
  164SAPE  H12R18452   7.177   2.536   7.418 -0.0345  0.6457 -1.7287
  164SAPE  C21318453   7.198   2.317   7.446  0.1562 -0.4178 -0.4689
  164SAPE  H13R18454   7.253   2.345   7.538 -0.7903  1.8091 -0.5353
  164SAPE  H13S18455   7.261   2.248   7.385 -0.7538 -3.3476  1.6510
  164SAPE  C21418456   7.062   2.265   7.459  0.8537 -0.4471  0.2932
  164SAPE  H14R18457   7.001   2.268   7.368 -0.3079 -3.7484  0.7990
  164SAPE  C21518458   7.006   2.223   7.570  0.0825 -0.0465  1.0667
  164SAPE  H15R18459   6.901   2.189   7.563 -0.5333  1.8769  0.0619
  164SAPE  C21618460   7.076   2.208   7.702  0.1476  0.2868  0.9056
  164SAPE  H16R18461   7.185   2.207   7.680 -0.2301  0.0593 -1.1862
  164SAPE  H16S18462   7.033   2.117   7.747 -3.1550  0.2257 -2.0106
  164SAPE  C21718463   7.036   2.329   7.787 -0.1481 -0.6478 -0.1850
  164SAPE  H17R18464   6.927   2.348   7.797  0.3971  1.4622  3.1480
  164SAPE  H17S18465   7.075   2.425   7.747  1.2098 -1.7236 -1.5579
  164SAPE  C21818466   7.100   2.310   7.928  0.3193  0.5016 -0.9779
  164SAPE  H18R18467   7.211   2.317   7.934  0.2497  0.2899  1.8930
  164SAPE  H18S18468   7.074   2.212   7.972  1.9883  0.8332  0.8851
  164SAPE  C21918469   7.049   2.419   8.028  0.2927 -0.5723  0.1800
  164SAPE  H19R18470   6.939   2.433   8.030  0.3578 -0.0902  1.6850
  164SAPE  H19S18471   7.085   2.520   7.995 -0.2665 -0.1483  0.8452
  164SAPE  C22018472   7.109   2.400   8.172  0.0016 -0.5661  0.3027
  164SAPE  H20R18473   7.066   2.467   8.249 -1.0206  0.3342 -1.0059
  164SAPE  H20S18474   7.220   2.411   8.170 -0.1502  1.3194  0.0345
  164SAPE  H20T18475   7.084   2.294   8.194 -0.7694 -0.6982 -1.0833
  164SAPE   C3318476   6.329   2.767   6.810 -0.2377  0.6914  0.2764
  164SAPE   H3X18477   6.260   2.680   6.803  0.3103  0.0902  1.8908
  164SAPE   H3Y18478   6.289   2.864   6.773 -1.8105  0.5646  1.5431
  164SAPE   C3418479   6.373   2.780   6.949  0.2981  0.1083 -0.4578
  164SAPE   H4X18480   6.447   2.860   6.971  2.1382 -1.6820  0.2721
  164SAPE   H4Y18481   6.437   2.690   6.967  0.2363  0.0946 -0.3057
  164SAPE   C3518482   6.265   2.768   7.063  0.0578  0.9320 -0.4185
  164SAPE   H5X18483   6.186   2.843   7.047 -0.4162  0.7966  1.1021
  164SAPE   H5Y18484   6.316   2.784   7.161  0.2152  1.9883 -0.6616
  164SAPE   C3618485   6.188   2.636   7.068 -0.6371  0.0723 -0.0266
  164SAPE   H6X18486   6.265   2.558   7.086  1.0030  1.3472 -1.1510
  164SAPE   H6Y18487   6.150   2.596   6.971  2.1306 -1.5235 -0.5856
  164SAPE   C3718488   6.073   2.645   7.173 -0.3026 -0.3673  0.7130
  164SAPE   H7X18489   6.019   2.548   7.175  1.1239 -1.3582 -2.4396
  164SAPE   H7Y18490   6.004   2.728   7.146 -0.6295  0.1702  2.9848
  164SAPE   C3818491   6.120   2.671   7.317  0.9330 -0.2040  0.1237
  164SAPE   H8X18492   6.177   2.765   7.332 -0.5210  0.9758 -1.4229
  164SAPE   H8Y18493   6.179   2.580   7.342  0.3802 -0.4052  0.6871
  164SAPE   C3918494   5.997   2.675   7.414 -0.2486 -0.5324 -0.2806
  164SAPE   H9X18495   5.918   2.603   7.387 -0.2059 -1.0117  0.7981
  164SAPE   H9Y18496   5.961   2.780   7.404 -0.2058 -0.2480  1.9052
  164SAPE  C31018497   6.027   2.653   7.556 -0.5139  0.0481 -0.3178
  164SAPE  H10X18498   6.120   2.707   7.584 -0.9029  0.6098 -0.0932
  164SAPE  H10Y18499   6.065   2.550   7.571 -1.6281  0.0287  3.3593
  164SAPE  C31118500   5.916   2.681   7.653  0.1569  0.3121 -0.5887
  164SAPE  H11X18501   5.817   2.638   7.626  0.1180  0.1661 -0.2256
  164SAPE  H11Y18502   5.902   2.788   7.682  0.3416  0.1935 -0.0528
  164SAPE  C31218503   5.945   2.617   7.792  0.1017 -0.7553 -0.0936
  164SAPE  H12X18504   5.956   2.508   7.772 -1.9786 -0.8029 -1.2218
  164SAPE  H12Y18505   5.856   2.625   7.858 -1.9780  2.5373 -2.9511
  164SAPE  C31318506   6.065   2.665   7.863 -0.7417 -0.1178  0.0430
  164SAPE  H13X18507   6.061   2.773   7.888  0.3453 -0.0261 -0.1430
  164SAPE  H13Y18508   6.163   2.664   7.811 -0.6148 -0.1352  0.2805
  164SAPE  C31418509   6.079   2.601   8.001  0.5545  0.3580  0.5905
  164SAPE  H14X18510   6.122   2.499   7.997  3.3081  1.3447  2.5301
  164SAPE  H14Y18511   5.984   2.601   8.059 -0.0798  0.0401 -0.4154
  164SAPE  C31518512   6.186   2.677   8.091 -0.9830  0.8091  0.7240
  164SAPE  H15X18513   6.156   2.784   8.100 -2.2734  0.4855  0.4134
  164SAPE  H15Y18514   6.276   2.673   8.025 -2.8053  0.7804 -1.9462
  164SAPE  C31618515   6.209   2.619   8.234  0.1023 -0.4065 -0.0216
  164SAPE  H16X18516   6.109   2.590   8.272  0.0659  0.7741  0.8161
  164SAPE  H16Y18517   6.255   2.701   8.294 -1.0881  0.7840 -0.6775
  164SAPE  C31718518   6.294   2.492   8.243 -0.1098 -0.2375 -0.4214
  164SAPE  H17X18519   6.396   2.533   8.225 -0.1334  0.4881  0.9526
  164SAPE  H17Y18520   6.260   2.439   8.152 -0.8343  1.3236 -1.0983
  164SAPE  C31818521   6.279   2.405   8.372  0.3467 -0.1524  0.3628
  164SAPE  H18X18522   6.277   2.468   8.464 -2.3423  0.0293  0.2635
  164SAPE  H18Y18523   6.363   2.333   8.377  1.4762  0.9788 -1.2929
  164SAPE  H18Z18524   6.189   2.340   8.364  0.7505 -0.5654 -1.0663
  165SAPE     N18525   5.519   0.087   6.249 -0.9630 -0.0903  0.0252
  165SAPE   HN118526   5.520  -0.014   6.224  1.9759  0.0875 -0.9920
  165SAPE   HN218527   5.604   0.127   6.205 -0.4221 -0.5155  0.6591
  165SAPE   HN318528   5.511   0.108   6.351  1.2935  0.7123  0.1025
  165SAPE   C1218529   5.407   0.161   6.181 -0.1734  0.2882  0.2487
  165SAPE  H12A18530   5.432   0.141   6.074  0.4875  2.0134  0.0494
  165SAPE  H12B18531   5.422   0.269   6.204  0.6497  0.1516  0.3824
  165SAPE   C1118532   5.269   0.105   6.227 -0.0975 -0.3678  0.3481
  165SAPE  H11A18533   5.189   0.136   6.156  1.5844  0.0924 -1.4473
  165SAPE  H11B18534   5.248   0.154   6.324 -1.6228 -0.8081  0.2688
  165SAPE     P18535   5.146  -0.117   6.266  0.4570  0.0975 -0.4665
  165SAPE   O1318536   5.066  -0.135   6.142  0.2923  0.1030 -0.0685
  165SAPE   O1418537   5.188  -0.244   6.331 -0.2535  0.2950 -0.5794
  165SAPE   O1218538   5.274  -0.034   6.236 -0.2756  0.1005  0.6698
  165SAPE   O1118539   5.070  -0.022   6.369  0.2982  0.1498  0.3760
  165SAPE    C118540   5.066  -0.036   6.512  0.5597  0.2352  0.0516
  165SAPE    HA18541   4.959  -0.044   6.539 -0.3535 -0.2649 -3.2212
  165SAPE    HB18542   5.127  -0.120   6.552  1.8957  1.4298  0.5911
  165SAPE    C218543   5.118   0.093   6.574  0.6845 -0.2712  0.0215
  165SAPE    HS18544   5.219   0.113   6.533  0.3937 -0.0648 -0.6040
  165SAPE   O2118545   5.120   0.069   6.719  0.1103 -0.5250 -0.1193
  165SAPE   C2118546   5.208   0.136   6.784 -0.7259  0.4511 -0.2028
  165SAPE   O2218547   5.302   0.207   6.744 -0.8137  0.4030  0.7912
  165SAPE   C2218548   5.173   0.119   6.926 -0.6172  0.4270  0.5043
  165SAPE   H2R18549   5.064   0.139   6.929 -1.1962 -2.3368  0.2549
  165SAPE   H2S18550   5.187   0.013   6.955  0.9033  0.8418  1.4500
  165SAPE    C318551   5.026   0.226   6.552 -0.1448 -0.0224 -0.0304
  165SAPE    HX18552   4.927   0.183   6.575  0.0809 -0.9044 -0.6591
  165SAPE    HY18553   5.033   0.244   6.443 -0.0478  2.2566  0.3058
  165SAPE   O3118554   5.054   0.340   6.633  0.1566  0.0997 -0.4238
  165SAPE   C3118555   5.151   0.419   6.585 -0.3154 -0.9242 -0.7182
  165SAPE   O3218556   5.221   0.410   6.486 -0.2358  0.2007 -0.0346
  165SAPE   C3218557   5.185   0.522   6.699  0.2548  0.7734 -0.0579
  165SAPE   H2X18558   5.140   0.485   6.794  0.5624  0.5320 -0.0083
  165SAPE   H2Y18559   5.128   0.618   6.689  1.2132  1.4230  0.5312
  165SAPE   C2318560   5.255   0.217   7.011 -0.0938  0.2624  0.5160
  165SAPE   H3R18561   5.259   0.323   6.975  1.8532  0.4604  1.1807
  165SAPE   H3S18562   5.363   0.195   7.023  0.1177  1.8086  2.0057
  165SAPE   C2418563   5.198   0.223   7.150  0.5617 -0.1231 -0.2303
  165SAPE   H4R18564   5.102   0.276   7.135  0.6172  0.8133  2.1980
  165SAPE   H4S18565   5.251   0.301   7.209  0.0238  0.4783 -0.5318
  165SAPE   C2518566   5.161   0.095   7.225  0.8025  0.5200  0.5730
  165SAPE   H5R18567   5.092   0.027   7.174  0.0312  1.5078  0.2601
  165SAPE   C2618568   5.184   0.073   7.359 -0.1189  0.3025 -0.5309
  165SAPE   H6R18569   5.155  -0.023   7.405  0.2011  0.5490  0.1885
  165SAPE   C2718570   5.272   0.166   7.447 -0.7227 -0.3140  0.4199
  165SAPE   H7R18571   5.226   0.266   7.457 -1.3998 -0.7071  1.4227
  165SAPE   H7S18572   5.370   0.190   7.401 -1.2653  0.6391 -0.2855
  165SAPE   C2818573   5.299   0.112   7.586  0.6009 -0.2439  0.8131
  165SAPE   H8R18574   5.258   0.015   7.616  0.4261 -0.7772 -1.0203
  165SAPE   C2918575   5.365   0.171   7.685 -0.6391  0.0060  0.8502
  165SAPE   H9R18576   5.378   0.109   7.775 -0.3241 -1.7452 -0.3404
  165SAPE  C21018577   5.434   0.305   7.677  0.4817  0.4974  0.2055
  165SAPE  H10R18578   5.431   0.341   7.782 -2.1424  0.8154  0.0972
  165SAPE  H10S18579   5.376   0.376   7.615  0.2089  0.8337  0.8371
  165SAPE  C21118580   5.575   0.302   7.621 -0.4236 -0.9145 -0.0026
  165SAPE  H11R18581   5.580   0.289   7.512 -1.8913 -0.5747 -0.1358
  165SAPE  C21218582   5.687   0.323   7.694 -0.6444  0.0633  0.0087
  165SAPE  H12R18583   5.787   0.308   7.650 -0.9004 -2.7073  0.2087
  165SAPE  C21318584   5.686   0.350   7.843 -0.2354  0.3428  0.6265
  165SAPE  H13R18585   5.622   0.277   7.897  0.2049 -0.4097  0.1581
  165SAPE  H13S18586   5.656   0.455   7.864  0.4224  0.3513  1.5581
  165SAPE  C21418587   5.824   0.327   7.898  0.5313 -0.2539 -0.2731
  165SAPE  H14R18588   5.895   0.280   7.827  0.9633  1.4816 -1.0539
  165SAPE  C21518589   5.871   0.352   8.024  0.1707 -0.1671 -0.2163
  165SAPE  H15R18590   5.976   0.330   8.050  0.4024  0.1770 -0.8232
  165SAPE  C21618591   5.797   0.415   8.139 -0.3887 -0.0186  0.2371
  165SAPE  H16R18592   5.737   0.502   8.105 -2.6117 -1.6885 -0.3884
  165SAPE  H16S18593   5.874   0.455   8.207  0.9516 -1.6646 -0.2506
  165SAPE  C21718594   5.706   0.301   8.190  0.5701  0.2896  0.3130
  165SAPE  H17R18595   5.644   0.268   8.104  2.2198 -1.5894 -0.2294
  165SAPE  H17S18596   5.640   0.345   8.267 -1.8805 -0.5930 -1.1806
  165SAPE  C21818597   5.784   0.180   8.258  0.5180  0.6108  0.8518
  165SAPE  H18R18598   5.841   0.210   8.348  1.8133  1.0497 -0.0899
  165SAPE  H18S18599   5.868   0.126   8.210 -0.7157 -1.5250  0.9434
  165SAPE  C21918600   5.695   0.068   8.308  0.5705  0.9581 -0.5452
  165SAPE  H19R18601   5.751  -0.023   8.342 -1.0868  0.6091  1.4445
  165SAPE  H19S18602   5.624   0.037   8.229 -3.1564 -0.4604  2.9876
  165SAPE  C22018603   5.602   0.107   8.422 -0.0556 -0.2107 -0.7124
  165SAPE  H20R18604   5.526   0.184   8.397  0.8208  0.3849 -1.5829
  165SAPE  H20S18605   5.661   0.152   8.505  0.3965 -0.8610 -0.6771
  165SAPE  H20T18606   5.565   0.008   8.458  0.0590 -0.1964 -0.5540
  165SAPE   C3318607   5.331   0.559   6.718  0.5765 -0.2058 -0.0741
  165SAPE   H3X18608   5.374   0.603   6.626  1.8894 -0.4832  0.3689
  165SAPE   H3Y18609   5.380   0.461   6.736 -0.1832 -0.8296 -1.3032
  165SAPE   C3418610   5.362   0.657   6.842  0.1849  0.7066  0.4878
  165SAPE   H4X18611   5.312   0.756   6.829  1.9040  1.6820  0.9008
  165SAPE   H4Y18612   5.470   0.680   6.832 -0.1130  2.4029  0.7835
  165SAPE   C3518613   5.329   0.588   6.974  0.4928 -0.1374 -0.2905
  165SAPE   H5X18614   5.390   0.496   6.989  1.4327  0.2302 -1.6681
  165SAPE   H5Y18615   5.223   0.553   6.973  0.4225 -0.2558  2.7817
  165SAPE   C3618616   5.366   0.668   7.099 -0.2439  0.3968 -0.3190
  165SAPE   H6X18617   5.313   0.762   7.074 -2.4856 -0.5629  0.5547
  165SAPE   H6Y18618   5.477   0.681   7.100 -0.1102 -0.5026  1.7062
  165SAPE   C3718619   5.315   0.603   7.224 -0.0998  0.5139  0.0074
  165SAPE   H7X18620   5.341   0.497   7.247 -1.7245  0.2656  0.8957
  165SAPE   H7Y18621   5.204   0.597   7.213  0.0133 -1.3854 -0.5040
  165SAPE   C3818622   5.356   0.675   7.356  0.4705  0.5284  0.7190
  165SAPE   H8X18623   5.344   0.784   7.342  0.1147  0.4965  0.7789
  165SAPE   H8Y18624   5.465   0.657   7.371  0.3956 -1.1344 -0.4803
  165SAPE   C3918625   5.281   0.627   7.481 -0.9275  0.1879  0.2339
  165SAPE   H9X18626   5.288   0.517   7.495  1.6005  0.3119  0.4103
  165SAPE   H9Y18627   5.171   0.645   7.475 -1.0895 -0.5766  0.6953
  165SAPE  C31018628   5.334   0.703   7.609  0.0705  0.1909  0.1674
  165SAPE  H10X18629   5.285   0.802   7.606 -0.2385  0.0444  0.3499
  165SAPE  H10Y18630   5.442   0.727   7.598  0.4483 -1.7065 -0.6880
  165SAPE  C31118631   5.304   0.643   7.740  0.3801  0.3281  0.2643
  165SAPE  H11X18632   5.369   0.554   7.755 -1.0509 -0.9773 -0.9127
  165SAPE  H11Y18633   5.203   0.598   7.737  0.1477  0.8717 -0.4342
  165SAPE  C31218634   5.312   0.738   7.859  0.0644  0.6888  0.9269
  165SAPE  H12X18635   5.217   0.795   7.852 -2.1236 -2.6946  0.7851
  165SAPE  H12Y18636   5.393   0.812   7.842  1.6446 -1.3855 -1.4357
  165SAPE  C31318637   5.311   0.669   8.002 -0.7189 -0.5447 -0.1041
  165SAPE  H13X18638   5.257   0.572   7.997  0.3866 -1.1614 -0.2873
  165SAPE  H13Y18639   5.250   0.731   8.072 -1.4722  1.1098 -2.1103
  165SAPE  C31418640   5.448   0.685   8.073 -0.0278  0.2374  0.1605
  165SAPE  H14X18641   5.471   0.792   8.093  1.3181  0.0547 -0.3458
  165SAPE  H14Y18642   5.530   0.639   8.014 -1.6290 -1.5937 -0.7320
  165SAPE  C31518643   5.458   0.631   8.218  0.2686  0.8064 -0.4290
  165SAPE  H15X18644   5.478   0.522   8.218 -0.3152  0.6966 -0.9013
  165SAPE  H15Y18645   5.363   0.645   8.272  0.6982 -3.0219  1.6758
  165SAPE  C31618646   5.566   0.705   8.307  0.4238 -0.6096  0.2720
  165SAPE  H16X18647   5.530   0.807   8.332 -0.0034 -1.4260  3.4559
  165SAPE  H16Y18648   5.666   0.710   8.259  0.6226  0.3804  0.7530
  165SAPE  C31718649   5.585   0.640   8.442 -0.2083 -0.2055  0.0998
  165SAPE  H17X18650   5.599   0.531   8.423  1.8722  0.1335 -0.4932
  165SAPE  H17Y18651   5.495   0.657   8.506  0.4489 -1.4225  1.4075
  165SAPE  C31818652   5.711   0.692   8.512  0.0639  0.3104 -0.1733
  165SAPE  H18X18653   5.698   0.797   8.545 -1.3482  0.4056 -0.9751
  165SAPE  H18Y18654   5.795   0.675   8.442 -2.2808  1.7423 -3.5978
  165SAPE  H18Z18655   5.723   0.628   8.602 -0.2392  1.3563  0.6394
  166SAPE     N18656   4.947   1.514   5.562  0.2176 -0.1100  0.3315
  166SAPE   HN118657   5.050   1.528   5.557 -0.0001  1.3842 -0.4673
  166SAPE   HN218658   4.925   1.412   5.556  1.8921 -0.5333  0.8591
  166SAPE   HN318659   4.909   1.569   5.482  0.0749  1.6956  1.5885
  166SAPE   C1218660   4.867   1.575   5.675 -0.6504 -0.1001  0.0319
  166SAPE  H12A18661   4.760   1.547   5.668 -0.4322 -0.6701 -1.2451
  166SAPE  H12B18662   4.879   1.684   5.655 -1.2229  0.0153  0.3090
  166SAPE   C1118663   4.926   1.555   5.817 -0.2309  0.1448 -0.5309
  166SAPE  H11A18664   5.034   1.581   5.818  0.5792 -2.8295  0.1109
  166SAPE  H11B18665   4.928   1.447   5.845 -2.1882  0.3335  0.5373
  166SAPE     P18666   4.870   1.783   5.937  0.1925 -0.3414  0.5101
  166SAPE   O1318667   4.859   1.850   5.804  1.2242  0.3342  0.2260
  166SAPE   O1418668   4.784   1.833   6.051  0.5190  0.2788 -0.2329
  166SAPE   O1218669   4.846   1.621   5.921 -0.1193  0.2094 -0.5565
  166SAPE   O1118670   5.019   1.791   5.987 -0.0582 -0.3182  0.0187
  166SAPE    C118671   5.064   1.724   6.105  0.5333 -0.4255 -0.3142
  166SAPE    HA18672   4.975   1.682   6.156 -1.5969  0.2761 -3.1702
  166SAPE    HB18673   5.135   1.643   6.077  0.2231 -0.2694 -1.6458
  166SAPE    C218674   5.131   1.824   6.200 -0.1560  0.2996 -0.2006
  166SAPE    HS18675   5.131   1.922   6.147  0.7181  1.5848  2.0546
  166SAPE   O2118676   5.264   1.774   6.238  0.0976 -0.5660 -0.2460
  166SAPE   C2118677   5.353   1.877   6.256 -0.0700 -0.4917 -0.1318
  166SAPE   O2218678   5.327   1.994   6.252  0.5110  0.6586 -0.0212
  166SAPE   C2218679   5.483   1.817   6.291  0.9952 -0.2610  0.2686
  166SAPE   H2R18680   5.498   1.741   6.212 -0.6378 -0.4416  0.1006
  166SAPE   H2S18681   5.559   1.898   6.279  2.8671 -2.0438 -0.4958
  166SAPE    C318682   5.053   1.843   6.334 -0.7926  0.4994 -0.1579
  166SAPE    HX18683   5.029   1.744   6.380 -2.3418  0.8169 -0.2169
  166SAPE    HY18684   4.956   1.888   6.303 -0.9357  0.5793  0.3915
  166SAPE   O3118685   5.114   1.929   6.435  0.0245 -0.2195  0.4768
  166SAPE   C3118686   5.093   2.060   6.420  0.0778 -0.3603  0.6906
  166SAPE   O3218687   5.021   2.103   6.330 -0.3604 -0.3852 -0.3035
  166SAPE   C3218688   5.165   2.149   6.523  0.4112 -0.2201  0.0737
  166SAPE   H2X18689   5.188   2.236   6.458  1.1135 -1.7778 -1.8790
  166SAPE   H2Y18690   5.257   2.094   6.553  1.8182  1.4459 -1.0057
  166SAPE   C2318691   5.500   1.757   6.431  0.3298 -0.1513 -0.1226
  166SAPE   H3R18692   5.610   1.746   6.442  0.1323 -1.6754  0.5623
  166SAPE   H3S18693   5.457   1.655   6.421 -2.2181  0.9807 -1.7018
  166SAPE   C2418694   5.441   1.836   6.556  0.2412 -0.3649  0.3858
  166SAPE   H4R18695   5.330   1.831   6.554  0.2254 -1.4478  1.8692
  166SAPE   H4S18696   5.478   1.940   6.544 -0.5114  0.5950  4.5899
  166SAPE   C2518697   5.495   1.781   6.688 -0.1477 -0.6411  0.0843
  166SAPE   H5R18698   5.583   1.715   6.677  0.2771 -0.2566  1.0123
  166SAPE   C2618699   5.445   1.817   6.811 -0.0538  0.0515 -0.1097
  166SAPE   H6R18700   5.498   1.789   6.903 -0.9755 -0.2814  0.3292
  166SAPE   C2718701   5.321   1.903   6.838  0.0671  0.3465 -0.7038
  166SAPE   H7R18702   5.261   1.920   6.746  1.4654  0.7889 -1.5595
  166SAPE   H7S18703   5.356   2.004   6.866  1.5052 -0.7664  1.8875
  166SAPE   C2818704   5.243   1.835   6.953 -0.2096 -0.2571 -0.5031
  166SAPE   H8R18705   5.229   1.728   6.934 -3.6008  0.0947 -0.5448
  166SAPE   C2918706   5.221   1.875   7.084  0.3392  0.1536  0.6248
  166SAPE   H9R18707   5.172   1.800   7.149  1.6345 -1.0017  0.3171
  166SAPE  C21018708   5.258   2.007   7.144  0.7805  0.0918  0.0901
  166SAPE  H10R18709   5.162   2.031   7.196 -0.2511  0.8994 -2.0658
  166SAPE  H10S18710   5.245   2.086   7.067 -1.5117 -0.2095  0.0788
  166SAPE  C21118711   5.368   2.018   7.238  0.0098 -0.4821  0.0005
  166SAPE  H11R18712   5.458   1.961   7.209 -0.9476 -0.6086 -3.0804
  166SAPE  C21218713   5.371   2.080   7.355 -0.8158  0.0654  0.3303
  166SAPE  H12R18714   5.467   2.075   7.408  0.1051 -1.1562 -1.3256
  166SAPE  C21318715   5.261   2.150   7.433 -0.2605  0.6671  0.4610
  166SAPE  H13R18716   5.194   2.197   7.358 -1.5506 -1.3114  0.3001
  166SAPE  H13S18717   5.301   2.228   7.502  1.4514 -1.3730  1.8919
  166SAPE  C21418718   5.168   2.061   7.514  0.0661  0.2929 -0.1630
  166SAPE  H14R18719   5.087   2.003   7.468 -0.7074 -0.9006  2.5054
  166SAPE  C21518720   5.182   2.027   7.644 -0.2208 -0.3535 -0.7236
  166SAPE  H15R18721   5.118   1.943   7.675 -1.5615  0.7758 -0.3102
  166SAPE  C21618722   5.285   2.068   7.748 -0.4691 -0.1328 -0.3387
  166SAPE  H16R18723   5.237   2.113   7.837  2.1165 -1.2358  1.7267
  166SAPE  H16S18724   5.354   2.145   7.707 -0.9903 -0.4410 -1.8868
  166SAPE  C21718725   5.371   1.948   7.802 -0.4869 -0.4186  0.7717
  166SAPE  H17R18726   5.452   1.987   7.868 -0.4285  0.5859  0.1373
  166SAPE  H17S18727   5.408   1.881   7.722  1.0464 -1.1199  2.0101
  166SAPE  C21818728   5.298   1.837   7.881  0.2514 -0.4710  0.3725
  166SAPE  H18R18729   5.365   1.759   7.922 -0.5008 -1.0771  0.4743
  166SAPE  H18S18730   5.223   1.785   7.818  0.3722 -1.6913  1.1997
  166SAPE  C21918731   5.212   1.908   7.990 -0.1513  0.1025 -0.8258
  166SAPE  H19R18732   5.150   1.986   7.940 -0.2456  0.7469  0.2816
  166SAPE  H19S18733   5.290   1.947   8.058 -0.8708  2.9169 -1.4814
  166SAPE  C22018734   5.114   1.812   8.066 -0.5440 -1.1800  0.0464
  166SAPE  H20R18735   5.045   1.873   8.129 -0.5641 -2.4823  1.3362
  166SAPE  H20S18736   5.176   1.755   8.138 -0.6527 -1.5895 -0.1780
  166SAPE  H20T18737   5.053   1.746   7.999 -2.7442  0.3337  0.4318
  166SAPE   C3318738   5.085   2.193   6.641 -0.2209  0.1179 -0.7366
  166SAPE   H3X18739   5.045   2.104   6.694  1.3345 -1.2105 -1.7156
  166SAPE   H3Y18740   4.992   2.246   6.610 -2.2063 -0.4632  3.5364
  166SAPE   C3418741   5.162   2.283   6.746 -0.6884  1.0149 -0.1914
  166SAPE   H4X18742   5.174   2.385   6.703  0.1450  0.7488 -0.6126
  166SAPE   H4Y18743   5.268   2.248   6.747 -0.9492  0.2004 -0.3324
  166SAPE   C3518744   5.113   2.286   6.886  0.7075  0.2647 -0.3228
  166SAPE   H5X18745   5.110   2.184   6.931 -0.5742  0.5045  0.1721
  166SAPE   H5Y18746   5.012   2.329   6.900  0.1794 -0.2588 -2.2630
  166SAPE   C3618747   5.213   2.357   6.976 -0.3780 -0.5411 -0.3395
  166SAPE   H6X18748   5.223   2.462   6.939  1.3339  0.3983  2.4602
  166SAPE   H6Y18749   5.313   2.308   6.979  0.5720  1.3464  1.3635
  166SAPE   C3718750   5.173   2.379   7.125  0.3460  0.3287 -0.4518
  166SAPE   H7X18751   5.269   2.416   7.168 -1.2657  0.4017  3.4902
  166SAPE   H7Y18752   5.148   2.281   7.171  0.6417 -0.0146 -1.0086
  166SAPE   C3818753   5.065   2.485   7.153  0.3314  0.4282  0.9471
  166SAPE   H8X18754   4.972   2.474   7.094 -0.1545  1.0433  1.5701
  166SAPE   H8Y18755   5.111   2.586   7.148  0.2457  0.4255 -2.8328
  166SAPE   C3918756   5.016   2.484   7.305  0.5992  0.5086  0.1127
  166SAPE   H9X18757   4.992   2.376   7.317 -1.9601  0.5482 -3.2145
  166SAPE   H9Y18758   4.921   2.541   7.314 -0.5507 -0.8435 -2.3124
  166SAPE  C31018759   5.121   2.526   7.406 -0.2355  0.0451 -0.0271
  166SAPE  H10X18760   5.139   2.636   7.398  0.1045 -0.0329 -0.3451
  166SAPE  H10Y18761   5.207   2.462   7.377 -1.0551 -0.7360 -0.8042
  166SAPE  C31118762   5.081   2.491   7.551 -0.7439  0.1199  0.5545
  166SAPE  H11X18763   5.087   2.380   7.564  0.4989  0.1576  0.4225
  166SAPE  H11Y18764   4.977   2.524   7.569 -2.9219 -4.0697 -2.5966
  166SAPE  C31218765   5.186   2.533   7.654  1.0170  0.1158 -0.5968
  166SAPE  H12X18766   5.207   2.641   7.633 -1.2378  0.7369  0.0650
  166SAPE  H12Y18767   5.277   2.470   7.653  0.8284 -0.1595 -0.6199
  166SAPE  C31318768   5.127   2.528   7.796 -0.1071 -0.1103  0.0344
  166SAPE  H13X18769   5.045   2.603   7.799 -1.8227 -1.9502  1.5141
  166SAPE  H13Y18770   5.201   2.559   7.873  2.0328  0.9999 -2.3387
  166SAPE  C31418771   5.062   2.398   7.838 -0.3446 -0.0159  0.1287
  166SAPE  H14X18772   5.135   2.314   7.849 -2.6462 -2.0490  0.8424
  166SAPE  H14Y18773   4.992   2.355   7.763 -0.5920 -0.2595  0.4980
  166SAPE  C31518774   4.976   2.396   7.962  0.7898  0.5103 -0.5667
  166SAPE  H15X18775   4.879   2.449   7.950 -0.3847 -1.7077 -1.5157
  166SAPE  H15Y18776   5.038   2.435   8.045 -0.2096 -2.3278  1.6590
  166SAPE  C31618777   4.934   2.254   8.013  0.8033  0.2289 -0.1488
  166SAPE  H16X18778   5.028   2.211   8.053  1.0571  1.4342  0.6073
  166SAPE  H16Y18779   4.892   2.202   7.924  1.1507 -0.0304 -0.1630
  166SAPE  C31718780   4.819   2.243   8.116 -0.0324 -0.0631  1.1686
  166SAPE  H17X18781   4.780   2.138   8.118  0.1763 -0.1859 -0.1000
  166SAPE  H17Y18782   4.736   2.306   8.077 -2.5530 -2.1334  2.8569
  166SAPE  C31818783   4.849   2.286   8.255 -0.0159 -0.9265  0.7378
  166SAPE  H18X18784   4.762   2.294   8.324  0.1141  0.1757  0.7891
  166SAPE  H18Y18785   4.884   2.391   8.255  0.8578 -1.1749 -1.6133
  166SAPE  H18Z18786   4.939   2.234   8.293  1.3523  1.0016  0.2868
  167SAPE     N18787   6.180   0.979   5.758  0.0734 -0.8882  0.5349
  167SAPE   HN118788   6.091   1.032   5.749  1.1641  1.0684  0.6954
  167SAPE   HN218789   6.180   0.912   5.680  1.5603  1.1029 -1.2993
  167SAPE   HN318790   6.173   0.922   5.845 -2.6286 -1.6953 -0.1368
  167SAPE   C1218791   6.301   1.074   5.743 -0.0015  0.6188 -0.9078
  167SAPE  H12A18792   6.260   1.177   5.747  0.8505  0.9591 -0.6679
  167SAPE  H12B18793   6.352   1.049   5.648 -1.7983 -2.7133 -1.1492
  167SAPE   C1118794   6.403   1.053   5.864  0.3018 -0.3259  0.0295
  167SAPE  H11A18795   6.482   1.129   5.846  0.4892 -1.0107 -2.3286
  167SAPE  H11B18796   6.435   0.947   5.871 -0.7105 -0.5365  2.3283
  167SAPE     P18797   6.424   1.088   6.124  0.5214 -0.8532  0.1666
  167SAPE   O1318798   6.434   1.235   6.152 -0.3718  0.3112 -0.1383
  167SAPE   O1418799   6.359   0.997   6.228 -0.1111 -0.1763 -0.1687
  167SAPE   O1218800   6.336   1.078   5.989 -0.5471 -0.0920  0.1264
  167SAPE   O1118801   6.566   1.030   6.087 -0.5989  0.9861 -0.7380
  167SAPE    C118802   6.620   0.908   6.147 -0.8714 -0.0820 -0.1233
  167SAPE    HA18803   6.534   0.839   6.161 -2.2568  1.3478 -1.2279
  167SAPE    HB18804   6.697   0.869   6.078 -0.8761  1.1554 -0.8683
  167SAPE    C218805   6.690   0.932   6.286  0.6712 -0.3039 -0.1745
  167SAPE    HS18806   6.705   0.830   6.329 -3.5674 -0.3530  1.7439
  167SAPE   O2118807   6.613   1.008   6.379 -0.0840  0.6384  0.7034
  167SAPE   C2118808   6.537   0.942   6.462  0.3947  0.3827  0.0688
  167SAPE   O2218809   6.526   0.824   6.460 -0.0983 -0.2613 -0.1952
  167SAPE   C2218810   6.451   1.039   6.535 -0.0876  0.4920 -0.3996
  167SAPE   H2R18811   6.511   1.123   6.576 -0.5544  0.6243  0.0144
  167SAPE   H2S18812   6.371   1.086   6.474 -1.5908 -0.5577  0.6829
  167SAPE    C318813   6.828   0.997   6.262 -0.3129  0.0560  0.3065
  167SAPE    HX18814   6.808   1.083   6.195 -1.3129 -0.7091 -0.4080
  167SAPE    HY18815   6.888   0.926   6.203  1.9738  0.3821  2.0943
  167SAPE   O3118816   6.904   1.028   6.381  0.5114  0.6165  0.6515
  167SAPE   C3118817   6.971   0.929   6.432  0.3119  0.6462 -0.1721
  167SAPE   O3218818   6.972   0.816   6.388  0.0610  0.3487  0.4722
  167SAPE   C3218819   7.033   0.979   6.563  0.4414  0.2869 -0.3187
  167SAPE   H2X18820   7.020   1.089   6.570  0.7284  0.3664 -0.9636
  167SAPE   H2Y18821   7.139   0.947   6.572  0.9328  2.0588  0.5991
  167SAPE   C2318822   6.385   0.970   6.664  0.6467 -0.3366  0.3578
  167SAPE   H3R18823   6.451   0.887   6.697 -1.4129 -2.5402 -0.7079
  167SAPE   H3S18824   6.291   0.916   6.638  0.1907  1.5937 -2.4153
  167SAPE   C2418825   6.371   1.069   6.776  0.3694 -0.0652  0.6486
  167SAPE   H4R18826   6.464   1.129   6.771  0.4304 -0.1291  0.9780
  167SAPE   H4S18827   6.376   1.017   6.874  0.7874  0.1085  0.7217
  167SAPE   C2518828   6.252   1.166   6.753  0.0690 -0.4209 -0.3516
  167SAPE   H5R18829   6.215   1.180   6.651 -0.4936 -0.5811 -0.1743
  167SAPE   C2618830   6.178   1.224   6.851 -0.1579  0.1891  0.4521
  167SAPE   H6R18831   6.092   1.289   6.827  0.3589  0.9186  0.5530
  167SAPE   C2718832   6.206   1.213   7.000 -0.2091 -0.1463 -0.6329
  167SAPE   H7R18833   6.310   1.179   7.015  0.4259  2.7724  2.8262
  167SAPE   H7S18834   6.137   1.141   7.050  0.6547  1.2697  2.8563
  167SAPE   C2818835   6.198   1.350   7.060  0.3260 -0.3396 -0.2550
  167SAPE   H8R18836   6.245   1.433   7.006  1.1948  0.5401  1.7694
  167SAPE   C2918837   6.108   1.383   7.150  0.8661  0.3534  0.2326
  167SAPE   H9R18838   6.099   1.484   7.195 -0.8794  0.2064  0.2911
  167SAPE  C21018839   6.004   1.287   7.196 -0.5660 -0.1509 -0.4601
  167SAPE  H10R18840   6.052   1.199   7.244 -1.6463  0.6263  2.2865
  167SAPE  H10S18841   5.950   1.245   7.109 -0.9285  2.2706 -1.4657
  167SAPE  C21118842   5.910   1.350   7.293  0.3226  0.2895 -0.1169
  167SAPE  H11R18843   5.839   1.416   7.241 -1.7264 -0.9770  0.9527
  167SAPE  C21218844   5.919   1.341   7.427 -0.2597  0.1918  0.0383
  167SAPE  H12R18845   5.841   1.392   7.486 -0.8220 -0.4804 -0.1044
  167SAPE  C21318846   6.023   1.263   7.508  0.7326  0.0470  0.5475
  167SAPE  H13R18847   6.105   1.214   7.453 -1.3271 -2.4430 -0.4984
  167SAPE  H13S18848   5.976   1.174   7.556  0.9147  0.0182  0.6703
  167SAPE  C21418849   6.079   1.363   7.604 -0.4530 -0.1552  0.0081
  167SAPE  H14R18850   6.113   1.463   7.573  1.3281 -1.0495 -1.0708
  167SAPE  C21518851   6.067   1.355   7.737  1.0032 -0.3668 -0.5215
  167SAPE  H15R18852   6.105   1.442   7.792  1.4535 -0.1909 -1.0996
  167SAPE  C21618853   6.006   1.240   7.814 -0.1034 -0.1669 -0.1692
  167SAPE  H16R18854   5.921   1.190   7.763 -0.6256 -0.6751  1.1732
  167SAPE  H16S18855   5.960   1.291   7.902 -1.8006 -2.6653  0.4892
  167SAPE  C21718856   6.104   1.142   7.878 -0.3269 -0.3755  0.0671
  167SAPE  H17R18857   6.173   1.097   7.803 -1.3932 -1.7084 -0.1446
  167SAPE  H17S18858   6.048   1.057   7.922  0.3814 -0.7210  0.3318
  167SAPE  C21818859   6.185   1.197   7.997 -0.0215 -0.2713  0.0807
  167SAPE  H18R18860   6.256   1.262   7.941  1.5616 -2.1020 -0.1417
  167SAPE  H18S18861   6.228   1.100   8.029 -2.3840 -2.1666 -2.0690
  167SAPE  C21918862   6.112   1.251   8.114  0.1667 -0.2811 -0.7063
  167SAPE  H19R18863   6.046   1.173   8.157 -0.8581  0.8331 -0.1739
  167SAPE  H19S18864   6.052   1.337   8.077 -1.4154 -0.8328  0.4816
  167SAPE  C22018865   6.194   1.303   8.224 -0.7725 -0.7156  0.1798
  167SAPE  H20R18866   6.216   1.216   8.289  1.2920  0.3355  1.0169
  167SAPE  H20S18867   6.157   1.393   8.278  0.2681 -0.5849  0.7038
  167SAPE  H20T18868   6.286   1.341   8.172 -1.4589 -0.9293 -1.2354
  167SAPE   C3318869   6.972   0.904   6.686  0.8361  0.2133  0.4658
  167SAPE   H3X18870   7.031   0.923   6.779 -0.4514  3.1826  0.7862
  167SAPE   H3Y18871   6.966   0.795   6.669  1.9034  0.0215  1.1898
  167SAPE   C3418872   6.838   0.973   6.732  0.2565  0.6199  0.7074
  167SAPE   H4X18873   6.766   0.954   6.650  0.9521  0.5771  0.0866
  167SAPE   H4Y18874   6.837   1.083   6.748 -0.7153  0.5445  1.2130
  167SAPE   C3518875   6.769   0.916   6.852  0.3979 -0.4998  0.4303
  167SAPE   H5X18876   6.758   0.806   6.840  0.3507 -0.2317 -2.6903
  167SAPE   H5Y18877   6.666   0.957   6.861 -0.1472 -1.1848 -1.9641
  167SAPE   C3618878   6.852   0.927   6.980 -0.6276 -0.3743 -0.6930
  167SAPE   H6X18879   6.860   1.035   7.004 -1.8725  0.0698 -2.1232
  167SAPE   H6Y18880   6.957   0.895   6.965 -0.1536 -1.2082  3.3435
  167SAPE   C3718881   6.802   0.849   7.103 -0.8091  0.2942 -0.5480
  167SAPE   H7X18882   6.870   0.890   7.181  2.4350  1.2618 -3.6076
  167SAPE   H7Y18883   6.834   0.743   7.112  0.8690  0.6908 -1.3874
  167SAPE   C3818884   6.653   0.873   7.143 -0.3648 -0.8455  0.7213
  167SAPE   H8X18885   6.602   0.803   7.074  1.6813 -0.0394 -1.7354
  167SAPE   H8Y18886   6.634   0.980   7.119  1.8043 -0.4119  0.6856
  167SAPE   C3918887   6.622   0.837   7.291 -0.1310  1.1720  0.9769
  167SAPE   H9X18888   6.616   0.728   7.312  1.0118  1.2873  1.9948
  167SAPE   H9Y18889   6.520   0.876   7.311 -0.2551  1.6012 -0.3634
  167SAPE  C31018890   6.716   0.892   7.395 -0.0936  0.0835  0.0591
  167SAPE  H10X18891   6.722   1.001   7.379  0.2196 -0.1463 -1.6058
  167SAPE  H10Y18892   6.825   0.870   7.386  0.2873  1.7772  0.3378
  167SAPE  C31118893   6.657   0.865   7.541 -0.0534 -0.1050  0.2530
  167SAPE  H11X18894   6.664   0.757   7.567 -1.5089 -0.5425 -1.0086
  167SAPE  H11Y18895   6.548   0.884   7.535  0.0190  0.1314 -0.4583
  167SAPE  C31218896   6.719   0.947   7.653  0.2500  0.0179 -0.1305
  167SAPE  H12X18897   6.724   1.052   7.615  0.9428 -0.3248 -1.0164
  167SAPE  H12Y18898   6.818   0.903   7.676  0.7549  1.8700  1.5148
  167SAPE  C31318899   6.647   0.938   7.790  0.5790 -0.3332  0.6793
  167SAPE  H13X18900   6.606   0.836   7.809  1.7262 -0.7239  1.1016
  167SAPE  H13Y18901   6.553   0.997   7.777  0.4537 -0.5113  0.7730
  167SAPE  C31418902   6.732   0.997   7.902  0.5239  0.1279  0.6975
  167SAPE  H14X18903   6.756   1.103   7.879 -1.9415  0.6966  0.5708
  167SAPE  H14Y18904   6.818   0.926   7.905  0.5223  0.1610  1.6490
  167SAPE  C31518905   6.655   0.995   8.034  0.0909  0.1584 -0.1617
  167SAPE  H15X18906   6.602   0.898   8.035 -0.8430  0.6648  1.1647
  167SAPE  H15Y18907   6.567   1.064   8.027 -1.2897 -1.3706  1.3814
  167SAPE  C31618908   6.752   1.010   8.145 -0.1731 -0.4618 -0.6117
  167SAPE  H16X18909   6.803   1.106   8.125  0.4375 -0.5595  0.3862
  167SAPE  H16Y18910   6.835   0.936   8.138  0.9957  0.7415 -0.0816
  167SAPE  C31718911   6.694   1.039   8.286 -0.2297  0.0984 -0.3449
  167SAPE  H17X18912   6.586   1.059   8.267 -0.4668 -0.1523  0.6826
  167SAPE  H17Y18913   6.751   1.118   8.338 -1.1284 -0.2675  1.2651
  167SAPE  C31818914   6.707   0.910   8.377  0.1843  0.3356  0.9576
  167SAPE  H18X18915   6.815   0.897   8.401  1.4611 -0.7484 -4.1868
  167SAPE  H18Y18916   6.667   0.823   8.320 -0.9268  1.2964  0.2376
  167SAPE  H18Z18917   6.652   0.925   8.472  0.6854  0.3633  1.2454
  168SAPE     N18918   2.512   1.142   6.450  0.4067 -0.1546 -0.1299
  168SAPE   HN118919   2.437   1.200   6.406 -0.0883 -0.3717  0.4228
  168SAPE   HN218920   2.594   1.144   6.386  0.3427  1.0250 -0.1934
  168SAPE   HN318921   2.476   1.046   6.466 -0.1013 -0.0819 -0.7871
  168SAPE   C1218922   2.542   1.212   6.584  0.4098  0.0196 -0.3013
  168SAPE  H12A18923   2.643   1.257   6.573  0.1413  0.9547  0.9061
  168SAPE  H12B18924   2.560   1.142   6.668 -0.7183  1.8069  1.5193
  168SAPE   C1118925   2.447   1.330   6.616 -0.5883  0.3819  0.0450
  168SAPE  H11A18926   2.441   1.364   6.721  0.0876 -0.4098  0.3488
  168SAPE  H11B18927   2.341   1.297   6.605 -0.3207 -1.0092  1.4096
  168SAPE     P18928   2.391   1.584   6.542  0.4170  0.1620  0.2918
  168SAPE   O1318929   2.489   1.690   6.510  0.0760  0.2453 -0.1197
  168SAPE   O1418930   2.283   1.557   6.438  0.3635 -0.3151 -0.2031
  168SAPE   O1218931   2.477   1.443   6.532  0.1490 -0.0884 -0.2128
  168SAPE   O1118932   2.325   1.588   6.694  0.1251  0.4242 -0.2368
  168SAPE    C118933   2.406   1.610   6.810 -0.1153  0.8362 -0.2546
  168SAPE    HA18934   2.397   1.523   6.879  0.8007 -1.2235 -2.6196
  168SAPE    HB18935   2.512   1.614   6.777  0.0990 -2.4206 -0.2222
  168SAPE    C218936   2.371   1.744   6.865 -0.2493  0.6061  0.0677
  168SAPE    HS18937   2.414   1.749   6.967  0.1909  2.4682 -0.1617
  168SAPE   O2118938   2.235   1.767   6.867 -0.3792 -0.5351  0.2472
  168SAPE   C2118939   2.161   1.693   6.956 -0.6873  0.9885 -0.1046
  168SAPE   O2218940   2.217   1.621   7.038  0.6740  0.3817 -0.0154
  168SAPE   C2218941   2.016   1.732   6.952  0.2887  0.0814 -0.3103
  168SAPE   H2R18942   2.013   1.823   7.015  2.7814  0.0083  0.0314
  168SAPE   H2S18943   1.991   1.749   6.845 -2.8645  3.1174  0.7364
  168SAPE    C318944   2.431   1.861   6.780  0.0697 -0.2222  0.2345
  168SAPE    HX18945   2.363   1.870   6.693  0.5334  1.1048 -0.0091
  168SAPE    HY18946   2.534   1.827   6.755  0.8458  1.4834  0.9161
  168SAPE   O3118947   2.435   1.979   6.862 -0.3767 -0.0150 -0.4989
  168SAPE   C3118948   2.467   2.094   6.798 -0.3529 -0.1832 -0.4908
  168SAPE   O3218949   2.528   2.097   6.696  0.1552  0.6913  0.2268
  168SAPE   C3218950   2.426   2.226   6.869  0.7548  0.0836  0.1089
  168SAPE   H2X18951   2.344   2.195   6.938  0.2054 -0.2774 -0.6935
  168SAPE   H2Y18952   2.375   2.290   6.794 -0.0707 -1.5121 -0.7335
  168SAPE   C2318953   1.930   1.624   7.018 -0.1435 -0.5884  0.2342
  168SAPE   H3R18954   1.968   1.602   7.120 -0.5180 -1.6037  0.1714
  168SAPE   H3S18955   1.938   1.529   6.960 -1.2898 -1.0702  0.8377
  168SAPE   C2418956   1.778   1.649   7.037  0.0610  0.5618  0.5416
  168SAPE   H4R18957   1.761   1.729   7.112  1.0624 -0.7666  2.2916
  168SAPE   H4S18958   1.736   1.557   7.083 -1.0049  0.8603  0.1890
  168SAPE   C2518959   1.717   1.667   6.906  0.0840  0.7286 -0.1768
  168SAPE   H5R18960   1.720   1.767   6.861 -2.6896 -0.1446 -2.6822
  168SAPE   C2618961   1.638   1.577   6.843 -0.9331 -0.1082  0.1833
  168SAPE   H6R18962   1.600   1.613   6.746  0.7774  1.2252 -0.0350
  168SAPE   C2718963   1.609   1.436   6.883 -0.2628 -0.1339 -1.0946
  168SAPE   H7R18964   1.593   1.447   6.992  0.7080  3.2202 -1.2142
  168SAPE   H7S18965   1.699   1.372   6.873 -0.3676 -0.0588 -2.8393
  168SAPE   C2818966   1.517   1.356   6.798  0.3949 -0.4551 -0.1833
  168SAPE   H8R18967   1.527   1.355   6.689 -2.3640 -0.9600 -0.5033
  168SAPE   C2918968   1.418   1.285   6.849  0.9123 -0.0055 -0.3617
  168SAPE   H9R18969   1.349   1.240   6.776 -0.3471  3.1814 -1.3030
  168SAPE  C21018970   1.384   1.260   6.992 -0.7399 -0.6797 -0.3969
  168SAPE  H10R18971   1.472   1.274   7.058 -0.2016 -1.5240 -0.9160
  168SAPE  H10S18972   1.360   1.152   7.001 -1.2491 -0.4795  0.8859
  168SAPE  C21118973   1.261   1.322   7.058  0.1162 -0.6663  0.4530
  168SAPE  H11R18974   1.206   1.380   6.982  0.7326 -2.7581 -1.7118
  168SAPE  C21218975   1.222   1.306   7.187 -0.4659 -0.3588  0.3722
  168SAPE  H12R18976   1.129   1.352   7.225 -1.3896 -1.2734 -0.6692
  168SAPE  C21318977   1.284   1.214   7.290  0.2080 -0.0225  0.0816
  168SAPE  H13R18978   1.347   1.269   7.363 -2.5508 -0.3584  2.9288
  168SAPE  H13S18979   1.351   1.136   7.249  0.6586 -1.6425  3.5200
  168SAPE  C21418980   1.186   1.127   7.360  0.0621  0.6194 -0.0065
  168SAPE  H14R18981   1.127   1.061   7.295 -0.5011 -0.0288  1.1213
  168SAPE  C21518982   1.178   1.114   7.493 -1.5217  0.0628  0.3177
  168SAPE  H15R18983   1.110   1.038   7.534 -0.1343 -2.1121 -1.2544
  168SAPE  C21618984   1.255   1.198   7.587  0.3201 -0.4018  0.2519
  168SAPE  H16R18985   1.211   1.299   7.580  1.4161 -0.0150 -1.7797
  168SAPE  H16S18986   1.360   1.211   7.555 -0.4783 -1.6348 -3.4625
  168SAPE  C21718987   1.271   1.147   7.730  0.2626 -0.0169  0.1344
  168SAPE  H17R18988   1.342   1.210   7.787 -0.9381  1.6898 -0.1898
  168SAPE  H17S18989   1.314   1.045   7.736  1.7521  0.6396  1.1169
  168SAPE  C21818990   1.134   1.144   7.795  0.0406 -0.7859  0.3018
  168SAPE  H18R18991   1.068   1.071   7.743  0.0380  0.0001 -0.8189
  168SAPE  H18S18992   1.088   1.245   7.786 -0.6226 -1.1676 -0.7906
  168SAPE  C21918993   1.125   1.111   7.945 -0.0504  0.5563 -0.1355
  168SAPE  H19R18994   1.184   1.018   7.956 -0.5268  0.4058  1.4555
  168SAPE  H19S18995   1.020   1.091   7.976  0.5971 -1.1166  1.1393
  168SAPE  C22018996   1.168   1.219   8.045  0.0219 -0.7576 -0.0666
  168SAPE  H20R18997   1.153   1.192   8.152 -0.4826  0.3915  0.1720
  168SAPE  H20S18998   1.113   1.314   8.033  0.0470 -0.3935  2.2361
  168SAPE  H20T18999   1.270   1.258   8.030 -0.3344  0.6802  1.0951
  168SAPE   C3319000   2.539   2.303   6.937 -0.5582  0.5459 -0.4064
  168SAPE   H3X19001   2.504   2.400   6.979 -2.4113 -0.8288  1.3346
  168SAPE   H3Y19002   2.615   2.332   6.860  0.2210  0.0681  0.1647
  168SAPE   C3419003   2.608   2.225   7.049  0.1496 -0.0622  0.3020
  168SAPE   H4X19004   2.716   2.250   7.055  0.8030 -1.8655 -2.1817
  168SAPE   H4Y19005   2.610   2.119   7.015  0.7650  0.3982 -1.1426
  168SAPE   C3519006   2.533   2.222   7.183 -0.3995 -0.0920 -0.4264
  168SAPE   H5X19007   2.557   2.122   7.225 -0.2329 -0.1343 -0.6172
  168SAPE   H5Y19008   2.423   2.212   7.186 -0.4114  0.1278 -0.0413
  168SAPE   C3619009   2.571   2.330   7.283  0.3486 -0.3867 -0.0269
  168SAPE   H6X19010   2.530   2.425   7.242 -0.7640 -0.1496  1.5566
  168SAPE   H6Y19011   2.682   2.340   7.290  0.2378  2.7925 -0.9763
  168SAPE   C3719012   2.505   2.329   7.415 -0.4350  0.5544 -0.6384
  168SAPE   H7X19013   2.402   2.367   7.398 -0.9490  0.1489  1.3616
  168SAPE   H7Y19014   2.557   2.398   7.485 -0.7690 -0.0912  0.2671
  168SAPE   C3819015   2.496   2.187   7.483  0.3686  0.4927  0.7188
  168SAPE   H8X19016   2.598   2.148   7.504  0.3152  0.1384  0.3067
  168SAPE   H8Y19017   2.450   2.124   7.405  0.1500  0.5493  0.8020
  168SAPE   C3919018   2.408   2.180   7.606  0.0053 -0.2347 -0.5858
  168SAPE   H9X19019   2.334   2.102   7.578 -0.0293  0.1636 -1.6766
  168SAPE   H9Y19020   2.357   2.279   7.611  2.6675  1.1889  0.1274
  168SAPE  C31019021   2.486   2.135   7.730  0.7866  0.0486  0.9192
  168SAPE  H10X19022   2.555   2.207   7.778  1.7076 -0.2984  0.1612
  168SAPE  H10Y19023   2.538   2.039   7.707  0.3954  0.3108 -1.3480
  168SAPE  C31119024   2.384   2.089   7.836 -0.4333  0.1086  0.2512
  168SAPE  H11X19025   2.302   2.036   7.784 -0.5300  0.4697  0.0328
  168SAPE  H11Y19026   2.355   2.179   7.894 -0.0459 -0.0436  0.6919
  168SAPE  C31219027   2.447   1.990   7.931  0.1000 -0.6653 -0.9175
  168SAPE  H12X19028   2.528   2.044   7.985 -1.4603  2.3545 -1.3875
  168SAPE  H12Y19029   2.489   1.897   7.887 -1.0796 -1.7328  0.1202
  168SAPE  C31319030   2.337   1.956   8.023  0.0895  0.7080  0.1072
  168SAPE  H13X19031   2.241   1.923   7.979  0.5899 -0.0791 -0.4274
  168SAPE  H13Y19032   2.319   2.042   8.090  1.2409  0.5742  0.6136
  168SAPE  C31419033   2.376   1.841   8.121  0.6123  0.3508  0.1784
  168SAPE  H14X19034   2.483   1.812   8.132  0.6592 -0.1096 -1.2841
  168SAPE  H14Y19035   2.320   1.752   8.085 -1.0452  1.3057  0.3209
  168SAPE  C31519036   2.326   1.871   8.265 -0.4835  0.9406  0.1610
  168SAPE  H15X19037   2.217   1.883   8.248 -0.3858  1.1628 -0.3132
  168SAPE  H15Y19038   2.367   1.961   8.316 -0.2968 -0.4477  2.6348
  168SAPE  C31619039   2.351   1.750   8.353  0.1292  0.4505 -0.4351
  168SAPE  H16X19040   2.459   1.724   8.355 -0.2552 -1.2442 -0.3822
  168SAPE  H16Y19041   2.297   1.661   8.313  1.7297 -0.8320  0.1448
  168SAPE  C31719042   2.311   1.784   8.498 -0.0886 -0.1319  0.3480
  168SAPE  H17X19043   2.218   1.846   8.498  0.4744  0.7359  0.4954
  168SAPE  H17Y19044   2.381   1.853   8.549 -1.6828 -0.1895  2.8002
  168SAPE  C31819045   2.296   1.666   8.582  0.3549 -0.0316  0.3268
  168SAPE  H18X19046   2.275   1.688   8.689 -0.9938  1.2410 -0.1697
  168SAPE  H18Y19047   2.395   1.615   8.578 -0.1087 -0.8996 -0.7257
  168SAPE  H18Z19048   2.225   1.590   8.541  1.3746 -0.4261 -0.7413
  169SAPE     N19049   0.016   3.881   6.266  0.2241 -0.5924 -0.4784
  169SAPE   HN119050  -0.074   3.836   6.295 -0.2628  0.3014 -0.5741
  169SAPE   HN219051   0.008   3.902   6.165 -1.0754 -2.1875 -0.7444
  169SAPE   HN319052   0.098   3.819   6.276  1.8853  1.2311 -2.0583
  169SAPE   C1219053   0.026   4.008   6.348 -0.4149  0.8810  0.1266
  169SAPE  H12A19054   0.109   4.075   6.317 -1.8291  2.1704 -1.0474
  169SAPE  H12B19055   0.056   3.973   6.450  1.1596  2.7295  0.3515
  169SAPE   C1119056  -0.104   4.082   6.343 -0.7484  0.3159 -1.4243
  169SAPE  H11A19057  -0.126   4.105   6.237 -1.5051  3.0648 -0.7547
  169SAPE  H11B19058  -0.098   4.179   6.397  1.5733 -0.6088  0.1488
  169SAPE     P19059  -0.350   4.054   6.418  0.3940 -0.2719  0.1425
  169SAPE   O1319060  -0.396   4.132   6.300 -0.4351 -0.2419  0.8702
  169SAPE   O1419061  -0.438   3.944   6.461  0.7210  0.3778  0.0539
  169SAPE   O1219062  -0.202   3.990   6.404  0.6449 -0.6720  0.1745
  169SAPE   O1119063  -0.333   4.166   6.529  0.9030  0.1185  0.2924
  169SAPE    C119064  -0.247   4.143   6.640 -0.2451  0.7386  0.6120
  169SAPE    HA19065  -0.207   4.041   6.658 -0.7744  0.4619  0.2639
  169SAPE    HB19066  -0.153   4.199   6.625  0.5829 -0.6406  0.4386
  169SAPE    C219067  -0.315   4.205   6.765  0.2967 -0.3178  0.3176
  169SAPE    HS19068  -0.245   4.289   6.781  0.2172  0.0209 -0.9964
  169SAPE   O2119069  -0.309   4.105   6.873 -0.2106 -0.2028  0.3026
  169SAPE   C2119070  -0.283   4.158   6.990 -0.7883  0.0085 -0.3244
  169SAPE   O2219071  -0.276   4.278   7.016  0.0295 -0.1425 -0.3466
  169SAPE   C2219072  -0.269   4.045   7.094 -0.3245 -0.4336  0.3715
  169SAPE   H2R19073  -0.361   3.984   7.102  0.7324 -2.2390 -0.5905
  169SAPE   H2S19074  -0.186   3.976   7.065  1.3757  0.5650  2.5429
  169SAPE    C319075  -0.458   4.262   6.747 -0.0944  0.0539  0.5124
  169SAPE    HX19076  -0.516   4.175   6.710 -0.1954 -0.0111  0.8267
  169SAPE    HY19077  -0.448   4.328   6.658  2.5542 -1.2482 -0.2414
  169SAPE   O3119078  -0.518   4.325   6.863  0.5742  0.3009 -0.7387
  169SAPE   C3119079  -0.498   4.453   6.881  0.0312 -0.4864  0.4216
  169SAPE   O3219080  -0.437   4.523   6.803 -0.1175 -0.5896  0.2018
  169SAPE   C3219081  -0.567   4.516   7.008  1.0722  0.0572  0.5620
  169SAPE   H2X19082  -0.664   4.465   7.026 -0.3121  3.0802  2.6732
  169SAPE   H2Y19083  -0.594   4.621   6.982 -0.3307 -0.3357  0.3330
  169SAPE   C2319084  -0.239   4.111   7.225 -0.5670  0.0501 -0.6337
  169SAPE   H3R19085  -0.326   4.178   7.241 -0.0964  1.0311 -2.0481
  169SAPE   H3S19086  -0.149   4.176   7.221 -0.6291  0.3202  1.3653
  169SAPE   C2419087  -0.220   3.999   7.331 -0.1430 -0.4928  0.0009
  169SAPE   H4R19088  -0.128   3.943   7.304 -0.3936 -0.0802 -1.8537
  169SAPE   H4S19089  -0.293   3.918   7.310  0.9623 -1.4223 -0.3981
  169SAPE   C2519090  -0.206   4.070   7.469  0.3645 -0.4767  0.8383
  169SAPE   H5R19091  -0.227   4.178   7.473  3.5341  0.2894  0.0115
  169SAPE   C2619092  -0.174   4.020   7.582 -0.5806 -0.2926  0.8053
  169SAPE   H6R19093  -0.196   4.080   7.671 -1.1371 -1.4200  1.4414
  169SAPE   C2719094  -0.127   3.877   7.609  0.6022 -0.1279 -0.0299
  169SAPE   H7R19095  -0.086   3.820   7.522 -0.3402 -1.6983  0.5016
  169SAPE   H7S19096  -0.215   3.813   7.633  0.7497 -0.3277 -0.0103
  169SAPE   C2819097  -0.024   3.865   7.725  0.0195 -0.1107  0.1883
  169SAPE   H8R19098   0.081   3.858   7.694  0.0297  0.8992 -0.0423
  169SAPE   C2919099  -0.057   3.860   7.860 -0.1609  0.3574  0.4694
  169SAPE   H9R19100   0.026   3.855   7.932 -0.5524  3.3182  1.2474
  169SAPE  C21019101  -0.198   3.840   7.912  0.0352  0.5113 -0.5301
  169SAPE  H10R19102  -0.272   3.826   7.830  1.2621  2.1106 -1.9757
  169SAPE  H10S19103  -0.226   3.932   7.966  0.7436  0.8127 -0.6667
  169SAPE  C21119104  -0.213   3.732   8.010  0.3496  0.2341 -0.4788
  169SAPE  H11R19105  -0.259   3.639   7.973 -0.0950  0.9487 -1.7737
  169SAPE  C21219106  -0.186   3.739   8.142  0.0143 -0.1899  0.4634
  169SAPE  H12R19107  -0.234   3.661   8.202 -0.3137 -0.1841  0.2062
  169SAPE  C21319108  -0.129   3.853   8.223  0.2785  0.1582  0.4703
  169SAPE  H13R19109  -0.179   3.852   8.322  1.0442 -2.1639  0.8996
  169SAPE  H13S19110  -0.152   3.944   8.165  2.7829 -0.1092 -1.0869
  169SAPE  C21419111   0.022   3.854   8.234  0.0910 -0.5301  0.5074
  169SAPE  H14R19112   0.080   3.853   8.140 -1.1772  1.2347 -0.3596
  169SAPE  C21519113   0.092   3.881   8.348  0.1769 -0.2686 -0.6546
  169SAPE  H15R19114   0.202   3.887   8.349  0.0998  1.3707 -0.2244
  169SAPE  C21619115   0.037   3.896   8.489  0.5488  0.7489 -0.0973
  169SAPE  H16R19116  -0.062   3.945   8.496 -0.6280 -1.6502  0.7370
  169SAPE  H16S19117   0.107   3.963   8.544  1.9963 -0.5087 -0.3492
  169SAPE  C21719118   0.032   3.763   8.569 -0.3018 -0.3800 -0.1471
  169SAPE  H17R19119  -0.005   3.788   8.671 -0.3297 -2.1819  0.3215
  169SAPE  H17S19120   0.128   3.708   8.574  0.5341  1.1271  1.5071
  169SAPE  C21819121  -0.072   3.666   8.513  0.0965  0.2281 -0.3321
  169SAPE  H18R19122  -0.037   3.630   8.414 -0.2181 -2.7244  0.5338
  169SAPE  H18S19123  -0.168   3.722   8.515 -0.5087 -0.6874 -2.2457
  169SAPE  C21919124  -0.083   3.538   8.605 -0.1997 -0.0505  0.1740
  169SAPE  H19R19125  -0.135   3.567   8.698 -0.0364 -2.3485  1.0351
  169SAPE  H19S19126   0.020   3.510   8.637 -0.6398  0.7362  2.4532
  169SAPE  C22019127  -0.168   3.430   8.532 -0.3468 -0.3315 -0.0206
  169SAPE  H20R19128  -0.172   3.340   8.597  0.5002  1.4581  2.6910
  169SAPE  H20S19129  -0.134   3.419   8.427 -0.3766 -1.3247  0.0648
  169SAPE  H20T19130  -0.276   3.458   8.536 -0.3652 -0.2892 -0.7128
  169SAPE   C3319131  -0.496   4.503   7.140  0.7332  0.0359 -0.8252
  169SAPE   H3X19132  -0.389   4.528   7.120  1.4376 -2.5560 -0.6361
  169SAPE   H3Y19133  -0.497   4.399   7.179  3.6973  0.0285 -0.5309
  169SAPE   C3419134  -0.580   4.568   7.247  0.1616 -0.8159  0.3205
  169SAPE   H4X19135  -0.690   4.550   7.246 -0.3857  2.0093 -1.3978
  169SAPE   H4Y19136  -0.582   4.677   7.223  2.7531 -0.6256  0.7711
  169SAPE   C3519137  -0.524   4.556   7.388 -0.1130 -0.0672 -0.0577
  169SAPE   H5X19138  -0.424   4.604   7.401  0.3760  0.0467 -3.3918
  169SAPE   H5Y19139  -0.504   4.448   7.407 -0.7606 -0.0310  0.8585
  169SAPE   C3619140  -0.620   4.619   7.492 -0.2167 -0.0998 -1.0456
  169SAPE   H6X19141  -0.725   4.593   7.465  0.4534 -1.5919 -2.3455
  169SAPE   H6Y19142  -0.626   4.727   7.466  1.0044 -0.4478 -2.9684
  169SAPE   C3719143  -0.580   4.591   7.639  0.3247 -0.3092  0.0158
  169SAPE   H7X19144  -0.472   4.617   7.640 -0.0814  1.9041 -2.1081
  169SAPE   H7Y19145  -0.599   4.483   7.654 -0.2699 -0.3142 -0.7090
  169SAPE   C3819146  -0.658   4.676   7.734  0.7188 -0.0254 -0.2871
  169SAPE   H8X19147  -0.638   4.782   7.706 -1.1697  0.2956 -0.4995
  169SAPE   H8Y19148  -0.614   4.660   7.835 -1.1594  1.2215  0.7854
  169SAPE   C3919149  -0.818   4.645   7.736  0.4804 -0.2877 -0.5669
  169SAPE   H9X19150  -0.817   4.534   7.731  0.1230 -0.3728  0.8545
  169SAPE   H9Y19151  -0.859   4.698   7.648  0.9004  0.6639 -0.2078
  169SAPE  C31019152  -0.897   4.688   7.857 -0.4018  0.4382 -0.4652
  169SAPE  H10X19153  -1.005   4.705   7.837 -0.5632 -0.2821 -0.2302
  169SAPE  H10Y19154  -0.857   4.788   7.884  3.8689 -0.5139 -2.3646
  169SAPE  C31119155  -0.887   4.592   7.977 -0.0491  0.2196 -0.5694
  169SAPE  H11X19156  -0.787   4.615   8.018  0.5873 -0.2570 -1.8081
  169SAPE  H11Y19157  -0.894   4.486   7.945 -0.9152 -0.1357  0.7065
  169SAPE  C31219158  -0.977   4.633   8.089 -0.9391  0.3472  0.3026
  169SAPE  H12X19159  -1.081   4.640   8.051 -0.4699  1.8105 -0.8120
  169SAPE  H12Y19160  -0.944   4.729   8.134 -2.2688  1.5843 -1.2185
  169SAPE  C31319161  -0.965   4.531   8.205 -0.0277 -0.1733 -0.3036
  169SAPE  H13X19162  -0.967   4.427   8.166  1.7783 -1.0359  1.6756
  169SAPE  H13Y19163  -1.061   4.541   8.259  0.6737  1.8661  0.6643
  169SAPE  C31419164  -0.853   4.547   8.307  0.1714 -0.6344  0.5334
  169SAPE  H14X19165  -0.865   4.655   8.332  3.4508  0.5566 -2.2696
  169SAPE  H14Y19166  -0.761   4.539   8.245 -0.3539  2.8273 -0.8844
  169SAPE  C31519167  -0.857   4.468   8.430 -0.2940  0.5834  0.0581
  169SAPE  H15X19168  -0.868   4.362   8.398  2.3937 -0.3934  2.0135
  169SAPE  H15Y19169  -0.954   4.487   8.481 -1.5522 -2.3712 -0.9899
  169SAPE  C31619170  -0.736   4.498   8.519  0.7423 -0.5210 -0.0855
  169SAPE  H16X19171  -0.754   4.438   8.611 -1.0041  2.5231  1.7059
  169SAPE  H16Y19172  -0.742   4.604   8.551 -0.1527 -0.8356  0.8480
  169SAPE  C31719173  -0.601   4.454   8.458  0.0296 -0.0115 -0.7296
  169SAPE  H17X19174  -0.579   4.517   8.370 -0.2587  0.4217 -0.4968
  169SAPE  H17Y19175  -0.615   4.349   8.424  0.1908 -0.0512 -0.6759
  169SAPE  C31819176  -0.481   4.458   8.555  0.0830 -0.1793  0.3044
  169SAPE  H18X19177  -0.510   4.449   8.662  0.2220  0.1334  0.3691
  169SAPE  H18Y19178  -0.414   4.546   8.544  0.5819 -0.5965 -0.0405
  169SAPE  H18Z19179  -0.419   4.373   8.519  0.5352  0.0210  0.5983
  170SAPE     N19180   0.841   6.685   6.413 -0.0841 -0.6873 -0.0021
  170SAPE   HN119181   0.828   6.750   6.493 -2.7744 -1.9621  0.7392
  170SAPE   HN219182   0.843   6.741   6.325  1.3769  1.4309  1.3076
  170SAPE   HN319183   0.762   6.616   6.412 -1.4686  0.8282 -1.6018
  170SAPE   C1219184   0.978   6.615   6.424 -0.3104  0.4820 -1.0784
  170SAPE  H12A19185   0.988   6.559   6.329  0.9627 -0.8957 -0.1672
  170SAPE  H12B19186   0.967   6.534   6.499  0.2194  0.8869 -0.5538
  170SAPE   C1119187   1.092   6.699   6.469 -0.4267 -0.8855 -0.4565
  170SAPE  H11A19188   1.178   6.630   6.483  0.1929 -0.0177  0.0860
  170SAPE  H11B19189   1.062   6.729   6.572  2.3212  1.0055 -0.1268
  170SAPE     P19190   1.224   6.796   6.257 -0.2492  0.4244 -0.3194
  170SAPE   O1319191   1.189   6.670   6.180 -0.3974  0.3558 -0.0180
  170SAPE   O1419192   1.233   6.927   6.185 -0.2099 -0.3490 -0.4030
  170SAPE   O1219193   1.119   6.806   6.381 -0.3294  0.1024  0.7790
  170SAPE   O1119194   1.352   6.769   6.333  0.3198 -0.6820 -0.0511
  170SAPE    C119195   1.435   6.874   6.373  0.9958 -0.4278  1.0181
  170SAPE    HA19196   1.533   6.873   6.319  0.3696 -2.3987 -0.1848
  170SAPE    HB19197   1.395   6.978   6.365  0.1418 -0.6541  2.0689
  170SAPE    C219198   1.471   6.863   6.520 -0.0361 -0.2800  0.2899
  170SAPE    HS19199   1.493   6.756   6.537 -0.6015 -0.3866  0.3600
  170SAPE   O2119200   1.365   6.905   6.605  0.0295 -0.4264 -0.2640
  170SAPE   C2119201   1.349   6.841   6.721 -0.9613 -0.5383 -0.3710
  170SAPE   O2219202   1.418   6.749   6.765  0.0404 -0.5391  0.0220
  170SAPE   C2219203   1.225   6.900   6.790 -0.4173 -0.0794  0.4688
  170SAPE   H2R19204   1.241   7.010   6.792 -0.9219  0.0153 -0.2502
  170SAPE   H2S19205   1.134   6.872   6.733 -1.5336  2.0513  1.0604
  170SAPE    C319206   1.603   6.947   6.558 -0.9405  0.2982  0.1615
  170SAPE    HX19207   1.578   7.054   6.567  3.7134  1.6896 -0.9132
  170SAPE    HY19208   1.689   6.935   6.488 -0.2949  1.3277  0.7532
  170SAPE   O3119209   1.652   6.901   6.689 -0.5362  0.6003 -0.7494
  170SAPE   C3119210   1.773   6.942   6.717 -0.2280 -0.4865 -0.0486
  170SAPE   O3219211   1.842   7.025   6.649  0.3461 -0.0194  0.1052
  170SAPE   C3219212   1.816   6.887   6.852 -0.5084  0.2587 -0.0168
  170SAPE   H2X19213   1.810   6.776   6.847 -2.8061  0.3148  0.3155
  170SAPE   H2Y19214   1.738   6.914   6.927  0.1271 -0.1049  0.7899
  170SAPE   C2319215   1.209   6.855   6.933 -0.6087 -0.8639 -0.8197
  170SAPE   H3R19216   1.288   6.895   7.000 -0.9312 -0.2047 -0.8270
  170SAPE   H3S19217   1.198   6.745   6.938 -2.6830 -0.6590  2.9699
  170SAPE   C2419218   1.071   6.899   6.980 -0.7078 -0.4470 -0.6154
  170SAPE   H4R19219   1.056   6.828   7.064  1.0202 -1.4724 -1.1247
  170SAPE   H4S19220   0.995   6.869   6.905 -1.6691 -0.4436  0.3245
  170SAPE   C2519221   1.056   7.039   7.035  0.2949 -0.3774 -0.5300
  170SAPE   H5R19222   1.038   7.118   6.960  3.1205  1.4836  0.5941
  170SAPE   C2619223   1.060   7.080   7.164 -0.2893  0.1033  0.3704
  170SAPE   H6R19224   1.046   7.186   7.190 -0.7367  0.5057 -1.3773
  170SAPE   C2719225   1.068   6.997   7.291 -1.1345  0.1828  0.4323
  170SAPE   H7R19226   1.000   6.911   7.278 -0.8388  0.2824 -2.4902
  170SAPE   H7S19227   1.026   7.055   7.376 -0.4508  0.0211  0.8868
  170SAPE   C2819228   1.211   6.938   7.315 -0.4232 -1.0014 -0.0521
  170SAPE   H8R19229   1.269   6.907   7.227  1.5580  2.4769 -0.1539
  170SAPE   C2919230   1.275   6.926   7.430 -0.9841 -0.1470 -0.5777
  170SAPE   H9R19231   1.373   6.878   7.417 -1.2507 -1.1404  0.8583
  170SAPE  C21019232   1.220   6.976   7.563  1.2454 -0.1473 -0.0636
  170SAPE  H10R19233   1.122   6.927   7.581  0.8673  1.4045  2.7842
  170SAPE  H10S19234   1.202   7.086   7.561  0.3062 -0.3123 -1.6377
  170SAPE  C21119235   1.295   6.946   7.688 -0.1171  0.6640 -0.6724
  170SAPE  H11R19236   1.241   6.891   7.766  0.2974  0.5157 -0.4879
  170SAPE  C21219237   1.422   6.977   7.716 -0.5089 -0.5617 -0.5379
  170SAPE  H12R19238   1.466   6.945   7.812 -1.2715 -3.1902 -0.9801
  170SAPE  C21319239   1.531   7.035   7.624  0.4816  0.3455 -0.1066
  170SAPE  H13R19240   1.541   6.951   7.552 -1.3736  0.5616 -0.6718
  170SAPE  H13S19241   1.630   7.047   7.673  0.7921 -0.8482 -0.4302
  170SAPE  C21419242   1.487   7.163   7.546 -0.1171  0.2144  0.2765
  170SAPE  H14R19243   1.395   7.212   7.582 -0.6470 -0.1400 -0.5690
  170SAPE  C21519244   1.557   7.216   7.445 -0.4200  0.0667 -0.4742
  170SAPE  H15R19245   1.525   7.310   7.399  1.5110 -0.2081 -2.5742
  170SAPE  C21619246   1.684   7.172   7.379 -0.0360 -0.2783 -0.0517
  170SAPE  H16R19247   1.684   7.064   7.352  0.6204 -0.2942 -0.0034
  170SAPE  H16S19248   1.753   7.170   7.465 -2.8802  2.1312  2.5151
  170SAPE  C21719249   1.727   7.264   7.264  0.0829 -0.5125  0.1627
  170SAPE  H17R19250   1.815   7.218   7.214  1.4090  1.6863  0.3264
  170SAPE  H17S19251   1.763   7.361   7.304 -3.9797  0.5845  1.6692
  170SAPE  C21819252   1.624   7.291   7.160  0.4410  0.5680 -0.0849
  170SAPE  H18R19253   1.646   7.380   7.097 -1.6691 -0.9299 -3.1591
  170SAPE  H18S19254   1.527   7.326   7.201  1.1531  1.6822  0.7209
  170SAPE  C21919255   1.594   7.158   7.082  0.2646  0.0226  0.1703
  170SAPE  H19R19256   1.558   7.080   7.153  0.8238  1.5779  2.2681
  170SAPE  H19S19257   1.692   7.124   7.045 -0.7399 -2.0686 -0.7044
  170SAPE  C22019258   1.503   7.179   6.952  0.2914  0.5127 -0.9017
  170SAPE  H20R19259   1.500   7.084   6.895 -3.9846 -1.1811  1.6803
  170SAPE  H20S19260   1.538   7.259   6.884  1.4242  0.4121 -0.4721
  170SAPE  H20T19261   1.402   7.200   6.992  0.8557  0.3011  0.7419
  170SAPE   C3319262   1.965   6.928   6.878  0.0434 -0.5855 -0.1283
  170SAPE   H3X19263   1.978   7.038   6.879 -0.1279 -0.5690  0.2134
  170SAPE   H3Y19264   2.019   6.881   6.793  0.4879  0.2774 -0.3238
  170SAPE   C3419265   2.033   6.875   7.008 -0.4361 -0.0572  0.0251
  170SAPE   H4X19266   2.143   6.879   7.020 -0.4363 -0.8901  0.3992
  170SAPE   H4Y19267   2.008   6.767   7.012  1.1577 -0.4737 -0.3799
  170SAPE   C3519268   1.976   6.948   7.131  0.3420  0.8535 -0.3461
  170SAPE   H5X19269   1.866   6.939   7.136  0.2995  1.8368  1.0977
  170SAPE   H5Y19270   1.986   7.058   7.122  0.1757  1.0183  1.2718
  170SAPE   C3619271   2.041   6.895   7.259 -0.5499  0.1440 -0.2316
  170SAPE   H6X19272   2.144   6.933   7.276  0.5151 -2.8798  0.7432
  170SAPE   H6Y19273   2.051   6.785   7.251  1.2526  0.4121 -2.4969
  170SAPE   C3719274   1.975   6.957   7.381 -0.2660  0.8947  0.5055
  170SAPE   H7X19275   1.892   6.884   7.380  0.8211 -0.3992 -0.7773
  170SAPE   H7Y19276   1.934   7.059   7.367 -0.8867  0.5271 -0.3877
  170SAPE   C3819277   2.050   6.947   7.516  0.4513 -0.4637 -0.0370
  170SAPE   H8X19278   2.113   7.038   7.529 -1.1547  1.1677 -2.7421
  170SAPE   H8Y19279   2.118   6.859   7.509  0.6175 -0.3409  0.0223
  170SAPE   C3919280   1.963   6.930   7.642  0.9807 -0.5497  0.0497
  170SAPE   H9X19281   1.902   6.839   7.623  0.7410 -0.3578 -0.1044
  170SAPE   H9Y19282   1.899   7.021   7.639 -0.4562 -1.4829  1.0345
  170SAPE  C31019283   2.034   6.937   7.777  0.2476  0.2110 -0.0545
  170SAPE  H10X19284   2.078   7.038   7.791 -1.5393  0.7743  2.0302
  170SAPE  H10Y19285   2.115   6.862   7.782 -0.7245 -0.7956  1.0010
  170SAPE  C31119286   1.931   6.911   7.885  0.3336  0.3540  0.7466
  170SAPE  H11X19287   1.907   6.804   7.903  0.3486  0.7590  3.7801
  170SAPE  H11Y19288   1.839   6.967   7.858  0.8842  0.8561 -0.0957
  170SAPE  C31219289   1.983   6.967   8.020  0.3456  0.2055  0.3317
  170SAPE  H12X19290   1.905   6.940   8.095 -1.1897  1.3417 -0.7679
  170SAPE  H12Y19291   1.994   7.078   8.019  1.8355  0.0801  0.8337
  170SAPE  C31319292   2.108   6.898   8.077  0.4921 -1.0005 -0.6079
  170SAPE  H13X19293   2.120   6.930   8.183  1.3461 -1.2066 -0.6404
  170SAPE  H13Y19294   2.195   6.929   8.016  0.7986  3.7398  1.7580
  170SAPE  C31419295   2.101   6.748   8.094 -0.1500 -0.1486  0.9247
  170SAPE  H14X19296   2.089   6.704   7.993 -3.0418  0.5217  0.8943
  170SAPE  H14Y19297   2.005   6.728   8.146 -0.5955 -0.7227 -0.0877
  170SAPE  C31519298   2.220   6.686   8.173 -0.0674 -0.1568 -0.3455
  170SAPE  H15X19299   2.314   6.714   8.121  0.9683  1.7809  2.3512
  170SAPE  H15Y19300   2.203   6.576   8.171  3.2568 -0.8233 -3.9111
  170SAPE  C31619301   2.244   6.732   8.321  0.3946 -0.8939  0.2319
  170SAPE  H16X19302   2.151   6.707   8.376  1.9802 -5.3739  1.3594
  170SAPE  H16Y19303   2.258   6.842   8.325 -0.9605 -0.6951 -0.1045
  170SAPE  C31719304   2.365   6.661   8.381  0.5786  0.3884  0.0378
  170SAPE  H17X19305   2.453   6.669   8.314  0.4031 -0.8765 -0.3713
  170SAPE  H17Y19306   2.345   6.552   8.373 -1.7225  0.8397 -0.9707
  170SAPE  C31819307   2.388   6.696   8.530  0.2700  0.3097 -0.3277
  170SAPE  H18X19308   2.420   6.802   8.532 -1.9752  1.0530  2.2955
  170SAPE  H18Y19309   2.465   6.622   8.560  2.3986  1.5036 -2.5356
  170SAPE  H18Z19310   2.287   6.687   8.575 -0.3085  0.3934 -1.5525
  171SAPE     N19311   3.228   1.984   6.182  0.0054 -0.2800  0.0783
  171SAPE   HN119312   3.190   1.940   6.096 -1.2257  0.4382  0.2232
  171SAPE   HN219313   3.284   1.905   6.219 -0.9316 -1.1858 -0.3750
  171SAPE   HN319314   3.146   2.001   6.244 -0.1840 -0.2076 -0.1851
  171SAPE   C1219315   3.325   2.097   6.155  0.6877  0.6311  0.1381
  171SAPE  H12A19316   3.275   2.166   6.083  2.0175  0.4609 -1.0012
  171SAPE  H12B19317   3.423   2.058   6.120  0.5628 -0.8005  1.2944
  171SAPE   C1119318   3.366   2.160   6.291 -0.0848 -0.5827 -0.6790
  171SAPE  H11A19319   3.427   2.250   6.268 -1.3118  0.6990  0.8195
  171SAPE  H11B19320   3.436   2.100   6.352 -0.3565 -0.1356  0.0934
  171SAPE     P19321   3.182   2.343   6.357 -0.0725  0.0743 -0.4947
  171SAPE   O1319322   3.266   2.433   6.277 -0.3477 -0.4716  0.1682
  171SAPE   O1419323   3.035   2.329   6.329  0.0329  0.6341 -0.1407
  171SAPE   O1219324   3.247   2.197   6.366  0.2847  0.2150  0.4129
  171SAPE   O1119325   3.196   2.387   6.509  0.0257 -0.4001  0.1540
  171SAPE    C119326   3.283   2.304   6.583 -0.5333 -0.0485 -0.5114
  171SAPE    HA19327   3.251   2.198   6.591  4.4460 -1.7119  2.1939
  171SAPE    HB19328   3.378   2.302   6.526 -1.7968 -0.8050 -2.7019
  171SAPE    C219329   3.309   2.349   6.725 -0.9965  0.5286 -0.2988
  171SAPE    HS19330   3.362   2.269   6.781 -1.5037 -2.3284 -3.5655
  171SAPE   O2119331   3.190   2.383   6.795  0.1347 -0.1538  0.4806
  171SAPE   C2119332   3.108   2.280   6.833  0.4381 -0.0653 -0.7417
  171SAPE   O2219333   3.137   2.163   6.831 -0.2028  0.2025 -0.3585
  171SAPE   C2219334   2.977   2.315   6.887  0.4702  0.2589  1.0014
  171SAPE   H2R19335   2.925   2.378   6.812 -0.3443 -0.6662  0.7628
  171SAPE   H2S19336   2.919   2.220   6.889  0.1848  0.4338  1.0802
  171SAPE    C319337   3.405   2.472   6.722  0.1651 -0.0716 -0.4322
  171SAPE    HX19338   3.359   2.568   6.690 -0.5532  0.0138  0.7649
  171SAPE    HY19339   3.489   2.459   6.651  1.8523 -0.0373  1.4418
  171SAPE   O3119340   3.456   2.478   6.861  0.0098 -0.3436 -0.1781
  171SAPE   C3119341   3.383   2.550   6.944  0.3463  0.3503  0.5264
  171SAPE   O3219342   3.280   2.610   6.919  0.0721 -0.0772 -0.0314
  171SAPE   C3219343   3.445   2.527   7.083 -0.0066 -0.1014  0.4574
  171SAPE   H2X19344   3.538   2.584   7.106 -1.5231  1.5540  2.9683
  171SAPE   H2Y19345   3.464   2.417   7.085 -1.5420 -0.4470 -1.2952
  171SAPE   C2319346   2.983   2.395   7.019 -0.6554  0.0100 -0.1770
  171SAPE   H3R19347   2.885   2.446   7.026 -1.0741 -0.8081  0.1690
  171SAPE   H3S19348   3.052   2.480   7.003 -0.9071 -0.0434 -1.6222
  171SAPE   C2419349   3.009   2.306   7.148  0.0474 -0.2561  0.4172
  171SAPE   H4R19350   2.935   2.224   7.153  1.7285 -1.8265  0.5084
  171SAPE   H4S19351   2.986   2.373   7.234  1.1853  1.7048 -0.7214
  171SAPE   C2519352   3.140   2.231   7.166 -0.2607 -1.7066 -0.7949
  171SAPE   H5R19353   3.212   2.221   7.083  2.0778  0.9425  0.7479
  171SAPE   C2619354   3.183   2.180   7.280  0.2456 -0.5884 -0.3460
  171SAPE   H6R19355   3.287   2.143   7.281 -0.4899 -3.1803 -3.3033
  171SAPE   C2719356   3.111   2.166   7.412  0.3656 -0.1811  0.4836
  171SAPE   H7R19357   3.092   2.057   7.419 -4.2273  0.5195  1.8257
  171SAPE   H7S19358   3.012   2.216   7.408  0.9271  0.9935  0.7832
  171SAPE   C2819359   3.177   2.238   7.524  0.3151  0.8015 -0.7325
  171SAPE   H8R19360   3.269   2.295   7.501  0.1841  1.1534 -0.3992
  171SAPE   C2919361   3.117   2.249   7.647  0.8782  0.4410 -0.5417
  171SAPE   H9R19362   3.173   2.295   7.730 -0.0226 -1.0527  0.9635
  171SAPE  C21019363   2.978   2.190   7.673 -0.3684 -0.0957  0.1266
  171SAPE  H10R19364   2.960   2.091   7.626  1.8591  0.4808 -2.1847
  171SAPE  H10S19365   2.898   2.256   7.634 -1.4723 -0.8499  1.0306
  171SAPE  C21119366   2.961   2.176   7.825  0.2907 -0.3114 -0.5450
  171SAPE  H11R19367   2.982   2.074   7.860 -0.6818  0.0671  1.2995
  171SAPE  C21219368   2.919   2.267   7.919 -0.4785 -0.4889 -0.6529
  171SAPE  H12R19369   2.914   2.219   8.019  0.3230 -2.6317 -1.5799
  171SAPE  C21319370   2.896   2.411   7.899 -0.2245 -0.4692 -0.0553
  171SAPE  H13R19371   2.960   2.453   7.818 -2.3800  0.7975 -1.1929
  171SAPE  H13S19372   2.940   2.475   7.978 -2.0736  3.2754 -1.7732
  171SAPE  C21419373   2.758   2.459   7.872 -0.4321 -0.3792  0.6382
  171SAPE  H14R19374   2.731   2.442   7.767  1.1470  3.7921 -0.6206
  171SAPE  C21519375   2.669   2.524   7.954  0.2248 -0.5988  0.5950
  171SAPE  H15R19376   2.571   2.555   7.915  1.8526  1.1076 -2.6101
  171SAPE  C21619377   2.682   2.579   8.094  0.3889 -0.0896 -0.4842
  171SAPE  H16R19378   2.579   2.596   8.134  0.0719 -2.0212 -0.4203
  171SAPE  H16S19379   2.743   2.672   8.088  1.6429 -0.9934 -3.7434
  171SAPE  C21719380   2.754   2.478   8.188 -0.4648 -1.4222 -0.5410
  171SAPE  H17R19381   2.720   2.513   8.287 -0.4977  1.8617 -1.6053
  171SAPE  H17S19382   2.865   2.477   8.183 -0.3651  0.5917  0.5036
  171SAPE  C21819383   2.693   2.332   8.191  0.2977  0.1903 -0.0594
  171SAPE  H18R19384   2.723   2.270   8.105 -3.1660  0.3341 -1.5274
  171SAPE  H18S19385   2.583   2.349   8.196  0.4471  1.6042 -1.1051
  171SAPE  C21919386   2.732   2.254   8.318  0.6332 -0.0005 -0.2280
  171SAPE  H19R19387   2.722   2.315   8.411  0.1146  0.9885 -0.9053
  171SAPE  H19S19388   2.837   2.218   8.315  1.0734  1.2377 -0.5495
  171SAPE  C22019389   2.631   2.136   8.338  0.5214 -0.2025 -0.2515
  171SAPE  H20R19390   2.532   2.187   8.327  0.1022 -1.0015 -0.2410
  171SAPE  H20S19391   2.644   2.090   8.438  0.4550  1.1477  0.3944
  171SAPE  H20T19392   2.649   2.064   8.256  2.4884 -1.1310  0.9224
  171SAPE   C3319393   3.339   2.560   7.186 -0.0962  1.0488 -0.1960
  171SAPE   H3X19394   3.253   2.493   7.164 -0.0172  1.0366 -0.4742
  171SAPE   H3Y19395   3.302   2.665   7.178 -1.2081  0.8848  2.1075
  171SAPE   C3419396   3.380   2.533   7.326  0.5621  0.4577 -0.0482
  171SAPE   H4X19397   3.467   2.602   7.336  1.0633 -0.0046 -1.0361
  171SAPE   H4Y19398   3.389   2.425   7.349  2.5621  0.1713 -1.8563
  171SAPE   C3519399   3.277   2.589   7.429  0.1127 -0.2640  0.2544
  171SAPE   H5X19400   3.175   2.545   7.427  0.2007 -0.5227  1.1935
  171SAPE   H5Y19401   3.255   2.696   7.407  0.4308  0.3188  2.5106
  171SAPE   C3619402   3.327   2.575   7.571  0.0054 -0.1542  0.3037
  171SAPE   H6X19403   3.426   2.623   7.588  0.1948  0.8267 -2.9339
  171SAPE   H6Y19404   3.329   2.466   7.596 -1.6437 -0.2200  0.2532
  171SAPE   C3719405   3.228   2.643   7.670  0.0320  0.2807 -0.2808
  171SAPE   H7X19406   3.132   2.588   7.680  1.2671 -1.6633  1.6328
  171SAPE   H7Y19407   3.194   2.740   7.626 -0.2148  0.5291  0.4268
  171SAPE   C3819408   3.278   2.652   7.816 -0.7906 -0.0836 -0.8269
  171SAPE   H8X19409   3.309   2.758   7.823 -1.3045  0.1751 -2.1743
  171SAPE   H8Y19410   3.367   2.590   7.842 -1.5565 -0.4239  1.2286
  171SAPE   C3919411   3.166   2.617   7.922  0.2468  0.7551  0.2496
  171SAPE   H9X19412   3.165   2.507   7.912  1.3385  0.4511  2.7860
  171SAPE   H9Y19413   3.070   2.668   7.896  1.3066  1.3978 -2.9115
  171SAPE  C31019414   3.191   2.652   8.067 -0.4993  0.5725 -0.2648
  171SAPE  H10X19415   3.277   2.592   8.105  0.7332  2.4413  0.0051
  171SAPE  H10Y19416   3.104   2.623   8.129 -0.3597 -1.3935 -0.9208
  171SAPE  C31119417   3.213   2.793   8.114  0.3554  0.2266  0.1171
  171SAPE  H11X19418   3.291   2.831   8.044 -0.1771 -0.6613 -0.9995
  171SAPE  H11Y19419   3.233   2.804   8.222  0.6757 -0.5367  0.1384
  171SAPE  C31219420   3.089   2.884   8.097 -0.4551  0.4227 -0.2398
  171SAPE  H12X19421   3.006   2.849   8.163 -0.6186 -0.9199 -1.0997
  171SAPE  H12Y19422   3.041   2.877   7.997 -0.5244 -0.1219 -0.1720
  171SAPE  C31319423   3.116   3.035   8.105 -0.4260  0.7494 -0.6087
  171SAPE  H13X19424   3.138   3.088   8.010  0.9434  3.4093  1.0900
  171SAPE  H13Y19425   3.204   3.050   8.171 -0.4496 -2.2211  0.2578
  171SAPE  C31419426   2.986   3.104   8.156  0.4799 -0.0847  0.8693
  171SAPE  H14X19427   2.962   3.060   8.255  3.4760 -2.9888  0.4966
  171SAPE  H14Y19428   2.908   3.087   8.079  1.0470 -0.7100  0.4278
  171SAPE  C31519429   3.007   3.257   8.178  0.2719  0.5071 -0.3064
  171SAPE  H15X19430   3.036   3.288   8.076  0.1450  2.1201  0.1143
  171SAPE  H15Y19431   3.089   3.271   8.252 -1.0443 -0.9209  1.5414
  171SAPE  C31619432   2.881   3.330   8.214 -0.4115  0.1776 -0.2023
  171SAPE  H16X19433   2.803   3.303   8.140 -1.8600  0.9304  1.0185
  171SAPE  H16Y19434   2.899   3.440   8.206 -0.1926  0.2157  0.7070
  171SAPE  C31719435   2.825   3.294   8.349 -0.3400  0.1367 -0.1075
  171SAPE  H17X19436   2.896   3.338   8.422 -0.0975 -0.8774  0.2842
  171SAPE  H17Y19437   2.825   3.184   8.362 -0.6463  0.2444  0.8934
  171SAPE  C31819438   2.687   3.354   8.380  0.2480 -0.6515  0.0077
  171SAPE  H18X19439   2.615   3.281   8.422 -0.3829  0.5648  1.1358
  171SAPE  H18Y19440   2.640   3.402   8.292 -0.9124  1.1736  1.5460
  171SAPE  H18Z19441   2.706   3.439   8.449  0.0329 -2.5477  2.5569
  172SAPE     N19442   3.090   1.579   6.179  0.7257 -0.2434 -0.3940
  172SAPE   HN119443   3.046   1.668   6.150  0.0082 -0.8793 -1.3096
  172SAPE   HN219444   3.074   1.559   6.280  1.5092 -0.8154 -0.3702
  172SAPE   HN319445   3.191   1.595   6.157  0.7668 -1.9380 -1.7052
  172SAPE   C1219446   3.034   1.459   6.108 -0.2760 -0.2058 -0.3768
  172SAPE  H12A19447   3.104   1.373   6.112  0.6276  0.5692  1.7657
  172SAPE  H12B19448   3.003   1.490   6.006 -2.7579  0.1742  0.4183
  172SAPE   C1119449   2.920   1.404   6.188 -0.8157 -0.0191 -0.5362
  172SAPE  H11A19450   2.849   1.355   6.118 -1.0704  1.0896 -1.0634
  172SAPE  H11B19451   2.863   1.489   6.232 -2.2853 -1.6057  0.7896
  172SAPE     P19452   2.876   1.204   6.357  0.0053  0.2555 -0.3362
  172SAPE   O1319453   2.741   1.196   6.296 -0.1681  0.1106 -0.5159
  172SAPE   O1419454   2.950   1.076   6.361 -0.2518  0.3302  0.5526
  172SAPE   O1219455   2.963   1.319   6.295 -0.1034  0.2472 -0.2664
  172SAPE   O1119456   2.865   1.243   6.506  0.0940  0.0085 -0.2360
  172SAPE    C119457   2.989   1.272   6.578  0.6513 -0.2420  0.4262
  172SAPE    HA19458   3.066   1.192   6.565  0.6457 -0.2679  0.5546
  172SAPE    HB19459   3.033   1.367   6.542 -0.1786 -0.3802 -1.0347
  172SAPE    C219460   2.960   1.288   6.724 -0.2326 -0.3060 -0.2045
  172SAPE    HS19461   3.053   1.307   6.782 -0.6543 -1.4963  0.9413
  172SAPE   O2119462   2.917   1.162   6.759 -0.1068 -0.0728  0.1359
  172SAPE   C2119463   2.953   1.112   6.877 -0.2366  0.2293 -0.1065
  172SAPE   O2219464   3.021   1.167   6.963  0.1438 -0.4633 -0.2892
  172SAPE   C2219465   2.873   0.981   6.903 -0.3698 -0.1334 -0.3625
  172SAPE   H2R19466   2.766   1.011   6.909 -0.4935 -0.8469  1.8513
  172SAPE   H2S19467   2.886   0.929   6.806  1.5645  3.1001 -2.0267
  172SAPE    C319468   2.851   1.400   6.758 -0.4745  0.1976  0.5674
  172SAPE    HX19469   2.760   1.378   6.698 -1.3352 -0.9182  2.2014
  172SAPE    HY19470   2.903   1.488   6.714 -0.5792 -0.0018  0.0360
  172SAPE   O3119471   2.824   1.405   6.906 -0.1510 -0.6472  0.3024
  172SAPE   C3119472   2.717   1.340   6.946  1.1022  0.2871 -0.5364
  172SAPE   O3219473   2.642   1.277   6.878 -0.2780  0.3352  1.0396
  172SAPE   C3219474   2.708   1.361   7.097 -0.1127  0.5900 -0.5247
  172SAPE   H2X19475   2.719   1.469   7.119  2.0209  0.7011 -1.8470
  172SAPE   H2Y19476   2.789   1.304   7.148  0.6895 -2.5079 -4.6414
  172SAPE   C2319477   2.908   0.907   7.029 -0.3660  0.6488 -0.0780
  172SAPE   H3R19478   3.018   0.887   7.032  0.1879  3.3271  0.2049
  172SAPE   H3S19479   2.851   0.813   7.021 -0.3329  0.4259  1.8367
  172SAPE   C2419480   2.865   0.983   7.156  0.2240  0.1827  0.2594
  172SAPE   H4R19481   2.755   0.981   7.138  0.6071  1.2840 -2.8996
  172SAPE   H4S19482   2.890   1.091   7.165  1.1332  0.0374 -0.3786
  172SAPE   C2519483   2.902   0.906   7.283 -0.3729 -0.6568  0.2524
  172SAPE   H5R19484   2.897   0.797   7.277  3.0547 -1.0932  2.5345
  172SAPE   C2619485   2.951   0.953   7.399 -0.5482 -0.1474  0.2971
  172SAPE   H6R19486   2.966   0.880   7.480  0.8811 -1.0018 -0.6947
  172SAPE   C2719487   2.979   1.100   7.428 -1.0285 -0.9470  0.0729
  172SAPE   H7R19488   3.039   1.144   7.346 -0.1771  0.0373  1.1691
  172SAPE   H7S19489   3.045   1.108   7.517 -2.0879 -0.3037  0.8278
  172SAPE   C2819490   2.863   1.209   7.444 -0.9248 -0.1126 -0.2132
  172SAPE   H8R19491   2.838   1.267   7.354  0.5786  1.0709  0.0991
  172SAPE   C2919492   2.812   1.245   7.559  0.4821 -0.0128 -0.1504
  172SAPE   H9R19493   2.738   1.326   7.559  0.8767  0.3510  0.0087
  172SAPE  C21019494   2.841   1.186   7.695 -0.9023 -0.0563 -0.2469
  172SAPE  H10R19495   2.911   1.252   7.750 -1.7208  2.2967 -1.8304
  172SAPE  H10S19496   2.906   1.096   7.686 -0.8820 -0.6319  3.8283
  172SAPE  C21119497   2.716   1.158   7.763  0.1345 -0.4248 -0.5985
  172SAPE  H11R19498   2.667   1.060   7.750  0.5363 -0.4618 -1.8651
  172SAPE  C21219499   2.662   1.256   7.845 -0.2730  0.5653  0.1071
  172SAPE  H12R19500   2.563   1.241   7.892 -1.3575  1.9616 -1.5999
  172SAPE  C21319501   2.715   1.395   7.852 -0.1178 -0.3289  0.1648
  172SAPE  H13R19502   2.725   1.425   7.746 -1.4243  0.9558  0.3711
  172SAPE  H13S19503   2.813   1.397   7.904  0.3924  0.8854 -0.7776
  172SAPE  C21419504   2.619   1.482   7.932 -0.0235 -0.7129 -0.6196
  172SAPE  H14R19505   2.510   1.480   7.926 -0.3175  0.4868  2.3541
  172SAPE  C21519506   2.653   1.559   8.033  0.0950 -0.4989 -0.0333
  172SAPE  H15R19507   2.578   1.606   8.099 -1.3789 -0.4841 -1.6370
  172SAPE  C21619508   2.790   1.574   8.085 -0.1058  0.3541 -0.2299
  172SAPE  H16R19509   2.855   1.584   7.995 -2.1676 -0.1539 -1.8410
  172SAPE  H16S19510   2.820   1.486   8.145 -0.8672 -0.0154 -0.3797
  172SAPE  C21719511   2.804   1.699   8.180 -0.3696  0.4279  0.8842
  172SAPE  H17R19512   2.745   1.787   8.147  1.9676  1.0973 -1.9453
  172SAPE  H17S19513   2.910   1.726   8.165 -0.0570 -1.1637 -0.0759
  172SAPE  C21819514   2.767   1.651   8.320 -0.0982 -0.1936  0.3257
  172SAPE  H18R19515   2.824   1.563   8.357 -0.6597 -0.8875 -0.4355
  172SAPE  H18S19516   2.660   1.623   8.324 -0.4810  1.2102  0.1910
  172SAPE  C21919517   2.794   1.762   8.420  0.1156 -0.3839  0.5498
  172SAPE  H19R19518   2.734   1.849   8.387 -0.3072 -1.5605 -2.0659
  172SAPE  H19S19519   2.899   1.799   8.414 -0.6356  1.7158 -0.9848
  172SAPE  C22019520   2.751   1.732   8.562  0.1279  0.1852  0.3545
  172SAPE  H20R19521   2.771   1.822   8.624 -0.7319  1.0433 -0.5765
  172SAPE  H20S19522   2.789   1.636   8.604 -0.1711  0.3045  0.9097
  172SAPE  H20T19523   2.640   1.734   8.560  0.1452  0.6831 -0.2760
  172SAPE   C3319524   2.572   1.301   7.148  0.2709 -0.4748  0.2658
  172SAPE   H3X19525   2.555   1.192   7.132 -1.0007 -0.6165  2.2088
  172SAPE   H3Y19526   2.487   1.354   7.100  0.8877  2.8750  2.5656
  172SAPE   C3419527   2.556   1.321   7.298  0.0393 -0.0388  0.6373
  172SAPE   H4X19528   2.595   1.425   7.311 -1.1667  0.3935  0.9303
  172SAPE   H4Y19529   2.629   1.252   7.347 -0.3711  0.8018  2.5498
  172SAPE   C3519530   2.408   1.327   7.353 -0.5186  0.3603  0.3112
  172SAPE   H5X19531   2.368   1.232   7.312  0.9963 -1.0421  1.9179
  172SAPE   H5Y19532   2.352   1.417   7.319 -0.4423  1.3999  2.7977
  172SAPE   C3619533   2.400   1.329   7.503  0.0929  0.1297  0.5287
  172SAPE   H6X19534   2.427   1.430   7.539 -0.3053  0.7142 -0.7777
  172SAPE   H6Y19535   2.474   1.258   7.546  1.7705  0.3283 -1.8308
  172SAPE   C3719536   2.255   1.308   7.544  0.4625 -0.2295  0.2046
  172SAPE   H7X19537   2.216   1.239   7.466  0.2001  0.0939  0.0497
  172SAPE   H7Y19538   2.206   1.407   7.539 -0.4764 -0.7108 -0.5796
  172SAPE   C3819539   2.246   1.245   7.683  0.1197  0.2912  0.5313
  172SAPE   H8X19540   2.278   1.327   7.752 -0.1168 -0.0193  1.0139
  172SAPE   H8Y19541   2.316   1.159   7.692 -1.3012 -0.6869  4.0886
  172SAPE   C3919542   2.105   1.194   7.710 -0.4947 -0.5752 -0.4094
  172SAPE   H9X19543   2.079   1.120   7.632  0.6237  0.8040 -2.1611
  172SAPE   H9Y19544   2.042   1.285   7.697 -0.4404 -0.8188 -2.8277
  172SAPE  C31019545   2.096   1.136   7.857  0.8387 -0.2781  0.2081
  172SAPE  H10X19546   2.116   1.227   7.917 -0.6997  0.4337 -0.2894
  172SAPE  H10Y19547   2.174   1.057   7.862  0.0386 -1.3209 -2.1352
  172SAPE  C31119548   1.957   1.083   7.882 -0.2404 -0.5080  0.0961
  172SAPE  H11X19549   1.934   1.001   7.811 -0.4847 -0.6201  0.3005
  172SAPE  H11Y19550   1.885   1.162   7.852  0.1764 -0.2513 -0.2274
  172SAPE  C31219551   1.942   1.034   8.029  0.1351 -0.0458  0.7373
  172SAPE  H12X19552   1.972   1.127   8.082 -0.0816  1.0518 -0.9911
  172SAPE  H12Y19553   2.027   0.965   8.053  2.8181  2.0516 -1.9808
  172SAPE  C31319554   1.799   0.978   8.053  0.4786 -0.0096  0.5382
  172SAPE  H13X19555   1.785   0.885   7.994 -2.2702  0.1978  0.7171
  172SAPE  H13Y19556   1.728   1.051   8.008  0.5652  0.0435  0.4875
  172SAPE  C31419557   1.766   0.949   8.199 -0.2334  0.4044 -0.1839
  172SAPE  H14X19558   1.793   1.046   8.245  0.7989 -0.1257  0.3382
  172SAPE  H14Y19559   1.830   0.870   8.243  0.3045  1.2050  0.4989
  172SAPE  C31519560   1.614   0.913   8.229  0.2400 -0.8781  0.2097
  172SAPE  H15X19561   1.583   0.819   8.178 -1.0252  0.3508 -1.3756
  172SAPE  H15Y19562   1.548   0.995   8.195  1.6056  0.1279 -0.0493
  172SAPE  C31619563   1.587   0.899   8.383  0.5575 -0.5074  0.9326
  172SAPE  H16X19564   1.481   0.868   8.390  1.0642 -2.2690  1.5757
  172SAPE  H16Y19565   1.588   0.998   8.433  1.7183 -0.9495  1.8596
  172SAPE  C31719566   1.679   0.808   8.467 -0.2866  0.2237 -0.4902
  172SAPE  H17X19567   1.653   0.832   8.572  1.5177 -1.2432  0.3362
  172SAPE  H17Y19568   1.783   0.845   8.456  0.4432 -1.2255  1.1073
  172SAPE  C31819569   1.673   0.658   8.437  0.5270  0.0128  0.3911
  172SAPE  H18X19570   1.718   0.637   8.338 -1.6928 -1.9030 -0.2955
  172SAPE  H18Y19571   1.567   0.623   8.439 -0.1058  1.8267  0.9552
  172SAPE  H18Z19572   1.729   0.602   8.515  0.4561 -3.1210 -1.6140
  173SOPE     N19573   3.908   4.674  10.970 -0.2721 -0.0423  0.4534
  173SOPE   HN119574   3.933   4.775  10.961  2.2784 -0.8266 -3.5552
  173SOPE   HN219575   4.000   4.629  10.953  0.7513  0.8510  3.1060
  173SOPE   HN319576   3.853   4.652  10.885  1.6495  1.7858 -1.3874
  173SOPE   C1219577   3.839   4.628  11.093  0.3708  0.1237 -0.2370
  173SOPE  H12A19578   3.758   4.705  11.098  1.1252  0.9701 -0.7691
  173SOPE  H12B19579   3.908   4.638  11.179 -1.2858 -1.6931  1.3952
  173SOPE   C1119580   3.788   4.487  11.071 -1.0325 -0.4428  0.1668
  173SOPE  H11A19581   3.735   4.452  11.162 -0.2641 -0.9667  0.4130
  173SOPE  H11B19582   3.880   4.426  11.057 -1.0932  0.1325 -3.7891
  173SOPE     P19583   3.561   4.502  10.927  0.2915  0.0010 -0.0922
  173SOPE   O1319584   3.559   4.620  10.830 -0.7447 -0.5172 -0.0343
  173SOPE   O1419585   3.506   4.521  11.058  0.2170  0.0867  0.1336
  173SOPE   O1219586   3.714   4.467  10.950 -0.2187 -0.1187  0.1175
  173SOPE   O1119587   3.493   4.375  10.849 -0.2796 -0.1834 -0.1542
  173SOPE    C119588   3.551   4.243  10.852  0.3271  0.0576 -0.0112
  173SOPE    HA19589   3.466   4.179  10.820  0.2193  0.3316 -0.2851
  173SOPE    HB19590   3.583   4.209  10.952  0.2662  0.4660  0.1471
  173SOPE    C219591   3.654   4.225  10.737 -0.3903 -0.0022 -0.3478
  173SOPE    HS19592   3.740   4.293  10.755 -0.9853  0.4928  0.7445
  173SOPE   O2119593   3.580   4.242  10.616 -0.4901 -0.1511 -0.2360
  173SOPE   C2119594   3.639   4.324  10.533  0.9736 -0.7756  0.6327
  173SOPE   O2219595   3.750   4.372  10.547  0.6592  0.0947 -0.0969
  173SOPE   C2219596   3.557   4.330  10.396 -0.3366  0.1516 -0.1093
  173SOPE   H2R19597   3.519   4.433  10.387 -0.9054 -0.0625 -0.1776
  173SOPE   H2S19598   3.472   4.260  10.412  0.3085 -0.5995  0.1278
  173SOPE    C319599   3.709   4.078  10.730 -0.4235 -0.2674 -0.5433
  173SOPE    HX19600   3.632   3.998  10.724 -1.5473  0.5902  1.5122
  173SOPE    HY19601   3.757   4.063  10.829 -1.5838 -1.7290 -0.1625
  173SOPE   O3119602   3.800   4.069  10.617  0.0800  0.6458  0.0706
  173SOPE   C3119603   3.930   4.088  10.637 -0.3044 -0.0103 -0.7681
  173SOPE   O3219604   3.986   4.077  10.742 -0.2436  0.0293 -0.2687
  173SOPE   C3219605   4.003   4.136  10.505  0.2727  0.1757 -0.3243
  173SOPE   H2X19606   4.113   4.135  10.522  0.3698 -0.4418 -0.9359
  173SOPE   H2Y19607   3.974   4.241  10.485  0.1732  0.1418 -0.3589
  173SOPE   C2319608   3.656   4.288  10.283  0.0149 -0.7076  0.0629
  173SOPE   H3R19609   3.685   4.181  10.287  0.1596 -0.6694  4.3464
  173SOPE   H3S19610   3.746   4.353  10.288 -1.5295  1.8007 -2.0560
  173SOPE   C2419611   3.600   4.336  10.141 -0.2896  0.0099  0.5347
  173SOPE   H4R19612   3.504   4.282  10.123 -0.3675  0.2493  0.2132
  173SOPE   H4S19613   3.570   4.443  10.140  2.2161  0.7755  0.3946
  173SOPE   C2519614   3.699   4.304  10.022 -0.5281 -0.4073 -0.2559
  173SOPE   H5R19615   3.791   4.357  10.053 -0.4886 -1.4829  1.5839
  173SOPE   H5S19616   3.726   4.197  10.018  0.8488 -0.2659  2.7699
  173SOPE   C2619617   3.657   4.348   9.884  0.5785  0.0282 -0.7248
  173SOPE   H6R19618   3.555   4.313   9.858  0.1010  2.0714 -1.8313
  173SOPE   H6S19619   3.652   4.459   9.881 -3.1998 -0.0315 -0.4555
  173SOPE   C2719620   3.756   4.295   9.780  0.5708 -0.0430 -0.9226
  173SOPE   H7R19621   3.860   4.322   9.809  0.2500  1.2412 -0.8960
  173SOPE   H7S19622   3.749   4.184   9.782  0.7226 -0.0515  1.4703
  173SOPE   C2819623   3.723   4.352   9.638  0.5469  0.0926 -0.1202
  173SOPE   H8R19624   3.615   4.336   9.615  0.4035  0.6223  0.1733
  173SOPE   H8S19625   3.740   4.462   9.645 -0.5938  0.3296 -0.6740
  173SOPE   C2919626   3.826   4.299   9.542 -0.6046  0.2296 -0.5392
  173SOPE   H9119627   3.921   4.267   9.587 -0.4166 -1.7032 -2.1954
  173SOPE  C21019628   3.809   4.282   9.412  0.2361  0.1264 -0.6218
  173SOPE  H10119629   3.887   4.248   9.343  0.0598 -1.1411 -0.2240
  173SOPE  C21119630   3.682   4.306   9.336  0.0599  1.1051  0.4618
  173SOPE  H11R19631   3.702   4.343   9.234 -1.3334  1.1961  0.2077
  173SOPE  H11S19632   3.607   4.376   9.377 -1.5181  0.2466 -0.8338
  173SOPE  C21219633   3.600   4.170   9.339 -0.9495 -0.6443 -0.1425
  173SOPE  H12R19634   3.496   4.188   9.302 -0.5306 -0.0806 -1.0786
  173SOPE  H12S19635   3.602   4.142   9.446  1.1369  1.4149  0.4306
  173SOPE  C21319636   3.654   4.062   9.249 -0.3794  0.1787  0.3367
  173SOPE  H13R19637   3.593   3.972   9.271 -2.5794  1.6684  0.6225
  173SOPE  H13S19638   3.758   4.035   9.278 -0.0591  0.5242 -0.4607
  173SOPE  C21419639   3.663   4.086   9.091  0.2493 -0.3476  0.2560
  173SOPE  H14R19640   3.728   4.172   9.064 -0.5394  0.0404 -0.4539
  173SOPE  H14S19641   3.559   4.110   9.059  0.5436 -0.2048 -0.5945
  173SOPE  C21519642   3.713   3.963   9.022 -0.5452 -0.2340 -0.0312
  173SOPE  H15R19643   3.659   3.874   9.061 -1.1482 -0.3305 -1.0417
  173SOPE  H15S19644   3.821   3.952   9.045 -0.0352  1.5693 -1.3417
  173SOPE  C21619645   3.696   3.964   8.863 -1.5000 -0.1286 -0.0167
  173SOPE  H16R19646   3.745   4.050   8.812  0.8678  0.0108  2.2552
  173SOPE  H16S19647   3.588   3.981   8.844 -1.9023 -0.5401  1.7053
  173SOPE  C21719648   3.756   3.836   8.796  0.5173 -0.0294  0.6029
  173SOPE  H17R19649   3.712   3.755   8.858  2.1608 -0.8720  0.6981
  173SOPE  H17S19650   3.865   3.852   8.811  0.3045  0.8410  1.2889
  173SOPE  C21819651   3.711   3.819   8.652  0.0277  0.2707 -0.3440
  173SOPE  H18R19652   3.718   3.915   8.596  0.5224  1.1135  1.0956
  173SOPE  H18S19653   3.603   3.797   8.648 -0.3386  1.9770 -0.6089
  173SOPE  H18T19654   3.767   3.739   8.599  0.7376  0.0241  0.7330
  173SOPE   C3319655   3.967   4.049  10.382  0.5135 -0.3990 -0.1011
  173SOPE   H3X19656   3.857   4.051  10.369  0.4910  0.1666  0.1370
  173SOPE   H3Y19657   3.995   3.946  10.413  0.4207 -0.4845 -0.2995
  173SOPE   C3419658   4.049   4.075  10.254 -0.2235 -0.3443  0.6904
  173SOPE   H4X19659   4.015   3.991  10.190 -0.2792 -0.1867  0.5103
  173SOPE   H4Y19660   4.157   4.078  10.281  0.6607  0.0219 -2.4593
  173SOPE   C3519661   4.014   4.209  10.194 -0.4727 -0.0255 -0.0013
  173SOPE   H5X19662   4.053   4.296  10.251 -1.1617  0.1564  0.2076
  173SOPE   H5Y19663   3.903   4.219  10.186 -0.7603 -1.5603  1.4584
  173SOPE   C3619664   4.063   4.221  10.044 -0.4280 -0.1286 -0.1968
  173SOPE   H6X19665   3.992   4.161   9.983 -0.5120  1.4400 -1.7476
  173SOPE   H6Y19666   4.159   4.167  10.033 -0.5351  0.1429 -4.3934
  173SOPE   C3719667   4.079   4.366   9.996  0.6981  0.6471  0.0719
  173SOPE   H7X19668   4.146   4.422  10.064  0.7402  0.5830  0.0822
  173SOPE   H7Y19669   3.982   4.421  10.000  0.9407  1.0341  3.9711
  173SOPE   C3819670   4.134   4.372   9.852 -0.0902 -0.2218 -0.0973
  173SOPE   H8X19671   4.097   4.290   9.787  1.7596 -1.5572  0.4631
  173SOPE   H8Y19672   4.238   4.339   9.868 -0.9145 -1.8979  2.4236
  173SOPE   C3919673   4.095   4.506   9.789 -0.2950  0.1648 -0.2404
  173SOPE   H9X19674   4.136   4.585   9.855  0.4641  0.4915 -1.0816
  173SOPE   H9Y19675   3.987   4.517   9.765  0.0106 -0.1167 -1.8735
  173SOPE  C31019676   4.164   4.509   9.646  0.3359 -0.1336 -0.0474
  173SOPE  H10X19677   4.142   4.409   9.604  0.0772  0.0517 -0.3606
  173SOPE  H10Y19678   4.275   4.511   9.652  0.2856 -0.9212  2.2615
  173SOPE  C31119679   4.100   4.613   9.560  0.1399 -0.1197  1.3219
  173SOPE  H11X19680   4.123   4.717   9.591  0.8135 -0.4976  2.1428
  173SOPE  H11Y19681   3.990   4.602   9.564  0.1394  0.2895  2.8985
  173SOPE  C31219682   4.150   4.616   9.413 -0.3779  0.0049  0.0748
  173SOPE  H12X19683   4.256   4.584   9.410 -0.8718 -2.1983  2.6442
  173SOPE  H12Y19684   4.144   4.720   9.372 -3.0733 -0.6939 -1.5788
  173SOPE  C31319685   4.062   4.537   9.317 -0.0019 -0.8324 -0.6554
  173SOPE  H13X19686   3.958   4.576   9.328 -0.0785 -0.6117 -1.9837
  173SOPE  H13Y19687   4.067   4.432   9.354 -0.9211 -2.0049 -3.5363
  173SOPE  C31419688   4.109   4.543   9.172 -0.0769  0.2724  0.4364
  173SOPE  H14X19689   4.039   4.488   9.104 -1.2255 -1.8440  3.1241
  173SOPE  H14Y19690   4.202   4.481   9.165 -1.3856 -1.7520 -0.0191
  173SOPE  C31519691   4.145   4.688   9.117  0.1040 -0.7906  0.1649
  173SOPE  H15X19692   4.225   4.734   9.178  0.1889 -0.0024 -0.5236
  173SOPE  H15Y19693   4.062   4.761   9.130 -0.4335 -0.5812 -3.4116
  173SOPE  C31619694   4.191   4.698   8.966 -0.3932  0.0490  0.1622
  173SOPE  H16X19695   4.272   4.622   8.959 -1.1456 -0.6421 -1.5742
  173SOPE  H16Y19696   4.246   4.793   8.950 -0.2835  0.0681  0.6298
  173SOPE  C31719697   4.078   4.675   8.861  0.1555 -0.5321  0.2800
  173SOPE  H17X19698   4.049   4.569   8.874  0.6034 -0.5993  0.7832
  173SOPE  H17Y19699   4.128   4.698   8.765  1.1158 -0.5124  0.7717
  173SOPE  C31819700   3.949   4.763   8.872 -0.8254 -0.1084 -0.4570
  173SOPE  H18X19701   3.981   4.868   8.851  1.5150 -1.1287 -2.4614
  173SOPE  H18Y19702   3.911   4.754   8.977  1.4402 -1.8496  0.2817
  173SOPE  H18Z19703   3.869   4.734   8.801 -1.0916  1.2252 -0.7299
  174SOPE     N19704   2.608   5.519  11.041 -0.0807  0.2596 -0.5465
  174SOPE   HN119705   2.611   5.521  11.145  0.1781  0.4706 -0.5579
  174SOPE   HN219706   2.653   5.433  11.002  0.1355 -0.5894  1.4852
  174SOPE   HN319707   2.656   5.607  11.012 -2.0756  1.6622  0.1952
  174SOPE   C1219708   2.463   5.511  11.005 -0.0549 -0.2870  0.1075
  174SOPE  H12A19709   2.434   5.614  11.037  2.9080 -0.1879  3.1154
  174SOPE  H12B19710   2.417   5.429  11.064  1.6566 -1.1718  0.2837
  174SOPE   C1119711   2.448   5.492  10.851 -0.0705 -0.4435  0.3475
  174SOPE  H11A19712   2.532   5.546  10.802 -1.0372  0.2481 -0.6117
  174SOPE  H11B19713   2.361   5.540  10.800  0.1925  0.2966  0.5727
  174SOPE     P19714   2.580   5.271  10.789 -0.3992  0.0467 -0.0819
  174SOPE   O1319715   2.534   5.132  10.764 -0.4096 -0.1202 -0.2177
  174SOPE   O1419716   2.675   5.301  10.900  0.1021 -0.6962 -0.1193
  174SOPE   O1219717   2.452   5.357  10.815  0.0735  0.0818 -0.5307
  174SOPE   O1119718   2.631   5.344  10.655 -0.9501  0.0298 -0.9321
  174SOPE    C119719   2.553   5.362  10.542 -0.5896  0.0482  0.1714
  174SOPE    HA19720   2.571   5.467  10.511 -1.3789  0.1733  0.1088
  174SOPE    HB19721   2.446   5.334  10.559 -0.6968  0.8637  0.8867
  174SOPE    C219722   2.595   5.281  10.421 -0.4704 -0.5391  0.3186
  174SOPE    HS19723   2.528   5.302  10.336  0.0011 -0.7976 -0.1262
  174SOPE   O2119724   2.601   5.144  10.452  0.1338  0.2809 -0.1499
  174SOPE   C2119725   2.490   5.077  10.455 -0.4284 -0.3369 -0.6237
  174SOPE   O2219726   2.377   5.115  10.428  0.0879  0.3318  0.2357
  174SOPE   C2219727   2.526   4.933  10.485 -0.2956  0.0468 -0.0607
  174SOPE   H2R19728   2.437   4.881  10.527 -0.9525  2.0030  1.1103
  174SOPE   H2S19729   2.607   4.937  10.561  0.4567 -0.8520 -0.7984
  174SOPE    C319730   2.740   5.327  10.388 -0.3045 -0.0830  0.2025
  174SOPE    HX19731   2.793   5.283  10.475 -1.2823  0.7054  1.2195
  174SOPE    HY19732   2.739   5.438  10.384 -4.0781 -0.0026 -1.0134
  174SOPE   O3119733   2.792   5.273  10.266  0.2216  0.3473 -0.0329
  174SOPE   C3119734   2.875   5.173  10.269  0.0104 -0.3599 -0.9370
  174SOPE   O3219735   2.917   5.121  10.370 -0.5285  0.0989  0.9478
  174SOPE   C3219736   2.915   5.132  10.126 -0.1986 -0.4119  0.6876
  174SOPE   H2X19737   2.884   5.028  10.106  0.3903 -0.4944  0.1623
  174SOPE   H2Y19738   3.026   5.133  10.119 -0.1459  1.4615  1.3060
  174SOPE   C2319739   2.585   4.858  10.357 -0.2139 -0.3293  0.2354
  174SOPE   H3R19740   2.673   4.907  10.311  0.4699 -1.6762  0.0792
  174SOPE   H3S19741   2.515   4.847  10.272  1.0669  0.9507 -1.0396
  174SOPE   C2419742   2.634   4.718  10.391  0.8286  0.6003  0.4383
  174SOPE   H4R19743   2.706   4.735  10.474  0.2356  1.3585  0.8185
  174SOPE   H4S19744   2.551   4.656  10.431  0.1067  0.4458 -1.2311
  174SOPE   C2519745   2.701   4.645  10.278 -0.0324  0.0314  0.0280
  174SOPE   H5R19746   2.625   4.614  10.204  0.2299 -0.8643  0.1194
  174SOPE   H5S19747   2.772   4.707  10.219 -0.3053  0.0576 -0.2732
  174SOPE   C2619748   2.771   4.520  10.338  0.6717 -0.3003  0.1043
  174SOPE   H6R19749   2.835   4.544  10.425  0.3102 -2.8328  1.1498
  174SOPE   H6S19750   2.695   4.456  10.389 -0.1073  1.4844  1.2937
  174SOPE   C2719751   2.854   4.438  10.242 -0.0492 -0.3431 -0.3447
  174SOPE   H7R19752   2.957   4.481  10.232 -0.4111  0.0685 -3.4489
  174SOPE   H7S19753   2.868   4.336  10.283  1.2865 -0.8283 -1.8797
  174SOPE   C2819754   2.794   4.438  10.103  0.2081 -0.4355  0.1772
  174SOPE   H8R19755   2.692   4.398  10.082  0.7984 -2.2321  0.5792
  174SOPE   H8S19756   2.790   4.545  10.074 -0.5169 -0.3106  0.7045
  174SOPE   C2919757   2.880   4.352  10.010 -0.1409  0.2146  0.3711
  174SOPE   H9119758   2.920   4.260  10.055 -1.0828  0.8630  2.6507
  174SOPE  C21019759   2.912   4.375   9.882 -0.1435 -0.3210 -0.0449
  174SOPE  H10119760   2.974   4.305   9.823 -0.1233  0.5881 -1.1234
  174SOPE  C21119761   2.861   4.499   9.806  0.2567  0.7243 -0.3855
  174SOPE  H11R19762   2.941   4.576   9.799  1.5352 -0.4756  0.4119
  174SOPE  H11S19763   2.776   4.550   9.857 -0.8535 -0.5971 -0.8669
  174SOPE  C21219764   2.817   4.465   9.657  1.4357  0.1424 -0.4366
  174SOPE  H12R19765   2.730   4.395   9.658  1.2346  0.3701 -1.3053
  174SOPE  H12S19766   2.905   4.406   9.621  1.7655 -0.1895  0.8404
  174SOPE  C21319767   2.783   4.595   9.576 -0.7250 -0.3230 -0.5357
  174SOPE  H13R19768   2.868   4.667   9.577  0.0401 -1.1371 -2.0278
  174SOPE  H13S19769   2.695   4.639   9.628  0.7199  1.3964  0.5907
  174SOPE  C21419770   2.751   4.570   9.421 -0.4130  0.0173 -0.1542
  174SOPE  H14R19771   2.848   4.548   9.371  0.2256  0.2151  0.9492
  174SOPE  H14S19772   2.724   4.666   9.372  4.5573  0.5203 -2.5548
  174SOPE  C21519773   2.650   4.455   9.385 -0.1809 -0.8482  0.1967
  174SOPE  H15R19774   2.550   4.476   9.430  0.7406 -1.4455  2.6803
  174SOPE  H15S19775   2.690   4.363   9.432  2.2471  0.4060  0.7653
  174SOPE  C21619776   2.631   4.437   9.235 -0.2164  0.6715  0.3833
  174SOPE  H16R19777   2.569   4.346   9.218  1.8666 -0.4413 -1.9024
  174SOPE  H16S19778   2.726   4.419   9.181 -1.8003 -1.0406 -2.0909
  174SOPE  C21719779   2.550   4.550   9.169  0.1304  0.4794 -0.6221
  174SOPE  H17R19780   2.617   4.638   9.175  0.2067  0.3293  3.2915
  174SOPE  H17S19781   2.453   4.562   9.223  0.6869 -2.9741  1.4501
  174SOPE  C21819782   2.526   4.516   9.024  0.6522 -0.6466  0.0290
  174SOPE  H18R19783   2.619   4.472   8.981  0.0486  0.6091 -2.7905
  174SOPE  H18S19784   2.525   4.607   8.961 -1.4240  0.5990  1.7224
  174SOPE  H18T19785   2.449   4.440   9.000 -0.0052 -0.1223  0.4533
  174SOPE   C3319786   2.870   5.220  10.009  0.6423 -0.2451 -0.3581
  174SOPE   H3X19787   2.926   5.316  10.006  0.6566 -0.2577 -0.5276
  174SOPE   H3Y19788   2.763   5.246  10.026  0.7500  2.0162 -2.5421
  174SOPE   C3419789   2.887   5.148   9.869  0.2344  0.0933  0.2678
  174SOPE   H4X19790   2.982   5.090   9.879  1.6199  2.3423  0.9876
  174SOPE   H4Y19791   2.907   5.227   9.793 -0.8110 -0.7861 -0.9485
  174SOPE   C3519792   2.759   5.079   9.844  0.1641  0.8955  0.1534
  174SOPE   H5X19793   2.672   5.147   9.833 -0.4279  0.3518  1.3073
  174SOPE   H5Y19794   2.728   5.010   9.925 -2.7109  1.6387 -0.2140
  174SOPE   C3619795   2.771   4.994   9.710  0.4307  0.1216 -0.4020
  174SOPE   H6X19796   2.686   4.924   9.718 -0.7206  1.4267 -0.7203
  174SOPE   H6Y19797   2.872   4.947   9.706  1.1196  1.1939  2.0989
  174SOPE   C3719798   2.757   5.071   9.585  0.4826 -0.3132  0.5138
  174SOPE   H7X19799   2.817   5.164   9.592 -0.5100  0.3141  0.8474
  174SOPE   H7Y19800   2.649   5.098   9.585  1.1580  3.0733 -2.1552
  174SOPE   C3819801   2.779   4.984   9.456 -0.0835 -0.9197  0.3266
  174SOPE   H8X19802   2.715   4.894   9.462  0.2593 -1.0884  2.2500
  174SOPE   H8Y19803   2.886   4.954   9.455  0.0870 -0.3185  0.2223
  174SOPE   C3919804   2.753   5.063   9.323  0.0160  0.5636  0.7233
  174SOPE   H9X19805   2.810   5.159   9.326  0.7185  0.1402  1.2010
  174SOPE   H9Y19806   2.644   5.081   9.332 -0.2152 -0.1787 -0.4964
  174SOPE  C31019807   2.766   4.984   9.191 -0.7449  0.0638 -0.2324
  174SOPE  H10X19808   2.707   4.892   9.211 -1.7322  0.7488  0.0764
  174SOPE  H10Y19809   2.871   4.951   9.177 -0.9051 -1.0351  0.9865
  174SOPE  C31119810   2.735   5.058   9.055 -0.0446 -0.6601 -0.3541
  174SOPE  H11X19811   2.658   5.137   9.075  1.0224 -0.0838  1.7749
  174SOPE  H11Y19812   2.688   4.986   8.984 -2.8545  1.1681 -0.5370
  174SOPE  C31219813   2.858   5.135   9.003  0.1933  0.4818 -0.8016
  174SOPE  H12X19814   2.942   5.062   9.006 -1.4996 -1.5367 -0.6713
  174SOPE  H12Y19815   2.872   5.229   9.060 -0.7122  2.3464 -3.4598
  174SOPE  C31319816   2.829   5.159   8.859 -0.4948  0.3601 -0.0275
  174SOPE  H13X19817   2.730   5.208   8.844 -2.2028 -3.0721 -0.8755
  174SOPE  H13Y19818   2.816   5.060   8.811 -1.6642  0.8063 -0.6875
  174SOPE  C31419819   2.941   5.243   8.792 -0.2005  0.5066  0.3669
  174SOPE  H14X19820   3.033   5.181   8.801  1.6016  2.8773 -0.6379
  174SOPE  H14Y19821   2.950   5.331   8.858  1.2868  0.9319 -0.3547
  174SOPE  C31519822   2.917   5.281   8.650  0.4309  0.1183 -0.0043
  174SOPE  H15X19823   2.822   5.334   8.631 -1.0832 -2.8669 -1.3942
  174SOPE  H15Y19824   2.907   5.185   8.596  1.2953 -2.1032  3.4579
  174SOPE  C31619825   3.024   5.378   8.607 -0.7044  0.1847  1.0878
  174SOPE  H16X19826   3.122   5.326   8.612 -1.4718 -1.2822  1.6468
  174SOPE  H16Y19827   3.018   5.469   8.671 -0.2892  0.7097  0.3816
  174SOPE  C31719828   3.001   5.415   8.461 -0.0912 -0.3252 -0.2902
  174SOPE  H17X19829   2.896   5.433   8.428 -0.1648  0.0514  0.1417
  174SOPE  H17Y19830   3.037   5.327   8.404 -1.0337 -0.7808 -0.1890
  174SOPE  C31819831   3.086   5.534   8.413  0.0281 -0.2911 -0.3327
  174SOPE  H18X19832   3.189   5.517   8.451 -0.1808  0.5636  0.6510
  174SOPE  H18Y19833   3.051   5.637   8.435 -0.1509 -0.2249 -0.8999
  174SOPE  H18Z19834   3.079   5.523   8.302 -0.1706 -0.3904 -0.3102
  175SOPE     N19835   4.042   6.594  10.761  0.3549 -0.2566  0.1795
  175SOPE   HN119836   3.967   6.546  10.816  1.6132 -1.0505  1.2592
  175SOPE   HN219837   4.125   6.532  10.751  1.2845  1.1133 -1.0172
  175SOPE   HN319838   4.074   6.683  10.804 -0.4271  0.7595 -1.2590
  175SOPE   C1219839   3.993   6.615  10.620 -0.0497 -0.0303 -0.0849
  175SOPE  H12A19840   3.893   6.662  10.632  0.7954  1.1412  5.1559
  175SOPE  H12B19841   3.999   6.526  10.554 -0.3776  1.7319 -2.6153
  175SOPE   C1119842   4.080   6.718  10.545  0.5041  0.6848 -0.2576
  175SOPE  H11A19843   4.092   6.807  10.611  2.8873  1.9832 -2.2742
  175SOPE  H11B19844   4.045   6.743  10.443 -0.2665 -0.0380 -0.1806
  175SOPE     P19845   4.318   6.738  10.436  0.5202 -0.2697 -0.0531
  175SOPE   O1319846   4.455   6.684  10.461 -0.2108  0.0950  0.2577
  175SOPE   O1419847   4.303   6.879  10.459 -0.1476 -0.1852  0.4495
  175SOPE   O1219848   4.212   6.660  10.534  0.1271 -0.4363 -0.6037
  175SOPE   O1119849   4.267   6.694  10.297 -0.0455  0.0815  0.3726
  175SOPE    C119850   4.269   6.559  10.249 -0.4692 -0.6662 -0.0616
  175SOPE    HA19851   4.175   6.539  10.194  0.5457 -2.3378 -1.2915
  175SOPE    HB19852   4.285   6.481  10.327 -3.0716 -0.0649  1.1818
  175SOPE    C219853   4.389   6.531  10.155  0.2030 -0.2412  0.0247
  175SOPE    HS19854   4.488   6.546  10.205  1.3676 -0.2509 -2.1564
  175SOPE   O2119855   4.385   6.611  10.041  0.0924  0.1748 -0.1170
  175SOPE   C2119856   4.432   6.732  10.048 -0.0227 -0.0610  0.3414
  175SOPE   O2219857   4.487   6.789  10.143  0.0418 -0.0487  0.9864
  175SOPE   C2219858   4.406   6.802   9.914 -0.6149 -0.3172 -0.7202
  175SOPE   H2R19859   4.505   6.844   9.888  0.7638 -2.6985  0.3240
  175SOPE   H2S19860   4.337   6.887   9.930  0.1931  0.2343 -0.1377
  175SOPE    C319861   4.384   6.386  10.111  0.0678 -0.1854 -0.7032
  175SOPE    HX19862   4.413   6.317  10.193  2.7921  1.7409  0.0947
  175SOPE    HY19863   4.460   6.369  10.032 -1.4483  1.6979 -2.7128
  175SOPE   O3119864   4.258   6.361  10.043  0.0338 -0.1240  0.5545
  175SOPE   C3119865   4.264   6.233   9.993 -0.1984 -0.4852  0.4003
  175SOPE   O3219866   4.363   6.162  10.002  0.1430 -0.8854  0.1802
  175SOPE   C3219867   4.141   6.193   9.914  0.5705  0.5312 -0.6674
  175SOPE   H2X19868   4.070   6.279   9.912 -1.7680 -1.3079 -0.4668
  175SOPE   H2Y19869   4.099   6.104   9.965 -3.9349  2.2073 -0.9351
  175SOPE   C2319870   4.360   6.717   9.791  0.3146 -0.6471 -0.0528
  175SOPE   H3R19871   4.280   6.646   9.819 -0.4999  0.1182 -0.3780
  175SOPE   H3S19872   4.434   6.640   9.762  1.1717 -0.3658  1.3178
  175SOPE   C2419873   4.297   6.799   9.683  0.0571 -0.6442  1.1214
  175SOPE   H4R19874   4.222   6.872   9.719  0.0206  0.0686 -0.3230
  175SOPE   H4S19875   4.385   6.850   9.638 -0.2389 -0.3570  0.8655
  175SOPE   C2519876   4.220   6.711   9.581  0.0115  0.2138 -0.7090
  175SOPE   H5R19877   4.273   6.614   9.573  3.0437  1.7760 -0.9406
  175SOPE   H5S19878   4.133   6.694   9.649  0.7359  0.1800  0.2308
  175SOPE   C2619879   4.180   6.786   9.456  0.2436 -0.7226 -0.7930
  175SOPE   H6R19880   4.101   6.742   9.391  0.4706 -1.8917 -0.3045
  175SOPE   H6S19881   4.141   6.886   9.487  2.2279 -0.3046  0.5356
  175SOPE   C2719882   4.302   6.816   9.371 -0.1305  0.0864 -0.2885
  175SOPE   H7R19883   4.343   6.908   9.418 -0.2143 -0.3465  0.6648
  175SOPE   H7S19884   4.374   6.731   9.373 -0.2040  0.0022  2.0306
  175SOPE   C2819885   4.254   6.840   9.226 -0.7646 -0.1841  0.4328
  175SOPE   H8R19886   4.212   6.744   9.189 -2.0164  0.5960 -0.2641
  175SOPE   H8S19887   4.167   6.910   9.231  1.7600  3.2904 -0.1990
  175SOPE   C2919888   4.364   6.897   9.145  0.4029 -0.4566  0.8189
  175SOPE   H9119889   4.465   6.894   9.189  0.1841  2.6090  1.7949
  175SOPE  C21019890   4.347   6.983   9.045 -0.0698  0.2682 -0.0678
  175SOPE  H10119891   4.437   7.011   8.989 -0.3383 -0.0996 -0.7061
  175SOPE  C21119892   4.217   7.035   8.989 -0.2193 -0.0993  0.0273
  175SOPE  H11R19893   4.224   7.145   8.971 -4.6097  0.2281 -0.7916
  175SOPE  H11S19894   4.135   7.032   9.063 -0.0734 -2.4155  0.1604
  175SOPE  C21219895   4.162   6.975   8.869  0.7881  0.5054  0.3893
  175SOPE  H12R19896   4.146   6.868   8.896  1.6413  0.9754  3.0919
  175SOPE  H12S19897   4.237   6.975   8.788 -0.1091  0.0422 -0.4592
  175SOPE  C21319898   4.023   7.035   8.826 -0.4803  0.2432  0.6597
  175SOPE  H13R19899   4.042   7.135   8.782 -0.9877 -0.5026 -1.3713
  175SOPE  H13S19900   3.959   7.056   8.914  0.1265  0.9397  0.9442
  175SOPE  C21419901   3.951   6.959   8.714 -1.3810 -0.7076 -0.0476
  175SOPE  H14R19902   3.847   6.999   8.707 -1.7886 -1.8775 -0.9024
  175SOPE  H14S19903   3.941   6.852   8.742  0.0708 -0.6826  0.7003
  175SOPE  C21519904   4.024   6.966   8.574  0.0798  0.1443  0.0499
  175SOPE  H15R19905   4.132   6.941   8.575 -0.2194 -1.2434 -0.4387
  175SOPE  H15S19906   4.022   7.075   8.553 -3.8504  0.7939  2.6665
  175SOPE  C21619907   3.953   6.887   8.458 -0.0262  0.2714  0.2080
  175SOPE  H16R19908   3.854   6.929   8.430 -0.2645 -0.0692  0.5309
  175SOPE  H16S19909   3.948   6.787   8.506  0.0988  0.5534  0.8113
  175SOPE  C21719910   4.038   6.878   8.330  0.3852  0.5499  0.1092
  175SOPE  H17R19911   4.144   6.867   8.359  0.4329 -2.0431 -0.8102
  175SOPE  H17S19912   4.038   6.977   8.279  2.0760  0.5406  0.0356
  175SOPE  C21819913   4.004   6.769   8.237 -0.0873 -0.3497 -0.1910
  175SOPE  H18R19914   4.024   6.668   8.280  1.6827 -0.3583 -0.9466
  175SOPE  H18S19915   4.059   6.774   8.141 -2.6720  2.6354 -1.6828
  175SOPE  H18T19916   3.896   6.773   8.209  0.1563 -1.1981 -1.3283
  175SOPE   C3319917   4.173   6.149   9.769 -0.7949  0.1283  0.8386
  175SOPE   H3X19918   4.088   6.086   9.735  0.3788 -0.9387 -0.1864
  175SOPE   H3Y19919   4.268   6.092   9.765 -0.5007  0.6317  0.4739
  175SOPE   C3419920   4.175   6.261   9.676  0.1649 -0.4930 -0.1287
  175SOPE   H4X19921   4.237   6.345   9.713  1.2022 -0.5445 -1.6359
  175SOPE   H4Y19922   4.075   6.305   9.655 -0.1526  0.0739  2.3329
  175SOPE   C3519923   4.229   6.223   9.536 -0.0008 -0.5958 -0.2872
  175SOPE   H5X19924   4.196   6.120   9.513  1.2385 -0.8448 -1.0420
  175SOPE   H5Y19925   4.338   6.224   9.554 -0.3068  0.2296  1.8107
  175SOPE   C3619926   4.207   6.329   9.423 -0.1501  0.1439  0.5344
  175SOPE   H6X19927   4.276   6.411   9.453  0.4399  0.1724 -0.8106
  175SOPE   H6Y19928   4.104   6.370   9.420 -0.3219 -0.2916  0.4582
  175SOPE   C3719929   4.253   6.284   9.283  0.3511 -0.2920  0.1752
  175SOPE   H7X19930   4.199   6.198   9.238  0.1480 -0.3544  0.5353
  175SOPE   H7Y19931   4.358   6.248   9.280  0.2424 -0.9214  2.2548
  175SOPE   C3819932   4.231   6.406   9.193  0.1667 -0.5027 -0.2066
  175SOPE   H8X19933   4.275   6.495   9.244 -1.1207 -1.0312  1.9661
  175SOPE   H8Y19934   4.121   6.419   9.194  0.1735 -0.2862  1.8314
  175SOPE   C3919935   4.272   6.411   9.049 -0.1772  0.1530  0.1876
  175SOPE   H9X19936   4.185   6.377   8.988  2.1504 -1.1881 -2.6015
  175SOPE   H9Y19937   4.357   6.340   9.041 -1.1138 -1.0161  0.2116
  175SOPE  C31019938   4.316   6.549   9.001 -0.1455 -0.1998 -0.0432
  175SOPE  H10X19939   4.386   6.587   9.080  1.3917 -0.4685 -1.2252
  175SOPE  H10Y19940   4.227   6.614   8.987 -1.3198 -1.9539 -1.0850
  175SOPE  C31119941   4.389   6.544   8.866  0.2601  0.0221 -0.2815
  175SOPE  H11X19942   4.328   6.473   8.805 -0.2225 -1.6127  1.9436
  175SOPE  H11Y19943   4.486   6.496   8.889 -0.9626 -2.0071  1.0199
  175SOPE  C31219944   4.407   6.683   8.817  0.0113  0.1821  0.0561
  175SOPE  H12X19945   4.492   6.730   8.872  1.0403 -0.2415 -1.1412
  175SOPE  H12Y19946   4.317   6.747   8.829 -0.3591  0.0119 -1.5949
  175SOPE  C31319947   4.451   6.687   8.670  0.6534 -1.3067 -1.0315
  175SOPE  H13X19948   4.516   6.598   8.654 -0.6685 -2.6410  0.5664
  175SOPE  H13Y19949   4.503   6.779   8.637 -0.5533  0.5635  1.8431
  175SOPE  C31419950   4.335   6.661   8.571  0.0229 -0.0762 -0.2753
  175SOPE  H14X19951   4.263   6.740   8.602  1.2697  0.6459  0.8858
  175SOPE  H14Y19952   4.283   6.567   8.599  0.5766 -0.4097 -0.3604
  175SOPE  C31519953   4.376   6.673   8.422 -0.4651 -0.0462  0.8019
  175SOPE  H15X19954   4.448   6.756   8.408  0.6786 -1.2622 -0.8099
  175SOPE  H15Y19955   4.288   6.689   8.356  0.1168 -0.7715 -0.1782
  175SOPE  C31619956   4.442   6.539   8.372  0.3012  0.2324  0.2590
  175SOPE  H16X19957   4.386   6.450   8.407 -0.8671  0.0888 -1.8323
  175SOPE  H16Y19958   4.542   6.531   8.421  1.1877  0.2083 -1.5008
  175SOPE  C31719959   4.423   6.514   8.227  0.0161  0.6289  0.2284
  175SOPE  H17X19960   4.492   6.435   8.190 -0.5872 -0.1056  0.6469
  175SOPE  H17Y19961   4.436   6.603   8.162  3.1862 -1.5628 -2.5477
  175SOPE  C31819962   4.286   6.455   8.183  0.3621  0.3253  0.0508
  175SOPE  H18X19963   4.211   6.537   8.189  1.5531  1.3891  0.9865
  175SOPE  H18Y19964   4.261   6.376   8.257  1.5475  0.8820  1.0812
  175SOPE  H18Z19965   4.293   6.409   8.082 -1.7938 -1.2362  0.5198
  176SOPE     N19966   4.706   5.440  11.245 -0.6038 -0.0896 -0.1004
  176SOPE   HN119967   4.650   5.514  11.294 -0.2951  1.1716 -1.5949
  176SOPE   HN219968   4.771   5.403  11.317 -0.5704 -0.4520 -0.3173
  176SOPE   HN319969   4.761   5.497  11.178 -0.9750 -0.0644 -0.3888
  176SOPE   C1219970   4.648   5.332  11.156  0.3395 -0.6780  0.5417
  176SOPE  H12A19971   4.569   5.377  11.091  0.6791 -1.4295 -0.4298
  176SOPE  H12B19972   4.590   5.263  11.221 -2.1542  0.6311 -0.1597
  176SOPE   C1119973   4.760   5.273  11.060 -0.3651 -0.2668 -0.2414
  176SOPE  H11A19974   4.714   5.201  10.989  0.6232 -1.5924  0.4126
  176SOPE  H11B19975   4.824   5.204  11.119  0.4529 -0.0682 -0.8799
  176SOPE     P19976   4.849   5.397  10.848  0.4376  0.6275  0.0216
  176SOPE   O1319977   4.864   5.268  10.787 -0.4318  0.5341 -0.3416
  176SOPE   O1419978   4.943   5.499  10.818  0.0197 -0.5720 -0.0974
  176SOPE   O1219979   4.836   5.377  10.999  0.0220  0.3078  0.0501
  176SOPE   O1119980   4.697   5.446  10.814  0.1648  0.1768 -0.1310
  176SOPE    C119981   4.600   5.355  10.751 -0.1802  0.0984 -0.3724
  176SOPE    HA19982   4.495   5.391  10.750 -0.1585  0.1660 -0.1868
  176SOPE    HB19983   4.588   5.257  10.803 -1.8990  0.8006  0.6343
  176SOPE    C219984   4.617   5.338  10.597  0.5040  0.1449 -0.4410
  176SOPE    HS19985   4.723   5.308  10.582 -0.1566 -1.3886 -2.7497
  176SOPE   O2119986   4.581   5.470  10.539  0.1942 -0.1817  0.0930
  176SOPE   C2119987   4.670   5.517  10.460 -0.8168  0.1524  0.2481
  176SOPE   O2219988   4.771   5.455  10.416  0.4496 -0.0021  0.4379
  176SOPE   C2219989   4.645   5.663  10.439 -0.9208  0.5647  0.2256
  176SOPE   H2R19990   4.685   5.722  10.525  1.5793  0.4450 -0.7765
  176SOPE   H2S19991   4.541   5.694  10.412 -0.2267  0.8151 -2.4488
  176SOPE    C319992   4.527   5.223  10.538 -0.4815  0.4297  0.3725
  176SOPE    HX19993   4.421   5.253  10.550 -0.5874  0.0206  0.4770
  176SOPE    HY19994   4.557   5.135  10.599  1.3590 -0.4687 -1.6534
  176SOPE   O3119995   4.568   5.209  10.403  0.3152  0.2658  0.3112
  176SOPE   C3119996   4.487   5.258  10.310  0.4753 -0.6195  0.4194
  176SOPE   O3219997   4.367   5.283  10.333 -0.4044  0.1036 -0.2010
  176SOPE   C3219998   4.566   5.279  10.181 -0.1182 -0.3888  0.1457
  176SOPE   H2X19999   4.646   5.203  10.163 -1.3217 -1.0370 -3.0204
  176SOPE   H2Y20000   4.619   5.375  10.199  0.6352 -0.8077  0.2412
  176SOPE   C2320001   4.740   5.721  10.330 -0.4655  0.7879  0.5822
  176SOPE   H3R20002   4.845   5.688  10.343 -0.4668  0.7519  0.5006
  176SOPE   H3S20003   4.745   5.832  10.343  2.6201  1.0804 -1.9025
  176SOPE   C2420004   4.683   5.711  10.185  0.5347 -0.0052  0.7784
  176SOPE   H4R20005   4.698   5.605  10.156 -0.9645  0.1210 -0.6812
  176SOPE   H4S20006   4.572   5.719  10.188  0.2418 -3.1596  2.8994
  176SOPE   C2520007   4.756   5.799  10.076  0.3147  0.5128  0.3229
  176SOPE   H5R20008   4.735   5.907  10.092  1.9501  1.0971 -1.1970
  176SOPE   H5S20009   4.865   5.778  10.081  0.0568 -1.7076 -1.7754
  176SOPE   C2620010   4.704   5.780   9.937 -0.5984  0.0329  0.3157
  176SOPE   H6R20011   4.779   5.816   9.863  0.0093 -0.4296  0.6952
  176SOPE   H6S20012   4.705   5.672   9.911  2.1813  0.1531 -0.4023
  176SOPE   C2720013   4.577   5.858   9.893 -0.1284 -1.0157  0.5370
  176SOPE   H7R20014   4.492   5.787   9.903 -1.5878  0.4323 -0.8705
  176SOPE   H7S20015   4.551   5.935   9.969  2.9711 -0.4660  1.1984
  176SOPE   C2820016   4.572   5.914   9.748  0.3122 -0.6495 -0.4478
  176SOPE   H8R20017   4.467   5.942   9.726  1.3202  1.1561 -3.6959
  176SOPE   H8S20018   4.630   6.009   9.759 -0.1707 -0.6063  2.3038
  176SOPE   C2920019   4.612   5.831   9.633 -0.7990  0.1950 -0.8087
  176SOPE   H9120020   4.676   5.747   9.664 -0.2140  1.9093  3.0946
  176SOPE  C21020021   4.586   5.856   9.499  0.1584 -0.0689 -1.0687
  176SOPE  H10120022   4.617   5.788   9.419  3.8669  0.3334 -0.1739
  176SOPE  C21120023   4.512   5.978   9.452  0.0403 -0.2944  0.0912
  176SOPE  H11R20024   4.479   6.048   9.532 -3.2191 -0.6978 -0.7577
  176SOPE  H11S20025   4.414   5.945   9.409  0.3463  1.6847 -2.4064
  176SOPE  C21220026   4.589   6.034   9.329  0.5363 -0.7703  0.6182
  176SOPE  H12R20027   4.699   6.042   9.344  1.0294 -1.1645 -2.1522
  176SOPE  H12S20028   4.552   6.133   9.296  0.3992 -0.9666  0.1602
  176SOPE  C21320029   4.576   5.946   9.200  0.4748 -1.0186  0.5277
  176SOPE  H13R20030   4.468   5.933   9.178  1.2436 -4.0144 -2.2231
  176SOPE  H13S20031   4.622   5.849   9.226 -0.4493 -1.0374  2.2299
  176SOPE  C21420032   4.663   5.996   9.087  0.0899 -0.2756  0.1486
  176SOPE  H14R20033   4.688   5.916   9.015  2.0361  1.2337 -0.9364
  176SOPE  H14S20034   4.760   6.029   9.129 -0.7855  1.8396  0.6639
  176SOPE  C21520035   4.617   6.121   9.016  0.3278 -0.3167  0.2655
  176SOPE  H15R20036   4.700   6.187   8.982 -0.5826 -0.2942 -2.0522
  176SOPE  H15S20037   4.558   6.191   9.080 -0.9048 -0.3782 -0.7686
  176SOPE  C21620038   4.527   6.104   8.892 -0.1667  0.0145 -1.1332
  176SOPE  H16R20039   4.426   6.080   8.931  0.7094  0.0773  1.3687
  176SOPE  H16S20040   4.555   6.010   8.840  0.0481  1.2288 -3.3302
  176SOPE  C21720041   4.515   6.221   8.798 -0.2421  0.0393 -1.1037
  176SOPE  H17R20042   4.548   6.317   8.843  0.9130  0.3196 -2.4828
  176SOPE  H17S20043   4.405   6.232   8.784 -0.7423 -0.2125  1.9083
  176SOPE  C21820044   4.592   6.211   8.667  0.4168 -0.6897  0.4201
  176SOPE  H18R20045   4.555   6.272   8.582  1.0751 -2.1531 -0.9667
  176SOPE  H18S20046   4.578   6.107   8.632 -1.3415 -0.2701 -0.2211
  176SOPE  H18T20047   4.701   6.227   8.669  0.4117  0.4958 -2.8150
  176SOPE   C3320048   4.479   5.292  10.059  0.2617 -0.0059  0.9259
  176SOPE   H3X20049   4.387   5.352  10.074  0.5921  0.9153 -0.5141
  176SOPE   H3Y20050   4.431   5.193  10.043  0.3048 -0.1645  1.7264
  176SOPE   C3420051   4.553   5.339   9.932 -0.2845 -0.0524 -0.3979
  176SOPE   H4X20052   4.656   5.298   9.930  0.7028  2.2069  0.1376
  176SOPE   H4Y20053   4.566   5.449   9.943  0.2620 -0.1680  0.1707
  176SOPE   C3520054   4.489   5.320   9.799 -0.5818 -0.3050  0.7335
  176SOPE   H5X20055   4.391   5.370   9.810  0.6132  2.1071  1.1133
  176SOPE   H5Y20056   4.484   5.209   9.795  0.5165 -0.5986  4.2970
  176SOPE   C3620057   4.570   5.382   9.682  0.2188 -0.9997 -0.1848
  176SOPE   H6X20058   4.662   5.323   9.662  0.9678  0.1220 -0.0749
  176SOPE   H6Y20059   4.584   5.488   9.713  0.4700 -0.6520 -1.4654
  176SOPE   C3720060   4.495   5.378   9.551  0.2543 -0.2670  0.2795
  176SOPE   H7X20061   4.394   5.413   9.582 -0.9019 -2.1538 -1.1114
  176SOPE   H7Y20062   4.473   5.276   9.514 -0.9344  0.1747 -0.3043
  176SOPE   C3820063   4.549   5.470   9.440  0.0340  0.3211  0.4579
  176SOPE   H8X20064   4.622   5.407   9.386 -1.1309 -2.2889  1.7391
  176SOPE   H8Y20065   4.609   5.549   9.492  2.9652 -0.2335 -1.7999
  176SOPE   C3920066   4.441   5.548   9.365  0.3393  0.4659  0.1118
  176SOPE   H9X20067   4.486   5.637   9.314 -0.1541  0.4921 -0.2837
  176SOPE   H9Y20068   4.372   5.588   9.442  1.1857  2.7855 -0.2515
  176SOPE  C31020069   4.356   5.468   9.267 -0.5506 -0.3845 -0.0194
  176SOPE  H10X20070   4.256   5.457   9.315  0.3068 -0.3081  1.8588
  176SOPE  H10Y20071   4.400   5.367   9.252  1.2409  0.6535 -2.3948
  176SOPE  C31120072   4.345   5.529   9.130 -0.7822 -0.1525  0.1970
  176SOPE  H11X20073   4.308   5.633   9.143  1.6316  0.6618  1.0376
  176SOPE  H11Y20074   4.272   5.460   9.083  0.3501 -2.9502  2.3025
  176SOPE  C31220075   4.484   5.557   9.061 -0.4734  0.1072  0.4161
  176SOPE  H12X20076   4.560   5.476   9.060 -1.4975 -0.9080 -1.7374
  176SOPE  H12Y20077   4.527   5.646   9.113 -0.1211  0.8517 -1.1149
  176SOPE  C31320078   4.471   5.575   8.909  0.2250  0.5910  0.3376
  176SOPE  H13X20079   4.431   5.477   8.874  2.1097 -0.3167  0.5928
  176SOPE  H13Y20080   4.570   5.582   8.860  0.0907  0.5822  0.0649
  176SOPE  C31420081   4.391   5.694   8.881 -0.1081 -0.3299 -0.9840
  176SOPE  H14X20082   4.439   5.781   8.931 -1.0080  0.2535 -1.1122
  176SOPE  H14Y20083   4.286   5.678   8.915  0.1373 -2.7694 -1.2059
  176SOPE  C31520084   4.375   5.719   8.729  0.6871  0.1147  0.9609
  176SOPE  H15X20085   4.473   5.752   8.688  0.0946  0.2447 -0.4345
  176SOPE  H15Y20086   4.302   5.802   8.720 -0.1870 -0.8314 -1.6897
  176SOPE  C31620087   4.330   5.597   8.643 -0.2372 -0.2306  0.7567
  176SOPE  H16X20088   4.244   5.539   8.682 -0.6406  0.3033  0.6651
  176SOPE  H16Y20089   4.410   5.519   8.642  1.0828  1.0602  1.7093
  176SOPE  C31720090   4.286   5.649   8.505 -0.1026 -0.2215 -0.0999
  176SOPE  H17X20091   4.354   5.725   8.460  0.9798 -0.9140  0.3094
  176SOPE  H17Y20092   4.189   5.701   8.521 -0.3717 -1.0360  1.0772
  176SOPE  C31820093   4.262   5.535   8.410  0.2617 -0.1300 -0.1183
  176SOPE  H18X20094   4.219   5.444   8.459 -2.2667  1.4983  0.9136
  176SOPE  H18Y20095   4.357   5.507   8.360  0.2632  0.0350 -0.2085
  176SOPE  H18Z20096   4.185   5.573   8.339  0.9586  0.6167 -0.4839
  177SOPE     N20097   4.103   3.675  11.024  0.7439  0.1029  0.5853
  177SOPE   HN120098   4.079   3.682  11.125  0.2216  0.0786  0.4688
  177SOPE   HN220099   4.022   3.639  10.970  1.2697  0.2689 -0.3342
  177SOPE   HN320100   4.176   3.601  11.018 -0.1606 -1.0772  2.9101
  177SOPE   C1220101   4.154   3.803  10.968  0.3125 -0.1579  0.8331
  177SOPE  H12A20102   4.182   3.877  11.046  0.8067  0.3432  0.1977
  177SOPE  H12B20103   4.071   3.854  10.914  0.6328 -1.0232 -0.5422
  177SOPE   C1120104   4.275   3.789  10.869 -0.0125  0.5747  0.3693
  177SOPE  H11A20105   4.305   3.888  10.829 -1.4916  1.4991  1.4629
  177SOPE  H11B20106   4.237   3.723  10.789 -1.3030 -1.3137  2.4129
  177SOPE     P20107   4.416   3.573  10.923 -0.1853 -0.1170 -0.3983
  177SOPE   O1320108   4.296   3.496  10.952  0.5711 -0.3485  0.6742
  177SOPE   O1420109   4.540   3.532  10.994 -0.4123 -0.2181 -0.8471
  177SOPE   O1220110   4.385   3.730  10.943  0.2173  0.7312 -0.1101
  177SOPE   O1120111   4.448   3.579  10.767  0.3157 -0.3401  0.3851
  177SOPE    C120112   4.447   3.467  10.684 -0.1432 -0.3869 -0.2908
  177SOPE    HA20113   4.361   3.475  10.615  0.0771  2.5944 -0.3913
  177SOPE    HB20114   4.427   3.371  10.735 -3.0685  0.1481 -0.2734
  177SOPE    C220115   4.578   3.453  10.596 -0.2569 -0.4007 -0.2167
  177SOPE    HS20116   4.664   3.444  10.666 -0.8605 -3.2757  0.3004
  177SOPE   O2120117   4.590   3.563  10.501  0.1387 -0.1968 -0.2316
  177SOPE   C2120118   4.712   3.604  10.468  0.0685  0.1932 -0.1268
  177SOPE   O2220119   4.814   3.568  10.519  0.2871 -0.5761  0.1200
  177SOPE   C2220120   4.696   3.718  10.367 -0.1991 -0.1090 -0.0563
  177SOPE   H2R20121   4.784   3.785  10.371 -0.3465  0.0388  1.2071
  177SOPE   H2S20122   4.602   3.777  10.383 -1.7053 -1.7575 -2.2089
  177SOPE    C320123   4.566   3.325  10.514  0.0720 -0.3915  0.2632
  177SOPE    HX20124   4.482   3.346  10.444 -0.0703 -0.6917  0.3417
  177SOPE    HY20125   4.545   3.236  10.578 -0.4288  1.0090  2.1238
  177SOPE   O3120126   4.689   3.303  10.448  0.2652 -0.1060 -0.0146
  177SOPE   C3120127   4.675   3.220  10.349  0.0572  0.7475 -0.6318
  177SOPE   O3220128   4.574   3.166  10.313  0.3616  0.0516 -0.3247
  177SOPE   C3220129   4.812   3.183  10.295  0.2162  0.5163 -0.0425
  177SOPE   H2X20130   4.807   3.088  10.238  0.3231  0.3434  0.2337
  177SOPE   H2Y20131   4.879   3.170  10.383  1.1799 -0.2490 -0.8677
  177SOPE   C2320132   4.657   3.655  10.232  0.1563  0.3167  0.2765
  177SOPE   H3R20133   4.562   3.600  10.247 -0.7819  1.2825 -1.6932
  177SOPE   H3S20134   4.737   3.587  10.195  0.7373  0.7717  0.6750
  177SOPE   C2420135   4.633   3.762  10.127 -0.0808  0.3334  0.1899
  177SOPE   H4R20136   4.534   3.807  10.150 -0.4071 -0.3038  0.0407
  177SOPE   H4S20137   4.715   3.835  10.146 -0.3359  1.6047 -3.0012
  177SOPE   C2520138   4.636   3.717   9.980  1.0203 -0.3668 -0.1330
  177SOPE   H5R20139   4.743   3.696   9.956  2.0315  1.5576  2.2201
  177SOPE   H5S20140   4.562   3.636   9.964  0.5230  0.0118  0.2357
  177SOPE   C2620141   4.602   3.843   9.900 -0.6993  1.0134 -0.6033
  177SOPE   H6R20142   4.497   3.873   9.921 -0.3693  1.2403  0.8180
  177SOPE   H6S20143   4.677   3.920   9.928 -1.3116  2.2636 -2.2217
  177SOPE   C2720144   4.626   3.825   9.747 -0.1259  0.0641 -0.0196
  177SOPE   H7R20145   4.715   3.760   9.734 -1.0282 -0.9537 -1.2439
  177SOPE   H7S20146   4.540   3.768   9.708  1.3161 -2.6481  0.5213
  177SOPE   C2820147   4.640   3.959   9.681 -0.4731 -0.3334 -0.1204
  177SOPE   H8R20148   4.631   3.932   9.573 -1.0367 -1.9470  0.3120
  177SOPE   H8S20149   4.554   4.021   9.711 -0.0921  0.0496  0.1901
  177SOPE   C2920150   4.771   4.032   9.708 -0.7621  0.0521  0.1418
  177SOPE   H9120151   4.787   4.063   9.813 -1.4937 -2.1741  0.9847
  177SOPE  C21020152   4.876   4.053   9.626 -0.3249 -0.4434  0.2610
  177SOPE  H10120153   4.968   4.092   9.671  0.8248 -1.9805 -0.6686
  177SOPE  C21120154   4.902   4.022   9.485  0.4647 -0.1004  0.4443
  177SOPE  H11R20155   4.799   4.031   9.444  0.5062  1.6557  0.6412
  177SOPE  H11S20156   4.947   3.922   9.471  0.7139 -0.4595  3.1969
  177SOPE  C21220157   4.990   4.119   9.398 -0.1869  0.8163  0.0399
  177SOPE  H12R20158   5.002   4.071   9.299 -1.1522  1.1626 -0.2565
  177SOPE  H12S20159   5.092   4.125   9.442  0.0395  0.0771 -0.3741
  177SOPE  C21320160   4.926   4.253   9.374 -0.1406  0.5797 -0.4511
  177SOPE  H13R20161   4.944   4.315   9.464  0.4818 -1.0931  0.6186
  177SOPE  H13S20162   4.816   4.238   9.378 -0.2967  1.9039  1.8161
  177SOPE  C21420163   4.975   4.332   9.251 -0.5847 -1.1505 -0.3020
  177SOPE  H14R20164   4.940   4.287   9.156  2.7199  0.9609 -2.7469
  177SOPE  H14S20165   5.085   4.350   9.249 -1.0908  2.7601 -1.8391
  177SOPE  C21520166   4.905   4.470   9.246  0.4713  0.1179 -0.1956
  177SOPE  H15R20167   4.892   4.502   9.352 -0.9252 -0.9139 -0.0246
  177SOPE  H15S20168   4.801   4.458   9.207  0.0951 -0.1459  0.8427
  177SOPE  C21620169   4.985   4.565   9.160  0.0774  0.5114  0.2396
  177SOPE  H16R20170   5.093   4.559   9.187  0.0974 -1.8470 -0.1162
  177SOPE  H16S20171   4.953   4.668   9.183 -0.4703  0.3523  0.1923
  177SOPE  C21720172   4.966   4.542   9.011  0.6987 -0.0168  0.3100
  177SOPE  H17R20173   4.864   4.569   8.977  1.1021  0.6438 -0.4159
  177SOPE  H17S20174   4.978   4.433   8.991 -3.4057 -0.4430 -0.6926
  177SOPE  C21820175   5.059   4.625   8.921  0.0126  0.4593 -0.5959
  177SOPE  H18R20176   5.035   4.732   8.939 -0.4690  0.2867 -0.1765
  177SOPE  H18S20177   5.043   4.610   8.812 -0.5004 -2.3275 -0.2054
  177SOPE  H18T20178   5.169   4.615   8.936 -0.0494  2.3408  1.8994
  177SOPE   C3320179   4.857   3.298  10.203  0.0816 -0.0382  0.2500
  177SOPE   H3X20180   4.967   3.286  10.192 -0.0545 -2.0525  0.7144
  177SOPE   H3Y20181   4.841   3.395  10.254 -0.3999  0.6130 -1.0863
  177SOPE   C3420182   4.783   3.304  10.069  1.1954  0.5608 -0.8924
  177SOPE   H4X20183   4.693   3.367  10.083  2.7654  2.8950 -0.6375
  177SOPE   H4Y20184   4.753   3.199  10.049  2.2446 -0.1996  1.2064
  177SOPE   C3520185   4.868   3.371   9.961 -0.1107  0.3386  0.0840
  177SOPE   H5X20186   4.971   3.329   9.966  0.4075  1.4989 -0.3803
  177SOPE   H5Y20187   4.890   3.478   9.980  0.6772 -0.1161  1.9640
  177SOPE   C3620188   4.817   3.364   9.817  0.3423 -0.1920  0.0030
  177SOPE   H6X20189   4.729   3.432   9.809 -1.0538 -1.8043  0.8769
  177SOPE   H6Y20190   4.800   3.256   9.797 -0.2131 -0.3035  0.9940
  177SOPE   C3720191   4.926   3.415   9.728  0.4636  0.4350 -0.2121
  177SOPE   H7X20192   5.016   3.351   9.717  0.6203  0.8275 -1.4057
  177SOPE   H7Y20193   4.952   3.517   9.765 -2.1413  1.7173 -1.6720
  177SOPE   C3820194   4.878   3.417   9.583  0.3481 -0.1523  0.8697
  177SOPE   H8X20195   4.823   3.324   9.557 -0.2995 -0.6009  3.5175
  177SOPE   H8Y20196   4.976   3.414   9.531  0.0954  2.7150  0.0744
  177SOPE   C3920197   4.802   3.538   9.521  0.3703 -0.1927  0.3529
  177SOPE   H9X20198   4.823   3.636   9.568 -1.2173  0.3314  0.0262
  177SOPE   H9Y20199   4.698   3.500   9.526 -0.4111  1.1581 -2.9993
  177SOPE  C31020200   4.823   3.555   9.365  0.0436  0.5628  0.0724
  177SOPE  H10X20201   4.790   3.463   9.312 -2.2302  0.9866  0.6321
  177SOPE  H10Y20202   4.932   3.570   9.352  0.8070  0.7902  4.9352
  177SOPE  C31120203   4.762   3.678   9.301 -0.0712  0.1513  0.0175
  177SOPE  H11X20204   4.812   3.711   9.207 -0.5747  1.7554  0.2802
  177SOPE  H11Y20205   4.782   3.762   9.370  0.4648  1.5707 -1.7937
  177SOPE  C31220206   4.610   3.670   9.269  0.0951  0.1090 -0.2792
  177SOPE  H12X20207   4.567   3.684   9.370  1.5960  1.3495  0.2217
  177SOPE  H12Y20208   4.584   3.568   9.232 -2.3253  0.4428  0.3017
  177SOPE  C31320209   4.562   3.786   9.180  0.0599 -0.4327 -0.4501
  177SOPE  H13X20210   4.455   3.769   9.156  0.3664 -1.6956 -0.9731
  177SOPE  H13Y20211   4.610   3.779   9.080 -1.7231 -0.0262 -1.3750
  177SOPE  C31420212   4.573   3.931   9.237  0.0248 -0.7418 -0.1200
  177SOPE  H14X20213   4.675   3.953   9.275 -0.3194 -0.1257  0.4578
  177SOPE  H14Y20214   4.509   3.943   9.327  0.5234 -1.6849  0.3739
  177SOPE  C31520215   4.524   4.037   9.134  0.1347 -0.6440 -0.0503
  177SOPE  H15X20216   4.508   4.129   9.194 -1.3477 -1.2697  0.5432
  177SOPE  H15Y20217   4.428   3.998   9.093  1.0118 -2.0579 -0.8624
  177SOPE  C31620218   4.624   4.061   9.027 -0.3090 -0.1564 -0.7493
  177SOPE  H16X20219   4.652   3.959   8.993  1.2138 -0.1453  0.3267
  177SOPE  H16Y20220   4.717   4.099   9.075 -0.9530 -0.2089  0.5821
  177SOPE  C31720221   4.590   4.143   8.902 -0.4091 -0.3384  0.2615
  177SOPE  H17X20222   4.531   4.090   8.824  0.4273 -0.3518 -0.3731
  177SOPE  H17Y20223   4.684   4.180   8.856 -0.0477 -0.5342  0.8179
  177SOPE  C31820224   4.513   4.275   8.945 -0.3870 -0.4789 -0.2189
  177SOPE  H18X20225   4.418   4.255   8.999  1.1151 -1.5082  2.2344
  177SOPE  H18Y20226   4.495   4.347   8.862  0.8133  1.1292  0.8320
  177SOPE  H18Z20227   4.583   4.332   9.010 -0.3664 -1.1558  0.3616
  178SOPE     N20228   2.318   0.897  11.048  0.0532 -0.4412 -0.2119
  178SOPE   HN120229   2.340   0.977  11.111  0.8889 -0.2500 -0.7293
  178SOPE   HN220230   2.217   0.878  11.065 -0.4500 -0.1102 -2.4753
  178SOPE   HN320231   2.378   0.814  11.068  2.5293  1.3270  0.2249
  178SOPE   C1220232   2.346   0.940  10.913 -0.1199  0.0473 -0.2164
  178SOPE  H12A20233   2.412   0.864  10.867  1.5326  1.7714 -0.8456
  178SOPE  H12B20234   2.406   1.033  10.918  2.1976 -1.3775 -0.2032
  178SOPE   C1120235   2.221   0.967  10.831  0.2941 -0.1792 -0.2399
  178SOPE  H11A20236   2.251   0.996  10.727 -3.0760  1.6369 -0.8642
  178SOPE  H11B20237   2.169   1.053  10.878 -2.8135 -1.5708 -0.9049
  178SOPE     P20238   2.019   0.847  10.727  0.1170 -0.1766  0.1068
  178SOPE   O1320239   1.923   0.748  10.782  0.7139 -0.0371 -0.5478
  178SOPE   O1420240   2.080   0.812  10.599  0.4199  0.2939  0.0546
  178SOPE   O1220241   2.144   0.847  10.823 -0.4466  0.1020  0.3721
  178SOPE   O1120242   1.960   0.999  10.726  0.0409  0.5678  0.0539
  178SOPE    C120243   1.831   1.026  10.663 -0.2835 -0.3698 -0.4962
  178SOPE    HA20244   1.765   1.045  10.751  0.0048 -0.6891 -0.2037
  178SOPE    HB20245   1.782   0.934  10.625  0.3760  0.2352 -2.9686
  178SOPE    C220246   1.835   1.137  10.557  0.2086  0.0914  0.4292
  178SOPE    HS20247   1.733   1.136  10.512  0.8389  2.8423 -1.3507
  178SOPE   O2120248   1.932   1.108  10.447 -0.0753 -0.3198  0.2654
  178SOPE   C2120249   1.897   0.997  10.386 -0.0578 -0.1656  0.0299
  178SOPE   O2220250   1.789   0.941  10.393  0.5289  0.3958  0.1000
  178SOPE   C2220251   2.007   0.961  10.292  0.4224  0.0487 -0.1685
  178SOPE   H2R20252   2.099   0.977  10.351 -0.2403  3.0615  0.2442
  178SOPE   H2S20253   2.006   1.035  10.209 -0.4801 -0.5295 -0.6951
  178SOPE    C320254   1.861   1.275  10.628 -0.3181 -0.9094  0.7437
  178SOPE    HX20255   1.958   1.253  10.678  0.6507 -2.0831 -1.4900
  178SOPE    HY20256   1.780   1.305  10.697 -0.6791 -1.0859  0.4052
  178SOPE   O3120257   1.884   1.380  10.529 -0.0621 -0.0857 -0.1473
  178SOPE   C3120258   1.932   1.487  10.581 -0.0318 -0.1830  0.7193
  178SOPE   O3220259   1.958   1.504  10.700 -0.6344 -0.6183  0.0013
  178SOPE   C3220260   1.969   1.584  10.471  0.7256  0.4774  0.8738
  178SOPE   H2X20261   2.079   1.589  10.462  0.7422 -0.5978  0.3457
  178SOPE   H2Y20262   1.916   1.680  10.491 -0.2075  0.2863 -0.4911
  178SOPE   C2320263   1.988   0.829  10.218 -0.3918  0.5703 -0.7670
  178SOPE   H3R20264   1.884   0.824  10.178 -0.6357 -3.5064 -0.0610
  178SOPE   H3S20265   1.999   0.750  10.295  0.6136  2.2171  0.8473
  178SOPE   C2420266   2.088   0.813  10.095  0.1991  0.5682  0.6065
  178SOPE   H4R20267   2.068   0.718  10.043 -0.1382  2.4045 -2.8810
  178SOPE   H4S20268   2.073   0.891  10.017 -0.8633  0.7664  0.9892
  178SOPE   C2520269   2.239   0.806  10.127  1.1430 -0.3869 -0.4715
  178SOPE   H5R20270   2.264   0.879  10.207 -0.9542 -1.0614  0.8955
  178SOPE   H5S20271   2.255   0.707  10.174  1.6132 -0.2940 -0.4345
  178SOPE   C2620272   2.314   0.825   9.999 -0.4833  0.4557  0.2797
  178SOPE   H6R20273   2.286   0.921   9.952 -0.3894 -0.0699 -0.8844
  178SOPE   H6S20274   2.423   0.817  10.019 -0.0389 -2.0652 -2.5151
  178SOPE   C2720275   2.300   0.712   9.891 -0.2348  0.2028 -0.1354
  178SOPE   H7R20276   2.312   0.615   9.943  0.6900  0.5391  0.3003
  178SOPE   H7S20277   2.194   0.712   9.859 -0.3702 -1.9787  0.1923
  178SOPE   C2820278   2.398   0.734   9.772  0.0532  0.2330 -0.1701
  178SOPE   H8R20279   2.501   0.746   9.813  0.4397  0.9938 -1.3288
  178SOPE   H8S20280   2.411   0.647   9.704  2.9272  1.4181 -1.3202
  178SOPE   C2920281   2.377   0.867   9.702 -0.2487  0.1092 -0.8990
  178SOPE   H9120282   2.396   0.946   9.777  1.7523 -0.6563 -0.5282
  178SOPE  C21020283   2.363   0.898   9.576  0.3937  0.0765 -0.7114
  178SOPE  H10120284   2.350   1.004   9.549  4.5357  0.7037 -0.9266
  178SOPE  C21120285   2.367   0.812   9.458 -0.3192  0.0159 -0.1303
  178SOPE  H11R20286   2.279   0.828   9.394  0.0269  1.3972 -0.2824
  178SOPE  H11S20287   2.382   0.707   9.494 -0.1940 -0.3643 -1.2629
  178SOPE  C21220288   2.486   0.845   9.358  1.1576  0.0604 -1.0053
  178SOPE  H12R20289   2.583   0.841   9.410  1.1508  2.3385 -0.7476
  178SOPE  H12S20290   2.478   0.949   9.321 -0.6573  1.2240  2.2656
  178SOPE  C21320291   2.462   0.762   9.225  0.2325 -0.9326  0.6587
  178SOPE  H13R20292   2.354   0.769   9.198  0.4911 -1.6313 -0.6494
  178SOPE  H13S20293   2.476   0.658   9.261 -1.8003 -0.4739  3.0471
  178SOPE  C21420294   2.562   0.805   9.117 -0.3490  0.3954  0.0792
  178SOPE  H14R20295   2.558   0.911   9.084  0.4832  0.9345  1.6043
  178SOPE  H14S20296   2.541   0.744   9.027 -3.0515  0.0193  0.8755
  178SOPE  C21520297   2.712   0.768   9.161 -0.3151  0.4754  0.3699
  178SOPE  H15R20298   2.721   0.664   9.199 -0.0744  0.5068  0.3962
  178SOPE  H15S20299   2.744   0.834   9.245 -0.9699 -0.5718  1.4874
  178SOPE  C21620300   2.817   0.801   9.054  0.2156 -0.3513  0.1028
  178SOPE  H16R20301   2.917   0.801   9.103  0.4804 -0.6812 -0.4301
  178SOPE  H16S20302   2.793   0.905   9.027 -1.9026  0.4400  4.2580
  178SOPE  C21720303   2.830   0.701   8.941  0.8106  0.5160  0.0180
  178SOPE  H17R20304   2.729   0.678   8.901  1.0320 -0.9272  0.2457
  178SOPE  H17S20305   2.877   0.606   8.975  0.4792  0.7454  1.1836
  178SOPE  C21820306   2.908   0.766   8.820  0.2432 -0.5967  0.2080
  178SOPE  H18R20307   3.006   0.788   8.867 -0.1861  1.3378  0.2824
  178SOPE  H18S20308   2.859   0.857   8.778 -2.3121 -2.1923 -0.4761
  178SOPE  H18T20309   2.926   0.698   8.734 -0.9971  0.3328 -0.8318
  178SOPE   C3320310   1.928   1.540  10.326 -0.0728 -0.0562  0.0161
  178SOPE   H3X20311   1.821   1.519  10.309  0.0985  0.0659 -1.3309
  178SOPE   H3Y20312   1.973   1.440  10.311  1.8823  0.7459  0.1568
  178SOPE   C3420313   1.972   1.639  10.220  0.1322 -0.5991 -0.6174
  178SOPE   H4X20314   2.077   1.672  10.237 -0.7019  0.9280  2.1112
  178SOPE   H4Y20315   1.910   1.731  10.223 -2.9355 -2.5168 -0.2749
  178SOPE   C3520316   1.952   1.581  10.083  0.4327 -0.0973 -0.2348
  178SOPE   H5X20317   1.846   1.570  10.052  0.1618 -1.4619  1.0220
  178SOPE   H5Y20318   1.985   1.475  10.083  2.1682  0.4024 -1.6107
  178SOPE   C3620319   2.022   1.661   9.976  0.4443  0.4827 -0.3809
  178SOPE   H6X20320   2.129   1.682   9.997  0.5298  1.1968 -1.4367
  178SOPE   H6Y20321   1.971   1.760   9.969 -0.7251 -0.0847 -0.1186
  178SOPE   C3720322   2.018   1.585   9.838  0.1133  0.1227  0.1926
  178SOPE   H7X20323   2.023   1.475   9.854  2.3869  0.1764  0.1416
  178SOPE   H7Y20324   2.109   1.620   9.784  0.9331  1.9659  2.6265
  178SOPE   C3820325   1.889   1.624   9.763  0.3105  0.1550  0.2565
  178SOPE   H8X20326   1.897   1.734   9.753  0.2264  0.8056  5.0045
  178SOPE   H8Y20327   1.802   1.606   9.829 -0.0674 -0.9300 -0.5068
  178SOPE   C3920328   1.863   1.551   9.631  0.4398 -1.1280  0.1332
  178SOPE   H9X20329   1.753   1.544   9.620  0.4677  0.6254 -1.8479
  178SOPE   H9Y20330   1.909   1.450   9.635 -1.0683 -1.8986 -0.9948
  178SOPE  C31020331   1.934   1.622   9.516  0.1875  0.2842 -0.5967
  178SOPE  H10X20332   2.040   1.589   9.521  0.0262 -0.6533 -2.6019
  178SOPE  H10Y20333   1.917   1.732   9.512 -1.4754  0.0148 -3.6957
  178SOPE  C31120334   1.893   1.572   9.374 -0.0193 -0.3997 -0.5395
  178SOPE  H11X20335   1.788   1.607   9.374  0.3584  0.9881  1.7744
  178SOPE  H11Y20336   1.900   1.462   9.364 -0.1362 -0.5590  0.8759
  178SOPE  C31220337   1.976   1.643   9.262  0.4807 -0.0036 -0.0398
  178SOPE  H12X20338   2.083   1.613   9.266 -0.1515 -2.6655 -0.9854
  178SOPE  H12Y20339   1.951   1.751   9.258  0.3368 -0.0659 -1.5662
  178SOPE  C31320340   1.929   1.598   9.123  0.4084 -0.2034  0.5914
  178SOPE  H13X20341   1.821   1.618   9.107  0.4542  0.7014  1.3018
  178SOPE  H13Y20342   1.939   1.488   9.120 -1.4697 -0.4144  0.8584
  178SOPE  C31420343   2.010   1.655   9.010  0.1508  0.2114 -0.3336
  178SOPE  H14X20344   2.118   1.629   9.016 -0.2185 -1.4443 -0.2917
  178SOPE  H14Y20345   2.014   1.766   9.005  1.0239  0.2205  0.3937
  178SOPE  C31520346   1.947   1.610   8.874  0.3326 -0.3036 -0.0475
  178SOPE  H15X20347   1.945   1.499   8.866  2.8340 -0.3641 -0.5575
  178SOPE  H15Y20348   2.013   1.654   8.796 -0.6290  2.8088  0.7387
  178SOPE  C31620349   1.809   1.677   8.852  0.0148  0.7155  0.3425
  178SOPE  H16X20350   1.812   1.780   8.893 -2.5049  0.0893  2.3711
  178SOPE  H16Y20351   1.729   1.621   8.906 -1.1271  2.5200  0.5959
  178SOPE  C31720352   1.783   1.705   8.699 -0.1823 -0.0095  0.3428
  178SOPE  H17X20353   1.673   1.719   8.687 -0.4757 -1.0562  1.5367
  178SOPE  H17Y20354   1.817   1.612   8.650  1.8664  0.4093  0.8536
  178SOPE  C31820355   1.847   1.832   8.641 -0.1975  0.7856 -0.2984
  178SOPE  H18X20356   1.821   1.826   8.534 -0.1721  1.0261 -0.3197
  178SOPE  H18Y20357   1.958   1.844   8.646 -0.3719  2.2007  1.3698
  178SOPE  H18Z20358   1.807   1.924   8.688 -1.6733 -0.4235  0.9068
  179SOPE     N20359   5.522   3.789   6.406  0.7544  0.1972  0.5298
  179SOPE   HN120360   5.474   3.865   6.353  1.7383  1.1277  0.9440
  179SOPE   HN220361   5.618   3.773   6.370  0.5447 -0.1427  0.1072
  179SOPE   HN320362   5.473   3.701   6.377  3.6475 -1.4484  0.1959
  179SOPE   C1220363   5.512   3.824   6.553 -0.1420  0.9345  0.1330
  179SOPE  H12A20364   5.564   3.738   6.599  1.6818  1.6256 -0.5268
  179SOPE  H12B20365   5.406   3.817   6.585  0.6831 -2.5816  2.6812
  179SOPE   C1120366   5.583   3.954   6.596 -0.1964  0.0589  0.1281
  179SOPE  H11A20367   5.689   3.956   6.562 -0.6662  5.4591 -1.9892
  179SOPE  H11B20368   5.588   3.953   6.707 -1.1505 -1.8867  0.2064
  179SOPE     P20369   5.380   4.131   6.575  0.3609 -0.3108  0.2164
  179SOPE   O1320370   5.283   4.031   6.522 -0.0218 -0.3543 -0.4145
  179SOPE   O1420371   5.374   4.270   6.530  0.3769  0.2794  1.0571
  179SOPE   O1220372   5.528   4.080   6.537 -0.0419  0.4325 -0.0661
  179SOPE   O1120373   5.374   4.132   6.731  0.2090  0.1275  0.1793
  179SOPE    C120374   5.471   4.203   6.812  0.6487  0.4956  0.1714
  179SOPE    HA20375   5.487   4.308   6.778 -0.4642  0.6175 -0.0374
  179SOPE    HB20376   5.561   4.140   6.801 -1.7076 -3.0922 -0.1957
  179SOPE    C220377   5.442   4.192   6.964 -0.1703  0.0289  0.1518
  179SOPE    HS20378   5.523   4.222   7.033  0.5928 -0.7544 -0.3884
  179SOPE   O2120379   5.409   4.052   6.989 -0.1412 -0.3338 -0.1242
  179SOPE   C2120380   5.510   3.968   6.991 -0.0518  0.0834  0.7928
  179SOPE   O2220381   5.624   3.992   6.972  0.3659 -1.0546  0.6916
  179SOPE   C2220382   5.458   3.830   7.042  0.0230  0.4225  0.3426
  179SOPE   H2R20383   5.546   3.762   7.033 -0.4467  0.0090 -1.7382
  179SOPE   H2S20384   5.389   3.788   6.966 -0.5287 -3.2051  2.6196
  179SOPE    C320385   5.317   4.277   7.006 -0.2512 -0.4701 -0.0336
  179SOPE    HX20386   5.232   4.222   6.959  0.8119 -2.1294 -0.0904
  179SOPE    HY20387   5.328   4.381   6.970  1.3307  0.3723  2.6426
  179SOPE   O3120388   5.299   4.273   7.154 -0.0352 -0.0561  0.4846
  179SOPE   C3120389   5.381   4.360   7.219  0.0148 -0.5649  0.5657
  179SOPE   O3220390   5.470   4.423   7.164 -0.5389 -0.1423 -0.2842
  179SOPE   C3220391   5.341   4.362   7.364  0.3441  0.0618 -0.6360
  179SOPE   H2X20392   5.351   4.264   7.415 -0.9401 -0.0902 -0.6479
  179SOPE   H2Y20393   5.233   4.387   7.373 -0.2757 -2.7681  0.7801
  179SOPE   C2320394   5.385   3.850   7.174  0.7161  0.3419  0.8742
  179SOPE   H3R20395   5.336   3.755   7.205  1.4618  0.3800  2.2293
  179SOPE   H3S20396   5.297   3.916   7.156 -1.8723 -2.2170  3.0750
  179SOPE   C2420397   5.471   3.905   7.291  0.0052  0.5282  0.1594
  179SOPE   H4R20398   5.550   3.831   7.317 -1.1228 -0.5204  0.6702
  179SOPE   H4S20399   5.523   4.002   7.274 -0.5540  1.2142  2.0606
  179SOPE   C2520400   5.387   3.937   7.421  0.0692  0.0400 -0.0895
  179SOPE   H5R20401   5.295   3.990   7.391  1.8782  2.1056 -2.4088
  179SOPE   H5S20402   5.361   3.835   7.458 -0.7541 -0.0171 -0.8061
  179SOPE   C2620403   5.469   4.015   7.533 -0.1721 -0.1051 -0.1580
  179SOPE   H6R20404   5.566   3.962   7.539 -0.4292 -0.4851  0.9046
  179SOPE   H6S20405   5.478   4.117   7.490  1.0500  0.0843  0.4939
  179SOPE   C2720406   5.405   4.020   7.674 -0.4107  0.4947 -0.8688
  179SOPE   H7R20407   5.316   4.085   7.670  0.7218  2.2269  0.4070
  179SOPE   H7S20408   5.372   3.918   7.705  1.4357  0.5908  1.7185
  179SOPE   C2820409   5.509   4.066   7.779  0.0997 -0.8243 -0.6013
  179SOPE   H8R20410   5.593   3.994   7.769 -0.9792 -2.1811 -0.2019
  179SOPE   H8S20411   5.543   4.171   7.767 -1.3528 -0.1723  0.6668
  179SOPE   C2920412   5.436   4.052   7.917 -0.1343 -0.2556 -0.2579
  179SOPE   H9120413   5.356   4.125   7.941  0.3395 -0.2303  1.3575
  179SOPE  C21020414   5.458   3.967   8.018  0.5731  0.4674 -0.5867
  179SOPE  H10120415   5.387   3.988   8.099 -2.7449  1.7672 -3.5342
  179SOPE  C21120416   5.557   3.854   8.029 -0.1654 -0.5983  0.2835
  179SOPE  H11R20417   5.638   3.862   7.954 -0.9864  0.3520 -0.5334
  179SOPE  H11S20418   5.511   3.755   8.010  2.3005 -1.6299 -0.6365
  179SOPE  C21220419   5.620   3.846   8.173  0.8041  0.4291  0.7340
  179SOPE  H12R20420   5.543   3.840   8.253  0.6819 -3.6467  0.5463
  179SOPE  H12S20421   5.684   3.934   8.196  0.8926  0.7224 -0.5791
  179SOPE  C21320422   5.711   3.722   8.190 -0.1259  0.7217 -0.0958
  179SOPE  H13R20423   5.777   3.727   8.100  0.6503  1.0114  0.4737
  179SOPE  H13S20424   5.661   3.623   8.183 -0.0443  0.7768 -2.1178
  179SOPE  C21420425   5.793   3.736   8.318 -0.5661  0.1327 -0.0746
  179SOPE  H14R20426   5.867   3.816   8.298  0.1793  0.2654  2.7606
  179SOPE  H14S20427   5.854   3.647   8.344  0.2629  1.0259  1.1481
  179SOPE  C21520428   5.725   3.772   8.449 -0.3168 -0.1825  0.0739
  179SOPE  H15R20429   5.683   3.873   8.429 -0.9777 -0.6382 -0.8560
  179SOPE  H15S20430   5.798   3.795   8.531 -0.7341  0.8942  0.1651
  179SOPE  C21620431   5.603   3.686   8.495  0.4056  0.2318 -0.4936
  179SOPE  H16R20432   5.519   3.687   8.423  0.2953 -0.5407 -0.3856
  179SOPE  H16S20433   5.560   3.724   8.590 -0.6094  1.4090 -1.3936
  179SOPE  C21720434   5.654   3.541   8.528  0.8957  0.5420  0.1583
  179SOPE  H17R20435   5.729   3.554   8.610  1.3224  1.8650 -0.4074
  179SOPE  H17S20436   5.703   3.502   8.437 -0.4186 -1.7162  0.3501
  179SOPE  C21820437   5.553   3.436   8.576  0.0198  0.0238  0.3041
  179SOPE  H18R20438   5.537   3.439   8.686  1.0532  1.2470  0.4427
  179SOPE  H18S20439   5.568   3.337   8.527  1.5053  1.6644 -2.8362
  179SOPE  H18T20440   5.459   3.476   8.532  1.2602  1.3603 -1.2304
  179SOPE   C3320441   5.426   4.473   7.443 -0.2003  0.1109  0.4256
  179SOPE   H3X20442   5.412   4.565   7.383  4.1914 -0.5954 -2.1288
  179SOPE   H3Y20443   5.533   4.445   7.452  0.0819  1.2900  0.8297
  179SOPE   C3420444   5.374   4.506   7.587  0.6583  0.1461  1.1647
  179SOPE   H4X20445   5.267   4.536   7.594  0.0322 -1.6377 -0.0811
  179SOPE   H4Y20446   5.420   4.603   7.613  0.8769  0.1683  0.7004
  179SOPE   C3520447   5.401   4.391   7.690  0.3014 -0.1269 -0.2834
  179SOPE   H5X20448   5.506   4.354   7.683 -0.2063 -1.5792 -0.5809
  179SOPE   H5Y20449   5.334   4.309   7.658 -1.4854  1.3698 -0.5532
  179SOPE   C3620450   5.368   4.424   7.834 -0.0393  0.0511 -0.0546
  179SOPE   H6X20451   5.337   4.329   7.884  0.5953 -0.5363 -0.7612
  179SOPE   H6Y20452   5.284   4.497   7.837  0.9774  1.2892  3.2705
  179SOPE   C3720453   5.483   4.478   7.924 -0.1866 -0.6843  0.5437
  179SOPE   H7X20454   5.536   4.553   7.862  0.7535 -0.3259  1.7271
  179SOPE   H7Y20455   5.560   4.400   7.946  0.2128 -0.9460 -1.5788
  179SOPE   C3820456   5.434   4.537   8.058  0.3644 -0.0796  0.0554
  179SOPE   H8X20457   5.366   4.621   8.031  1.3574  0.3005 -1.3758
  179SOPE   H8Y20458   5.520   4.570   8.119  1.2629  2.0662 -2.1884
  179SOPE   C3920459   5.365   4.443   8.145  0.2069  0.1996 -0.1250
  179SOPE   H9X20460   5.301   4.365   8.097 -1.1905  0.3475  1.4157
  179SOPE   H9Y20461   5.306   4.489   8.226  1.5738 -0.0634  1.0745
  179SOPE  C31020462   5.464   4.355   8.222 -0.7317 -0.1358  0.3573
  179SOPE  H10X20463   5.528   4.421   8.284  0.1828 -0.2492 -0.4380
  179SOPE  H10Y20464   5.532   4.298   8.155  1.1932  0.8852  1.3443
  179SOPE  C31120465   5.388   4.256   8.317  0.0819 -0.6992  0.1517
  179SOPE  H11X20466   5.316   4.210   8.247  0.5267 -1.1523 -0.0187
  179SOPE  H11Y20467   5.335   4.313   8.396 -0.5776  0.6234 -1.2010
  179SOPE  C31220468   5.487   4.148   8.361 -0.1152 -0.4057  0.4721
  179SOPE  H12X20469   5.586   4.194   8.382 -0.9682  1.5447  0.4882
  179SOPE  H12Y20470   5.507   4.085   8.271 -0.8979 -0.0249  0.0203
  179SOPE  C31320471   5.432   4.048   8.462  0.1809 -0.3509  0.3096
  179SOPE  H13X20472   5.437   4.087   8.566 -1.5682  0.6812  0.0538
  179SOPE  H13Y20473   5.507   3.966   8.454 -0.2403 -0.6861 -0.2443
  179SOPE  C31420474   5.287   3.998   8.433  0.0033 -0.2455  0.2353
  179SOPE  H14X20475   5.268   3.955   8.332 -2.4108  1.1900 -0.0008
  179SOPE  H14Y20476   5.209   4.076   8.442 -0.7898 -0.7381 -1.7856
  179SOPE  C31520477   5.247   3.889   8.528 -0.0107 -0.4927  0.2876
  179SOPE  H15X20478   5.281   3.906   8.633 -0.9616 -1.3585  0.7523
  179SOPE  H15Y20479   5.287   3.794   8.489 -0.5870 -0.6895  0.1624
  179SOPE  C31620480   5.095   3.877   8.539 -0.2311 -0.7240 -0.5271
  179SOPE  H16X20481   5.040   3.891   8.444 -1.3024 -0.2894  0.1274
  179SOPE  H16Y20482   5.059   3.967   8.595  1.8933 -0.2325  0.1394
  179SOPE  C31720483   5.033   3.755   8.616  0.0114 -0.7853  0.1551
  179SOPE  H17X20484   5.075   3.744   8.718  0.2228 -0.2964  0.1245
  179SOPE  H17Y20485   5.073   3.667   8.561  0.8550 -0.1198 -0.3211
  179SOPE  C31820486   4.878   3.756   8.609  0.2684  0.2996 -0.0437
  179SOPE  H18X20487   4.835   3.772   8.508 -0.8825  0.3313  0.4412
  179SOPE  H18Y20488   4.832   3.834   8.673  0.7855  0.4213  0.1888
  179SOPE  H18Z20489   4.846   3.655   8.644 -2.2683  0.8587 -0.5812
  180SOPE     N20490   5.136   3.786   6.127 -0.4474 -0.1352  0.0260
  180SOPE   HN120491   5.033   3.779   6.138 -0.8726 -0.9447 -3.4010
  180SOPE   HN220492   5.176   3.797   6.222 -1.4815  1.4016  0.3299
  180SOPE   HN320493   5.151   3.868   6.065  2.4735 -1.4207 -1.1566
  180SOPE   C1220494   5.176   3.658   6.068 -0.6968 -0.6359  0.1657
  180SOPE  H12A20495   5.282   3.665   6.037 -0.6095 -1.0732  0.3700
  180SOPE  H12B20496   5.109   3.642   5.980  0.1351  1.4976 -0.9369
  180SOPE   C1120497   5.152   3.554   6.181 -1.3503 -0.1482 -0.0751
  180SOPE  H11A20498   5.048   3.517   6.173 -1.1430 -0.7110 -0.1827
  180SOPE  H11B20499   5.161   3.611   6.276 -1.0443  1.5039 -1.0530
  180SOPE     P20500   5.399   3.462   6.216  0.1563 -0.0946 -0.2214
  180SOPE   O1320501   5.414   3.587   6.288  0.2189  0.2163 -0.5085
  180SOPE   O1420502   5.482   3.450   6.090  0.4388 -0.5822  0.1379
  180SOPE   O1220503   5.247   3.447   6.170 -0.5797  0.3780  0.2816
  180SOPE   O1120504   5.444   3.345   6.317  0.1221 -0.5315 -0.1542
  180SOPE    C120505   5.347   3.259   6.365 -0.1837 -0.1152  0.4334
  180SOPE    HA20506   5.297   3.206   6.281  0.4075  0.2773 -0.1777
  180SOPE    HB20507   5.271   3.322   6.417  0.1336  0.1879  0.5345
  180SOPE    C220508   5.408   3.159   6.467 -0.3187 -0.0058 -0.1234
  180SOPE    HS20509   5.324   3.118   6.527  0.0461 -2.5772 -1.2078
  180SOPE   O2120510   5.510   3.223   6.543  0.2075 -0.5526  0.3098
  180SOPE   C2120511   5.457   3.300   6.639 -0.2131 -0.7706 -0.6545
  180SOPE   O2220512   5.339   3.332   6.656 -0.3385  0.1947  0.0513
  180SOPE   C2220513   5.572   3.338   6.739 -0.3090  0.0029 -0.6819
  180SOPE   H2R20514   5.617   3.430   6.696 -1.4984  0.0402 -1.9320
  180SOPE   H2S20515   5.649   3.257   6.744  2.0077  2.1328  0.3955
  180SOPE    C320516   5.468   3.033   6.398  0.1343 -0.1948  0.1059
  180SOPE    HX20517   5.532   3.060   6.312  0.7566 -0.7611  0.3882
  180SOPE    HY20518   5.381   2.976   6.357  0.2725  0.7650 -1.6028
  180SOPE   O3120519   5.532   2.943   6.485  0.5736  0.0989  0.1083
  180SOPE   C3120520   5.656   2.976   6.513 -0.1790  0.5386  0.6385
  180SOPE   O3220521   5.732   3.056   6.458 -0.4491  0.8048 -0.1165
  180SOPE   C3220522   5.709   2.884   6.631 -0.0936 -0.3238  0.2093
  180SOPE   H2X20523   5.623   2.827   6.672  1.0596 -0.7914  2.1151
  180SOPE   H2Y20524   5.760   2.946   6.708 -0.5374 -0.9178  1.0073
  180SOPE   C2320525   5.501   3.375   6.876  0.1107  0.7315  0.9921
  180SOPE   H3R20526   5.434   3.295   6.913 -0.4830  0.6956 -0.1112
  180SOPE   H3S20527   5.424   3.454   6.863 -0.0280  0.5369  0.6074
  180SOPE   C2420528   5.592   3.403   6.991  0.5974 -0.5548  0.1649
  180SOPE   H4R20529   5.649   3.310   7.008  0.3742 -0.6158  0.6069
  180SOPE   H4S20530   5.659   3.484   6.955 -0.0297 -0.3292 -0.5141
  180SOPE   C2520531   5.529   3.437   7.131 -0.1464 -0.3997  0.2125
  180SOPE   H5R20532   5.470   3.530   7.113  0.4077 -0.2118 -0.6970
  180SOPE   H5S20533   5.461   3.352   7.155  0.1442 -0.3461  1.2792
  180SOPE   C2620534   5.632   3.447   7.242  0.2183  0.1817 -0.7178
  180SOPE   H6R20535   5.716   3.379   7.217  0.2962  1.0032 -2.9771
  180SOPE   H6S20536   5.672   3.550   7.251  1.1271 -0.2606  0.4531
  180SOPE   C2720537   5.579   3.395   7.380 -0.3230  0.4890 -0.0015
  180SOPE   H7R20538   5.477   3.431   7.404 -0.4796 -0.1450  0.3112
  180SOPE   H7S20539   5.567   3.285   7.374  0.7904  0.3194  0.6058
  180SOPE   C2820540   5.670   3.428   7.504 -0.9036 -0.2594  0.3056
  180SOPE   H8R20541   5.655   3.355   7.586 -0.3306 -1.4326 -0.5972
  180SOPE   H8S20542   5.769   3.393   7.467 -1.5554 -3.0119  0.9699
  180SOPE   C2920543   5.689   3.569   7.542 -0.4124 -1.0341 -0.9474
  180SOPE   H9120544   5.760   3.619   7.474  0.4699  0.6264  1.0997
  180SOPE  C21020545   5.626   3.633   7.650 -0.5906  0.5165 -0.4100
  180SOPE  H10120546   5.657   3.735   7.676  1.2877 -0.2521  0.5802
  180SOPE  C21120547   5.535   3.577   7.759  0.9163 -0.2689 -0.0844
  180SOPE  H11R20548   5.455   3.512   7.716 -0.6127  1.2784  0.2877
  180SOPE  H11S20549   5.496   3.667   7.811 -0.3306 -0.2720 -0.9628
  180SOPE  C21220550   5.606   3.493   7.871  0.2693 -0.5793 -0.1317
  180SOPE  H12R20551   5.682   3.551   7.927 -2.5371 -0.1244  3.6664
  180SOPE  H12S20552   5.655   3.403   7.828 -1.9745 -1.1334 -1.6848
  180SOPE  C21320553   5.504   3.453   7.976  0.6235 -0.0046 -0.0606
  180SOPE  H13R20554   5.414   3.408   7.929  1.0221  0.3374 -1.1657
  180SOPE  H13S20555   5.472   3.543   8.033  1.6709  1.3012 -1.4480
  180SOPE  C21420556   5.550   3.343   8.079 -0.0777 -0.2308 -0.0209
  180SOPE  H14R20557   5.646   3.376   8.126  1.2240 -1.2805 -1.8093
  180SOPE  H14S20558   5.556   3.244   8.029 -2.5264 -1.2613  1.5536
  180SOPE  C21520559   5.442   3.345   8.183 -0.0426  0.4780  0.3674
  180SOPE  H15R20560   5.338   3.338   8.145  0.2907 -2.0838 -0.2793
  180SOPE  H15S20561   5.451   3.443   8.234 -1.7392 -0.4981  2.7035
  180SOPE  C21620562   5.468   3.224   8.279 -0.4448  0.3109  0.8021
  180SOPE  H16R20563   5.569   3.235   8.324 -0.1444  0.6694  0.0518
  180SOPE  H16S20564   5.470   3.122   8.233  1.8996  0.9694 -0.7503
  180SOPE  C21720565   5.367   3.212   8.386  0.2059  1.0639 -0.5438
  180SOPE  H17R20566   5.275   3.186   8.329  1.5172  0.7821 -2.6537
  180SOPE  H17S20567   5.361   3.307   8.443  1.7794  0.6878  0.3107
  180SOPE  C21820568   5.392   3.093   8.486 -0.0062  0.3297  0.1395
  180SOPE  H18R20569   5.466   3.126   8.562  0.1477 -1.4009  0.7757
  180SOPE  H18S20570   5.428   3.004   8.430  0.1898  1.9360 -2.4663
  180SOPE  H18T20571   5.296   3.075   8.539  0.8201  0.5122  1.7574
  180SOPE   C3320572   5.806   2.779   6.580  0.8179  0.3311 -0.4559
  180SOPE   H3X20573   5.892   2.836   6.539  1.2531  0.7049  0.9199
  180SOPE   H3Y20574   5.766   2.725   6.492  2.3206 -2.4507  0.4236
  180SOPE   C3420575   5.839   2.682   6.692 -0.0599  0.2485 -0.6725
  180SOPE   H4X20576   5.746   2.649   6.744  0.1099  1.5541  0.5380
  180SOPE   H4Y20577   5.897   2.729   6.775 -2.9604  0.8385  1.1726
  180SOPE   C3520578   5.918   2.551   6.652  0.4070 -0.0236  0.3977
  180SOPE   H5X20579   6.012   2.601   6.620  0.0326 -0.0897 -0.8933
  180SOPE   H5Y20580   5.866   2.504   6.566  1.9796  2.2254 -1.9518
  180SOPE   C3620581   5.951   2.457   6.769  0.5335  0.7978 -0.3231
  180SOPE   H6X20582   5.868   2.388   6.797  1.7217 -0.4238  0.2479
  180SOPE   H6Y20583   5.994   2.501   6.862  1.5741 -1.6232  0.4115
  180SOPE   C3720584   6.056   2.360   6.726 -0.8315  0.2426  0.5293
  180SOPE   H7X20585   6.148   2.416   6.698 -0.7051  0.3963  1.2238
  180SOPE   H7Y20586   6.026   2.322   6.626  2.0955  2.2784 -1.2772
  180SOPE   C3820587   6.091   2.235   6.814  0.1723 -0.8513  0.9444
  180SOPE   H8X20588   6.169   2.178   6.759  0.9374  0.0365  1.0948
  180SOPE   H8Y20589   6.001   2.170   6.822 -1.2368  0.9290  0.1541
  180SOPE   C3920590   6.131   2.274   6.957  0.0772  0.8156 -0.4206
  180SOPE   H9X20591   6.045   2.309   7.017  0.6375 -0.7189  1.3494
  180SOPE   H9Y20592   6.202   2.358   6.972 -0.3393  0.8939  1.2932
  180SOPE  C31020593   6.180   2.152   7.039 -0.1948 -0.5370  0.0516
  180SOPE  H10X20594   6.289   2.132   7.040 -0.0906  0.0418  0.9006
  180SOPE  H10Y20595   6.122   2.061   7.010  0.4364 -0.4774 -1.4931
  180SOPE  C31120596   6.157   2.169   7.195 -0.2173 -0.5456 -0.1841
  180SOPE  H11X20597   6.185   2.075   7.248  1.0015  0.5339  1.1801
  180SOPE  H11Y20598   6.048   2.181   7.213 -0.3603  1.0466 -1.9355
  180SOPE  C31220599   6.235   2.284   7.257  0.3960 -0.2604  0.3587
  180SOPE  H12X20600   6.194   2.381   7.223  2.4433  0.2896 -0.6658
  180SOPE  H12Y20601   6.338   2.278   7.217 -0.5240 -1.4532 -2.0868
  180SOPE  C31320602   6.238   2.285   7.411  0.1631  0.5423 -0.7231
  180SOPE  H13X20603   6.234   2.393   7.437  0.5560  0.5160 -0.5373
  180SOPE  H13Y20604   6.333   2.240   7.449 -0.0717 -0.4581 -1.2975
  180SOPE  C31420605   6.117   2.221   7.485 -0.1736 -0.5365  0.0736
  180SOPE  H14X20606   6.086   2.122   7.446  1.0897 -0.9289  0.0247
  180SOPE  H14Y20607   6.036   2.296   7.473 -0.3312 -0.3240  2.0698
  180SOPE  C31520608   6.156   2.212   7.636  0.2623  0.1470 -0.8549
  180SOPE  H15X20609   6.187   2.315   7.663 -0.1992  0.2821 -0.8251
  180SOPE  H15Y20610   6.239   2.140   7.650 -0.1925 -0.2514 -0.1600
  180SOPE  C31620611   6.035   2.178   7.728  0.1727  0.1567 -0.7153
  180SOPE  H16X20612   5.989   2.078   7.713  3.0686 -1.2984 -0.5961
  180SOPE  H16Y20613   5.955   2.254   7.712 -0.0444 -0.0743 -0.7392
  180SOPE  C31720614   6.074   2.190   7.874 -0.1781 -0.2027  0.1124
  180SOPE  H17X20615   6.139   2.277   7.897  0.2612 -1.1114  2.7019
  180SOPE  H17Y20616   6.135   2.103   7.908  0.5202  0.3564  0.3018
  180SOPE  C31820617   5.953   2.196   7.965  0.6257 -0.4420  0.1798
  180SOPE  H18X20618   5.900   2.294   7.965  0.4062 -0.5545  0.9367
  180SOPE  H18Y20619   5.982   2.182   8.071  1.0554  1.7096  0.4037
  180SOPE  H18Z20620   5.872   2.123   7.943  1.4660 -1.2706 -0.1687
  181SOPE     N20621   6.128   1.891   6.132  0.5973 -0.0104  0.4904
  181SOPE   HN120622   6.103   1.796   6.096  1.9863 -0.5629  0.9053
  181SOPE   HN220623   6.224   1.881   6.170  2.0091  1.2571 -2.4151
  181SOPE   HN320624   6.062   1.920   6.206  0.2929 -0.3484  0.3598
  181SOPE   C1220625   6.133   1.998   6.028  0.1359 -0.3945 -0.0445
  181SOPE  H12A20626   6.206   1.965   5.950 -0.6798 -1.1346 -0.5059
  181SOPE  H12B20627   6.167   2.084   6.089 -0.7435  1.2285 -1.7353
  181SOPE   C1120628   5.994   2.037   5.974 -0.1272 -0.0587  0.1590
  181SOPE  H11A20629   5.961   1.950   5.914  4.1131 -0.5583 -1.7681
  181SOPE  H11B20630   6.009   2.123   5.905 -0.9357 -0.9589 -1.1979
  181SOPE     P20631   5.758   2.134   6.050  0.2622  0.1693  0.1359
  181SOPE   O1320632   5.655   2.032   5.996 -0.3627 -1.0113 -0.1399
  181SOPE   O1420633   5.793   2.237   5.954 -0.2574 -0.3902  0.1726
  181SOPE   O1220634   5.895   2.057   6.079  0.3200 -0.7080 -0.0802
  181SOPE   O1120635   5.704   2.179   6.196 -0.0623  0.1301  0.0610
  181SOPE    C120636   5.746   2.116   6.317 -0.2075  0.0678  0.2609
  181SOPE    HA20637   5.734   2.006   6.314  1.7782 -0.1680 -0.7512
  181SOPE    HB20638   5.689   2.157   6.403  2.0545  1.7757  1.0660
  181SOPE    C220639   5.893   2.145   6.348 -0.5780 -0.1249  0.3333
  181SOPE    HS20640   5.967   2.106   6.276 -0.0380 -1.3135  1.4928
  181SOPE   O2120641   5.928   2.103   6.483  0.0911  0.1731  0.8693
  181SOPE   C2120642   5.968   1.973   6.481  0.6221 -0.3079 -0.2355
  181SOPE   O2220643   5.986   1.911   6.378 -0.0225 -0.1662 -0.1389
  181SOPE   C2220644   5.982   1.923   6.622  0.1501 -0.5939 -0.0474
  181SOPE   H2R20645   6.049   1.991   6.678  2.1978 -0.6975 -2.2092
  181SOPE   H2S20646   6.045   1.831   6.620  1.2580  0.1497 -0.7085
  181SOPE    C320647   5.919   2.296   6.340 -0.1183  0.3007  0.8191
  181SOPE    HX20648   5.849   2.333   6.418 -1.6652  0.3471 -0.5352
  181SOPE    HY20649   5.909   2.345   6.241  1.7728  1.3497  1.1041
  181SOPE   O3120650   6.053   2.320   6.393 -0.6063  0.0600  0.7683
  181SOPE   C3120651   6.150   2.325   6.306  0.0604  0.4665 -0.1923
  181SOPE   O3220652   6.158   2.278   6.193  0.2655 -0.2699 -0.0217
  181SOPE   C3220653   6.273   2.359   6.385  0.3287  0.4948 -0.3212
  181SOPE   H2X20654   6.245   2.359   6.493  0.9680  1.4279 -0.1482
  181SOPE   H2Y20655   6.310   2.461   6.365  0.1060  0.7036  0.3246
  181SOPE   C2320656   5.846   1.897   6.695 -0.1561 -0.5143 -0.1052
  181SOPE   H3R20657   5.776   1.858   6.618 -0.4923  2.8841 -1.7382
  181SOPE   H3S20658   5.788   1.989   6.717 -2.3341 -0.8839 -3.4506
  181SOPE   C2420659   5.847   1.797   6.815  0.5546 -0.1394  0.8368
  181SOPE   H4R20660   5.754   1.736   6.801 -0.9847  2.2915 -0.2765
  181SOPE   H4S20661   5.934   1.729   6.818  0.1926 -0.5972  1.1390
  181SOPE   C2520662   5.824   1.876   6.941 -0.3323  0.2746  0.0247
  181SOPE   H5R20663   5.906   1.942   6.977  0.8785 -1.0015 -0.3195
  181SOPE   H5S20664   5.723   1.922   6.946 -0.2573  0.3779  0.7531
  181SOPE   C2620665   5.814   1.772   7.053 -0.3133 -0.4664  0.0803
  181SOPE   H6R20666   5.720   1.712   7.050  0.6467 -2.0150 -0.1983
  181SOPE   H6S20667   5.899   1.703   7.040  0.5299  0.2107  1.7839
  181SOPE   C2720668   5.840   1.813   7.196  0.9706 -0.5718  0.0263
  181SOPE   H7R20669   5.852   1.724   7.261  4.4978 -1.4986 -1.6887
  181SOPE   H7S20670   5.938   1.863   7.187  0.3540  0.7253  0.2684
  181SOPE   C2820671   5.734   1.905   7.260 -0.5178  0.4209  0.7054
  181SOPE   H8R20672   5.707   1.983   7.186  0.1748 -1.9976 -2.2761
  181SOPE   H8S20673   5.651   1.837   7.286  0.6909 -2.4649 -2.2586
  181SOPE   C2920674   5.796   1.970   7.382 -0.2799 -0.2077  0.4140
  181SOPE   H9120675   5.888   2.021   7.350 -0.3283  0.9305  1.9873
  181SOPE  C21020676   5.761   1.956   7.509 -0.0294 -0.2491  1.1634
  181SOPE  H10120677   5.829   1.991   7.588 -0.7670  3.8437  0.2076
  181SOPE  C21120678   5.640   1.879   7.561 -0.8916  0.0085  0.4945
  181SOPE  H11R20679   5.565   1.852   7.483 -1.6255  0.2217  1.1039
  181SOPE  H11S20680   5.578   1.949   7.622  0.1387  0.9240  0.5181
  181SOPE  C21220681   5.672   1.763   7.652  0.4029  1.0308 -0.8557
  181SOPE  H12R20682   5.743   1.701   7.593  1.0003  0.8836 -0.0054
  181SOPE  H12S20683   5.577   1.705   7.661  0.7583  0.4474 -0.7815
  181SOPE  C21320684   5.748   1.806   7.783  0.7185  0.8691  0.7886
  181SOPE  H13R20685   5.677   1.827   7.866  1.0025  0.4613  1.1367
  181SOPE  H13S20686   5.802   1.903   7.770 -0.0583  1.0662 -1.2584
  181SOPE  C21420687   5.845   1.696   7.824  0.2230  0.2910 -0.8579
  181SOPE  H14R20688   5.877   1.726   7.926 -0.0750 -1.0098 -0.3619
  181SOPE  H14S20689   5.931   1.679   7.755  1.2084 -0.5696  0.5035
  181SOPE  C21520690   5.779   1.549   7.832 -0.1941 -0.2235 -0.7026
  181SOPE  H15R20691   5.842   1.459   7.847 -0.0418  0.0886  0.6276
  181SOPE  H15S20692   5.728   1.522   7.737 -0.6485 -1.9838 -0.0012
  181SOPE  C21620693   5.665   1.543   7.940 -0.3119 -0.0741  0.3568
  181SOPE  H16R20694   5.611   1.452   7.905  2.0728 -1.2927 -0.4008
  181SOPE  H16S20695   5.609   1.639   7.943  0.6575  0.4912  0.6741
  181SOPE  C21720696   5.708   1.515   8.082  0.2607 -0.5931 -0.2608
  181SOPE  H17R20697   5.734   1.407   8.085 -0.0479 -0.6696 -0.3265
  181SOPE  H17S20698   5.631   1.538   8.158 -0.4654 -3.0120 -0.1861
  181SOPE  C21820699   5.843   1.578   8.132  0.4218  0.3095 -0.0821
  181SOPE  H18R20700   5.828   1.687   8.119  1.0808  0.1554 -2.7626
  181SOPE  H18S20701   5.927   1.540   8.071 -0.9453 -1.5687 -0.9018
  181SOPE  H18T20702   5.861   1.560   8.240 -1.3009 -1.9519 -0.0909
  181SOPE   C3320703   6.389   2.261   6.377 -0.3909 -0.5252  0.0503
  181SOPE   H3X20704   6.423   2.261   6.271 -1.9855 -2.7941 -0.5268
  181SOPE   H3Y20705   6.357   2.157   6.398 -1.0197 -1.3471 -4.0930
  181SOPE   C3420706   6.507   2.306   6.467  0.1903 -0.3086 -0.1577
  181SOPE   H4X20707   6.535   2.413   6.456  0.8747 -0.0224  3.1377
  181SOPE   H4Y20708   6.586   2.236   6.433 -1.2932 -1.6754 -0.9653
  181SOPE   C3520709   6.475   2.280   6.617 -0.2238 -0.5342 -0.0083
  181SOPE   H5X20710   6.444   2.173   6.625  0.2418 -0.7078 -0.4372
  181SOPE   H5Y20711   6.390   2.340   6.656  0.8131 -0.0690  1.6073
  181SOPE   C3620712   6.588   2.304   6.713 -1.0043 -0.2629  1.2149
  181SOPE   H6X20713   6.621   2.410   6.712 -0.2914 -0.4853  0.9071
  181SOPE   H6Y20714   6.674   2.241   6.681  0.8930  2.6639  0.1493
  181SOPE   C3720715   6.560   2.269   6.864  0.4152 -0.4300 -0.0482
  181SOPE   H7X20716   6.514   2.168   6.858  2.4593 -1.4282  0.0796
  181SOPE   H7Y20717   6.475   2.336   6.891  1.6683  1.1826  0.0434
  181SOPE   C3820718   6.680   2.301   6.950 -0.5016  0.1797 -0.1877
  181SOPE   H8X20719   6.728   2.399   6.930 -0.4812  0.7493  2.3204
  181SOPE   H8Y20720   6.756   2.220   6.953 -1.8561 -1.1574  3.7469
  181SOPE   C3920721   6.641   2.325   7.100 -0.5567  0.1984  0.2629
  181SOPE   H9X20722   6.546   2.381   7.106  0.2118  2.1169 -2.8347
  181SOPE   H9Y20723   6.727   2.387   7.132  0.6597  0.4616 -3.0880
  181SOPE  C31020724   6.638   2.194   7.174  0.2188  0.1365 -0.0217
  181SOPE  H10X20725   6.726   2.140   7.135  0.4839  0.8310 -0.4130
  181SOPE  H10Y20726   6.549   2.133   7.147  0.8756 -0.7290 -0.2650
  181SOPE  C31120727   6.645   2.196   7.319  0.0530 -0.7120  0.1338
  181SOPE  H11X20728   6.562   2.257   7.361  1.4030  1.1499  0.2084
  181SOPE  H11Y20729   6.733   2.256   7.348  0.2011 -1.7561  1.9933
  181SOPE  C31220730   6.666   2.067   7.394  0.9714  0.5982 -0.3244
  181SOPE  H12X20731   6.770   2.030   7.407  0.3394 -0.6406  1.5558
  181SOPE  H12Y20732   6.618   1.977   7.351 -1.2550  0.7361  1.6963
  181SOPE  C31320733   6.601   2.073   7.537 -0.0916  0.1554 -0.0585
  181SOPE  H13X20734   6.492   2.078   7.520 -0.2042 -1.7949 -0.1133
  181SOPE  H13Y20735   6.647   2.159   7.590  1.5152 -0.3292 -0.6029
  181SOPE  C31420736   6.618   1.949   7.623 -0.1566 -0.0634 -0.8370
  181SOPE  H14X20737   6.627   1.859   7.558  0.9724 -2.0623  1.8398
  181SOPE  H14Y20738   6.525   1.935   7.682 -0.1298  0.8699 -0.5616
  181SOPE  C31520739   6.739   1.955   7.726  0.5326  0.3330  0.2764
  181SOPE  H15X20740   6.727   2.047   7.787  0.8865  0.1418  0.6416
  181SOPE  H15Y20741   6.831   1.980   7.669  0.3080 -1.5972 -1.0293
  181SOPE  C31620742   6.751   1.830   7.812  0.3924  0.5673 -0.4569
  181SOPE  H16X20743   6.849   1.785   7.785 -0.2258 -0.1356 -1.6138
  181SOPE  H16Y20744   6.665   1.761   7.797 -1.4015  2.1619  1.6994
  181SOPE  C31720745   6.761   1.867   7.959  0.6106  0.3551 -0.2529
  181SOPE  H17X20746   6.743   1.777   8.022 -0.1451  0.7875  0.1570
  181SOPE  H17Y20747   6.668   1.925   7.975  0.5378  0.3380 -0.6138
  181SOPE  C31820748   6.883   1.949   8.000  0.3199 -0.2960  0.5102
  181SOPE  H18X20749   6.881   2.032   7.926  1.7317 -0.1255  0.6380
  181SOPE  H18Y20750   6.975   1.889   7.983 -0.8851 -1.8908 -0.8277
  181SOPE  H18Z20751   6.878   1.987   8.104  0.5871  0.8559  0.1136
  182SOPE     N20752   6.577   1.477   6.166  0.6067 -0.4179 -1.1012
  182SOPE   HN120753   6.576   1.536   6.080 -2.6528 -0.9774 -1.5964
  182SOPE   HN220754   6.673   1.442   6.185  1.1419  2.1485  1.5562
  182SOPE   HN320755   6.525   1.388   6.149 -1.3464  0.6254 -0.8044
  182SOPE   C1220756   6.513   1.530   6.292  0.1562  0.2775 -0.4025
  182SOPE  H12A20757   6.511   1.446   6.365  4.2177 -0.0912 -0.4960
  182SOPE  H12B20758   6.407   1.559   6.272  0.6011 -0.1753 -4.2803
  182SOPE   C1120759   6.585   1.652   6.343  0.7862 -0.4048  0.3667
  182SOPE  H11A20760   6.687   1.610   6.357 -0.0795 -1.9207  3.0113
  182SOPE  H11B20761   6.545   1.673   6.445  0.4521  1.0516 -0.0425
  182SOPE     P20762   6.507   1.891   6.291 -0.3524  0.1336  0.3747
  182SOPE   O1320763   6.367   1.846   6.274 -0.2007 -0.2089 -0.3251
  182SOPE   O1420764   6.551   2.007   6.214  0.9705  0.0205  1.0505
  182SOPE   O1220765   6.592   1.764   6.252 -0.6666  0.4418  0.6212
  182SOPE   O1120766   6.536   1.931   6.447 -0.4903 -0.0354  0.8816
  182SOPE    C120767   6.674   1.937   6.498  0.0741  0.8543 -0.9022
  182SOPE    HA20768   6.696   2.044   6.518 -0.5053  0.8098  0.0687
  182SOPE    HB20769   6.759   1.903   6.435 -0.7173 -1.6695 -0.7182
  182SOPE    C220770   6.687   1.875   6.640 -0.1064  0.0592  0.0601
  182SOPE    HS20771   6.693   1.764   6.633  0.8343 -0.0012  1.3146
  182SOPE   O2120772   6.582   1.909   6.733 -0.1907  0.4328 -0.0765
  182SOPE   C2120773   6.471   1.853   6.719  0.0377  0.2873  0.7200
  182SOPE   O2220774   6.449   1.756   6.647  0.4872 -0.3160 -0.1142
  182SOPE   C2220775   6.364   1.921   6.805 -0.4346  0.2929  0.5542
  182SOPE   H2R20776   6.288   1.954   6.730  0.5076 -0.5651 -0.8298
  182SOPE   H2S20777   6.406   2.007   6.861  1.1069 -0.4789  0.6339
  182SOPE    C320778   6.828   1.918   6.702  0.4941 -0.1006 -0.7781
  182SOPE    HX20779   6.843   2.022   6.666  3.7153 -0.4010 -0.5760
  182SOPE    HY20780   6.901   1.847   6.657 -1.6286 -0.9778 -3.0703
  182SOPE   O3120781   6.841   1.932   6.849 -0.4185 -0.2915  0.1189
  182SOPE   C3120782   6.860   1.818   6.913  0.3999 -0.6603  0.1733
  182SOPE   O3220783   6.858   1.709   6.864  0.6438  0.5170 -0.5935
  182SOPE   C3220784   6.877   1.847   7.063 -0.0530 -0.8787 -0.1354
  182SOPE   H2X20785   6.805   1.925   7.094  0.0554 -0.1662 -1.5992
  182SOPE   H2Y20786   6.974   1.900   7.074 -0.9604  1.0188 -0.7932
  182SOPE   C2320787   6.303   1.817   6.906  0.2405 -0.1508 -0.2885
  182SOPE   H3R20788   6.298   1.723   6.847 -1.9179  0.8230 -1.7710
  182SOPE   H3S20789   6.200   1.846   6.933  0.7702  1.9430 -0.3377
  182SOPE   C2420790   6.383   1.805   7.034 -0.0508  0.4847 -0.5266
  182SOPE   H4R20791   6.492   1.783   7.023 -0.1810  0.3466 -1.6407
  182SOPE   H4S20792   6.377   1.901   7.090  1.2225  0.4121 -0.2365
  182SOPE   C2520793   6.351   1.682   7.121  0.5114  0.5898 -0.4758
  182SOPE   H5R20794   6.251   1.637   7.101 -0.2815  2.5400 -1.1305
  182SOPE   H5S20795   6.416   1.597   7.092 -1.5621 -0.5540 -2.0630
  182SOPE   C2620796   6.360   1.696   7.274  0.1264 -0.0546  0.3804
  182SOPE   H6R20797   6.351   1.593   7.315  2.6049  0.1502  1.6153
  182SOPE   H6S20798   6.463   1.729   7.302  0.1034 -0.9148  1.5900
  182SOPE   C2720799   6.255   1.780   7.346 -0.4687 -0.1851  0.5973
  182SOPE   H7R20800   6.280   1.882   7.310  0.3018 -0.5033  0.1943
  182SOPE   H7S20801   6.150   1.750   7.326 -0.4022 -0.9390  1.3744
  182SOPE   C2820802   6.287   1.791   7.500  0.3801  0.7305 -0.7897
  182SOPE   H8R20803   6.289   1.687   7.540  0.3601  1.6854  1.8762
  182SOPE   H8S20804   6.385   1.839   7.519  0.6543  0.1751 -0.7845
  182SOPE   C2920805   6.183   1.858   7.590  0.1663  0.2957  0.8811
  182SOPE   H9120806   6.124   1.929   7.530 -0.5544 -2.2351 -1.6712
  182SOPE  C21020807   6.159   1.834   7.717  0.5161 -0.4954 -0.4273
  182SOPE  H10120808   6.071   1.880   7.764  0.3867  0.2020 -1.3226
  182SOPE  C21120809   6.225   1.736   7.804  0.6384 -0.2307 -0.2793
  182SOPE  H11R20810   6.308   1.690   7.747  0.6807  0.0093 -0.4139
  182SOPE  H11S20811   6.158   1.651   7.828 -1.1429  1.4680  1.1736
  182SOPE  C21220812   6.280   1.797   7.936 -0.4478 -0.2387  0.0154
  182SOPE  H12R20813   6.352   1.879   7.918 -0.6641 -0.3381 -1.3752
  182SOPE  H12S20814   6.334   1.712   7.984 -1.9730 -1.0425  0.3647
  182SOPE  C21320815   6.160   1.841   8.028 -0.7862 -0.3109  0.1771
  182SOPE  H13R20816   6.097   1.753   8.052 -0.8583 -0.4184 -0.4010
  182SOPE  H13S20817   6.096   1.909   7.967  0.1340  1.9780  1.6256
  182SOPE  C21420818   6.204   1.908   8.159  0.5440  0.0444  0.0547
  182SOPE  H14R20819   6.258   1.999   8.126  1.3454 -0.5692 -0.3709
  182SOPE  H14S20820   6.277   1.848   8.217 -1.4287  0.4797  3.2022
  182SOPE  C21520821   6.081   1.941   8.236  0.2906 -0.2736 -0.3130
  182SOPE  H15R20822   6.028   1.854   8.281  1.5197 -0.8640  0.0529
  182SOPE  H15S20823   6.015   1.995   8.165 -0.7941 -0.2605  0.6699
  182SOPE  C21620824   6.098   2.050   8.344 -0.1397  0.2908 -0.1046
  182SOPE  H16R20825   6.133   2.151   8.312  0.9335 -0.1131 -0.2713
  182SOPE  H16S20826   6.186   2.025   8.407  0.2774 -0.1277 -0.8300
  182SOPE  C21720827   5.973   2.067   8.429  0.4408 -0.4702  0.2804
  182SOPE  H17R20828   5.886   2.080   8.360  0.7653 -0.7672 -0.1883
  182SOPE  H17S20829   5.980   2.164   8.483 -0.3749  0.6557 -1.5343
  182SOPE  C21820830   5.956   1.953   8.526 -0.0733  0.5235  0.0608
  182SOPE  H18R20831   5.867   1.959   8.591  0.3383 -0.2658  0.7139
  182SOPE  H18S20832   6.041   1.927   8.592 -1.8951 -2.2404  1.5113
  182SOPE  H18T20833   5.934   1.857   8.473 -0.1370 -0.2180  1.3972
  182SOPE   C3320834   6.879   1.716   7.140 -0.1972 -0.5685 -0.3169
  182SOPE   H3X20835   6.962   1.651   7.104 -0.1943 -0.3159 -0.7806
  182SOPE   H3Y20836   6.787   1.658   7.117 -1.4386  0.4338  1.9331
  182SOPE   C3420837   6.895   1.734   7.296 -0.1241 -0.3211 -0.2621
  182SOPE   H4X20838   6.798   1.777   7.331  0.1554  1.5060 -1.5572
  182SOPE   H4Y20839   6.984   1.797   7.318 -0.6800  0.1311  0.8139
  182SOPE   C3520840   6.902   1.593   7.361 -0.2384 -0.1778 -0.1148
  182SOPE   H5X20841   6.995   1.541   7.330 -1.1599 -2.1417  0.2604
  182SOPE   H5Y20842   6.809   1.546   7.323  0.1814 -0.7417 -0.4723
  182SOPE   C3620843   6.890   1.584   7.515  0.0857 -0.1646 -0.2279
  182SOPE   H6X20844   6.788   1.610   7.550 -0.1148 -1.8068  0.4856
  182SOPE   H6Y20845   6.957   1.656   7.566  0.9997 -1.4365  0.4324
  182SOPE   C3720846   6.915   1.441   7.559  0.0758 -0.5993 -0.1345
  182SOPE   H7X20847   7.012   1.409   7.515 -1.3273 -1.5454 -2.7382
  182SOPE   H7Y20848   6.836   1.371   7.523 -1.5047  0.5013  1.0538
  182SOPE   C3820849   6.931   1.435   7.716  0.5988  0.2843  0.9368
  182SOPE   H8X20850   6.924   1.328   7.745  0.2939  0.1638  0.4227
  182SOPE   H8Y20851   6.852   1.493   7.768  1.2961 -1.0453  3.6666
  182SOPE   C3920852   7.069   1.488   7.768  0.5794  0.6241  0.5699
  182SOPE   H9X20853   7.094   1.588   7.725 -2.4099  1.1435 -0.1329
  182SOPE   H9Y20854   7.147   1.426   7.717 -1.8331 -0.4837 -2.0302
  182SOPE  C31020855   7.096   1.463   7.917 -0.4575  0.3585  0.1871
  182SOPE  H10X20856   7.205   1.459   7.936 -0.6112 -3.0234  1.0135
  182SOPE  H10Y20857   7.066   1.359   7.939  0.8757 -0.5163 -1.9183
  182SOPE  C31120858   7.039   1.566   8.010 -0.0307 -0.0392 -0.9567
  182SOPE  H11X20859   6.929   1.571   8.025 -0.0855 -2.0715 -0.4443
  182SOPE  H11Y20860   7.052   1.666   7.964  0.4377  0.0056 -0.7345
  182SOPE  C31220861   7.091   1.546   8.149  0.7528  0.6651 -0.9505
  182SOPE  H12X20862   7.192   1.503   8.135  1.4884  2.4547 -1.4588
  182SOPE  H12Y20863   7.027   1.471   8.200  2.9413  0.8916  2.4478
  182SOPE  C31320864   7.084   1.670   8.236 -0.3298 -0.5768 -0.3798
  182SOPE  H13X20865   6.980   1.692   8.269 -0.0910 -0.9599  0.6725
  182SOPE  H13Y20866   7.117   1.758   8.177 -0.4117  1.4625  2.4160
  182SOPE  C31420867   7.171   1.662   8.368 -0.1882  0.0039 -0.2372
  182SOPE  H14X20868   7.275   1.638   8.338 -0.7517 -0.3268 -2.0997
  182SOPE  H14Y20869   7.136   1.578   8.431  2.5667  1.2795  3.3035
  182SOPE  C31520870   7.170   1.790   8.453  0.5808  0.2932  0.4063
  182SOPE  H15X20871   7.069   1.802   8.497  0.9958 -0.6320  1.6469
  182SOPE  H15Y20872   7.189   1.872   8.379  1.4741  1.4522  1.8671
  182SOPE  C31620873   7.272   1.791   8.565 -0.2006  0.1432  0.1393
  182SOPE  H16X20874   7.379   1.798   8.536 -0.3311  1.3131 -0.0982
  182SOPE  H16Y20875   7.268   1.697   8.625  1.4993  1.2259  2.1085
  182SOPE  C31720876   7.245   1.915   8.656  0.2479  0.1727 -0.2645
  182SOPE  H17X20877   7.136   1.915   8.680 -0.0779 -3.7520 -1.0094
  182SOPE  H17Y20878   7.267   2.004   8.593 -1.6477 -0.5840 -2.1007
  182SOPE  C31820879   7.323   1.937   8.782 -0.1883  0.0242 -0.2497
  182SOPE  H18X20880   7.307   2.042   8.812 -0.2264  0.8138 -2.8306
  182SOPE  H18Y20881   7.430   1.929   8.755 -0.5119  0.7729 -1.9041
  182SOPE  H18Z20882   7.296   1.874   8.870 -2.8493  0.4805 -0.6408
  183SOPE     N20883   2.931   6.754   6.198  0.8604 -0.0382 -0.2884
  183SOPE   HN120884   3.033   6.741   6.210  0.9152 -1.3093 -1.8643
  183SOPE   HN220885   2.899   6.832   6.260  0.4951 -2.1886  2.4475
  183SOPE   HN320886   2.872   6.675   6.232  0.2291  0.1992 -0.8056
  183SOPE   C1220887   2.888   6.755   6.054 -0.4231  0.0908 -0.0534
  183SOPE  H12A20888   2.939   6.667   6.009  1.3326  1.3128 -0.5873
  183SOPE  H12B20889   2.908   6.859   6.018 -0.2045  0.1408  0.2107
  183SOPE   C1120890   2.737   6.746   6.047  0.0247  0.3635 -1.0678
  183SOPE  H11A20891   2.699   6.643   6.055 -0.7616  0.6630 -0.8571
  183SOPE  H11B20892   2.712   6.778   5.944  1.3066  1.1211 -1.1621
  183SOPE     P20893   2.528   6.804   6.195  0.0036  0.2179  0.3125
  183SOPE   O1320894   2.452   6.711   6.109 -0.3201 -0.7793  0.0929
  183SOPE   O1420895   2.462   6.935   6.219 -0.2227 -0.0742 -0.0061
  183SOPE   O1220896   2.668   6.841   6.128  0.4626 -0.0907 -0.8768
  183SOPE   O1120897   2.565   6.732   6.329  0.4537 -0.8179  0.5278
  183SOPE    C120898   2.467   6.681   6.422  0.3634 -0.9681  0.6201
  183SOPE    HA20899   2.530   6.637   6.502  1.5366  0.9283  0.8034
  183SOPE    HB20900   2.401   6.604   6.377 -0.9163  0.6732 -0.4466
  183SOPE    C220901   2.361   6.781   6.491 -0.4029 -0.6189  0.2519
  183SOPE    HS20902   2.298   6.828   6.413 -0.8694  0.1818  1.0962
  183SOPE   O2120903   2.433   6.880   6.565 -0.3546  0.4454 -0.5310
  183SOPE   C2120904   2.358   6.989   6.597 -0.3724  0.0771 -0.4644
  183SOPE   O2220905   2.247   7.014   6.548 -0.6846  0.2585 -0.1686
  183SOPE   C2220906   2.434   7.076   6.696 -0.1977 -0.3604 -0.4548
  183SOPE   H2R20907   2.529   7.118   6.658 -0.0471  0.0525  0.3606
  183SOPE   H2S20908   2.453   7.010   6.784  0.3922  0.6943  0.2220
  183SOPE    C320909   2.270   6.700   6.593 -0.4173 -0.3595  0.1316
  183SOPE    HX20910   2.201   6.637   6.533 -0.8895  0.7808 -0.5566
  183SOPE    HY20911   2.204   6.773   6.645 -1.1507 -0.1220 -1.1048
  183SOPE   O3120912   2.338   6.616   6.694 -0.2565  0.1857 -0.8716
  183SOPE   C3120913   2.366   6.665   6.814  0.3143  0.1697  0.6844
  183SOPE   O3220914   2.349   6.781   6.849 -0.2226  0.7583 -0.3277
  183SOPE   C3220915   2.411   6.562   6.915  0.4922  0.2340  0.3499
  183SOPE   H2X20916   2.498   6.520   6.860 -0.1034  0.4515 -0.7987
  183SOPE   H2Y20917   2.326   6.493   6.934 -0.6428  0.9468 -1.7601
  183SOPE   C2320918   2.352   7.191   6.764 -0.2144  0.3784 -0.3729
  183SOPE   H3R20919   2.250   7.148   6.763  0.2179 -0.7658  1.0717
  183SOPE   H3S20920   2.368   7.275   6.693 -0.4992 -1.3485 -2.5660
  183SOPE   C2420921   2.393   7.226   6.909  0.1958  0.0454  0.8993
  183SOPE   H4R20922   2.489   7.282   6.908  0.9157 -1.1551  1.1856
  183SOPE   H4S20923   2.322   7.307   6.937  0.3983  0.1820  1.0228
  183SOPE   C2520924   2.381   7.129   7.021 -0.3382 -0.2153  0.2793
  183SOPE   H5R20925   2.282   7.077   7.026  0.2598 -1.5877 -1.2942
  183SOPE   H5S20926   2.448   7.045   6.995  2.4930  1.7133  0.9444
  183SOPE   C2620927   2.414   7.203   7.153  0.0330 -0.5231  0.4592
  183SOPE   H6R20928   2.522   7.227   7.157  1.1586 -3.8692 -3.1382
  183SOPE   H6S20929   2.351   7.294   7.162  2.9211  1.5075  1.3035
  183SOPE   C2720930   2.378   7.131   7.284 -0.1031 -0.1471  0.0484
  183SOPE   H7R20931   2.275   7.089   7.276 -0.5350  0.6604  1.0672
  183SOPE   H7S20932   2.448   7.048   7.305 -1.6833 -1.0739  2.0264
  183SOPE   C2820933   2.365   7.220   7.406  0.1059  0.7007  0.5121
  183SOPE   H8R20934   2.319   7.319   7.386  2.4698  1.9637  0.9617
  183SOPE   H8S20935   2.309   7.162   7.482  0.4835  1.4753  1.4051
  183SOPE   C2920936   2.498   7.269   7.449  0.1787  0.9796 -0.3474
  183SOPE   H9120937   2.562   7.320   7.376  1.2127  0.6190  0.2995
  183SOPE  C21020938   2.547   7.245   7.574 -0.2644  0.6652 -0.4319
  183SOPE  H10120939   2.649   7.281   7.595  0.5221 -0.6823 -1.7547
  183SOPE  C21120940   2.485   7.172   7.692  0.3024  0.0395 -0.2782
  183SOPE  H11R20941   2.536   7.074   7.704 -0.2253 -0.4771 -1.9275
  183SOPE  H11S20942   2.379   7.149   7.668  0.0053  0.1716  0.8586
  183SOPE  C21220943   2.480   7.248   7.822  0.8731  1.0433  0.1003
  183SOPE  H12R20944   2.405   7.330   7.821 -1.3194 -0.7467  3.0751
  183SOPE  H12S20945   2.585   7.278   7.841  1.0389 -0.2909  1.4862
  183SOPE  C21320946   2.453   7.147   7.935  0.8132 -0.4427  0.3090
  183SOPE  H13R20947   2.525   7.064   7.922  2.5989  1.1173 -0.1509
  183SOPE  H13S20948   2.354   7.096   7.928  0.6726 -0.1965  0.5103
  183SOPE  C21420949   2.474   7.204   8.077  0.7701 -0.4758 -0.1057
  183SOPE  H14R20950   2.421   7.301   8.077 -1.9583 -1.8309 -1.5295
  183SOPE  H14S20951   2.581   7.214   8.104  1.4022  1.2792 -2.8897
  183SOPE  C21520952   2.404   7.118   8.183  0.1317 -0.7126  0.3827
  183SOPE  H15R20953   2.463   7.023   8.182 -3.1059 -2.8768  0.7063
  183SOPE  H15S20954   2.298   7.093   8.165 -0.3532  0.8981  0.8235
  183SOPE  C21620955   2.407   7.188   8.322 -0.5245 -0.2850 -0.2589
  183SOPE  H16R20956   2.385   7.295   8.305 -1.0795 -0.5634 -1.4471
  183SOPE  H16S20957   2.513   7.183   8.353 -0.5182  2.5658  0.4831
  183SOPE  C21720958   2.334   7.115   8.439 -0.6891 -0.0182 -0.4319
  183SOPE  H17R20959   2.367   7.009   8.444 -0.3940  0.1338  1.4485
  183SOPE  H17S20960   2.225   7.118   8.419 -1.0758  1.9567  1.5766
  183SOPE  C21820961   2.357   7.181   8.579 -0.1883 -0.2429 -0.5886
  183SOPE  H18R20962   2.324   7.287   8.572 -2.0925 -0.7746 -0.0799
  183SOPE  H18S20963   2.463   7.164   8.607  0.1718  0.8248 -1.2460
  183SOPE  H18T20964   2.287   7.117   8.636  0.4771 -1.2128 -0.8317
  183SOPE   C3320965   2.445   6.628   7.052 -0.1340  0.3115 -0.8496
  183SOPE   H3X20966   2.352   6.674   7.091 -0.1783 -0.2189 -0.3067
  183SOPE   H3Y20967   2.522   6.707   7.042  0.1258  0.2732  0.5897
  183SOPE   C3420968   2.509   6.533   7.157 -0.4575  1.4143 -0.1623
  183SOPE   H4X20969   2.615   6.510   7.131 -1.0898 -0.9447 -0.8536
  183SOPE   H4Y20970   2.455   6.437   7.157  0.1726  1.0382  1.0991
  183SOPE   C3520971   2.506   6.593   7.298  0.0205 -0.4284  0.4949
  183SOPE   H5X20972   2.402   6.601   7.337 -0.9120 -3.5937 -1.0158
  183SOPE   H5Y20973   2.563   6.689   7.300 -1.9168  0.7854  0.8973
  183SOPE   C3620974   2.573   6.491   7.393  0.7075  0.1138 -0.4294
  183SOPE   H6X20975   2.674   6.458   7.361  0.1630  0.1631 -2.3304
  183SOPE   H6Y20976   2.500   6.407   7.390  1.4408 -0.5429 -0.3673
  183SOPE   C3720977   2.589   6.538   7.538  0.9536 -0.5090  0.0490
  183SOPE   H7X20978   2.604   6.648   7.535 -2.4833  0.0710  0.6904
  183SOPE   H7Y20979   2.675   6.493   7.591  0.4202  0.3025  1.6725
  183SOPE   C3820980   2.448   6.528   7.608  0.4019  0.3847 -0.1395
  183SOPE   H8X20981   2.417   6.422   7.606  0.5515  0.3145  0.9306
  183SOPE   H8Y20982   2.384   6.593   7.544  0.4046 -0.0472 -0.5907
  183SOPE   C3920983   2.437   6.575   7.756  0.2127  0.2718  1.3052
  183SOPE   H9X20984   2.339   6.561   7.807  1.1813  0.1921  3.2292
  183SOPE   H9Y20985   2.452   6.683   7.735  0.9558 -0.4676 -2.8162
  183SOPE  C31020986   2.541   6.499   7.845  0.6039 -0.4973  0.2907
  183SOPE  H10X20987   2.640   6.513   7.798  1.3710  0.4027  2.0959
  183SOPE  H10Y20988   2.506   6.394   7.854 -0.7037 -0.1064  0.1147
  183SOPE  C31120989   2.548   6.562   7.988  0.3257  0.0721  0.0580
  183SOPE  H11X20990   2.448   6.579   8.034 -0.5176 -1.3576 -1.1659
  183SOPE  H11Y20991   2.598   6.661   7.985  0.0459  0.3539  2.5694
  183SOPE  C31220992   2.643   6.480   8.077 -0.5995 -0.4175  0.4260
  183SOPE  H12X20993   2.685   6.550   8.153 -1.4184  1.1794 -0.5381
  183SOPE  H12Y20994   2.727   6.445   8.014 -1.6963 -1.5978 -0.4241
  183SOPE  C31320995   2.589   6.356   8.141  0.1675 -0.3784  0.2035
  183SOPE  H13X20996   2.535   6.301   8.060 -0.0097  1.2057 -0.8014
  183SOPE  H13Y20997   2.514   6.387   8.217  0.6739 -1.4971  1.1891
  183SOPE  C31420998   2.708   6.274   8.215  0.2466 -0.3430 -0.7543
  183SOPE  H14X20999   2.776   6.246   8.132 -2.5093 -2.1704 -2.5625
  183SOPE  H14Y21000   2.668   6.175   8.247 -1.0064  0.5315  0.5109
  183SOPE  C31521001   2.779   6.328   8.341 -0.0342 -0.5171 -0.3359
  183SOPE  H15X21002   2.851   6.406   8.308 -1.7157  0.9585 -0.6595
  183SOPE  H15Y21003   2.848   6.248   8.376  2.5853  1.4869 -0.6733
  183SOPE  C31621004   2.680   6.372   8.449 -0.4806 -0.2695 -0.6430
  183SOPE  H16X21005   2.606   6.292   8.467  0.6593 -1.4616 -1.0551
  183SOPE  H16Y21006   2.622   6.459   8.413  1.8082  0.7234 -2.2253
  183SOPE  C31721007   2.745   6.424   8.583  0.6277 -0.6202 -0.3144
  183SOPE  H17X21008   2.787   6.525   8.563 -1.0054 -0.2570 -2.2293
  183SOPE  H17Y21009   2.838   6.371   8.614  1.7699  0.3981 -1.8863
  183SOPE  C31821010   2.655   6.430   8.706  0.8188  0.1294 -0.4080
  183SOPE  H18X21011   2.577   6.509   8.707  0.1971 -0.4633  0.7265
  183SOPE  H18Y21012   2.718   6.444   8.797 -1.2601 -2.0918  1.5486
  183SOPE  H18Z21013   2.592   6.339   8.718 -0.5253  1.0882  0.1104
  184SOPE     N21014   1.214   0.393   6.164 -0.1813  0.1451  0.7090
  184SOPE   HN121015   1.214   0.420   6.063  2.5458  4.5375  1.6133
  184SOPE   HN221016   1.298   0.438   6.204 -0.0676  1.4090 -0.8343
  184SOPE   HN321017   1.221   0.290   6.171 -0.7752  0.0732  0.3057
  184SOPE   C1221018   1.087   0.441   6.238 -0.1331  0.4877  0.1080
  184SOPE  H12A21019   1.082   0.551   6.255 -0.9654  0.6510 -1.0497
  184SOPE  H12B21020   1.085   0.393   6.338 -3.9436  1.0994  0.4706
  184SOPE   C1121021   0.970   0.382   6.156 -0.5514 -0.0565  0.9172
  184SOPE  H11A21022   0.994   0.401   6.049 -1.8802 -3.3690 -0.0843
  184SOPE  H11B21023   0.881   0.443   6.183 -0.2770  1.1723 -0.7496
  184SOPE     P21024   0.844   0.155   6.117  0.1039 -0.1546  0.1485
  184SOPE   O1321025   0.834   0.025   6.185  0.7187  0.4686 -0.3885
  184SOPE   O1421026   0.884   0.149   5.976  0.3846  0.0512  0.7958
  184SOPE   O1221027   0.948   0.244   6.189  0.5092  1.2464  0.1564
  184SOPE   O1121028   0.711   0.249   6.135 -0.0800  0.5434 -0.1789
  184SOPE    C121029   0.628   0.229   6.250  0.2333 -0.3235  0.3443
  184SOPE    HA21030   0.640   0.129   6.297  0.9617 -0.7038 -0.6247
  184SOPE    HB21031   0.523   0.231   6.215 -0.2551  0.5622  1.7510
  184SOPE    C221032   0.663   0.331   6.364  0.0366 -0.3302 -0.4137
  184SOPE    HS21033   0.774   0.339   6.359 -0.1022  1.2789 -2.5390
  184SOPE   O2121034   0.609   0.293   6.496 -0.1022 -0.4053  0.7395
  184SOPE   C2121035   0.682   0.198   6.555  0.2427  0.2812 -0.2290
  184SOPE   O2221036   0.781   0.144   6.509 -0.0280 -0.3887 -0.2664
  184SOPE   C2221037   0.620   0.159   6.688 -0.1440  0.2754  0.1301
  184SOPE   H2R21038   0.652   0.055   6.708  0.2760 -0.1214 -2.3539
  184SOPE   H2S21039   0.510   0.174   6.683 -0.1946  0.7642  1.9290
  184SOPE    C321040   0.626   0.472   6.324  0.1635 -0.9186  0.5115
  184SOPE    HX21041   0.519   0.472   6.294  0.5176 -0.8520 -0.7844
  184SOPE    HY21042   0.677   0.501   6.230 -2.7367 -0.4480 -1.0421
  184SOPE   O3121043   0.632   0.564   6.435  0.1692  0.2617  0.1363
  184SOPE   C3121044   0.731   0.656   6.429  0.2408  0.2688 -0.5175
  184SOPE   O3221045   0.794   0.682   6.328  0.5234  0.2172  0.2663
  184SOPE   C3221046   0.751   0.734   6.559  0.0177 -0.5509 -0.3287
  184SOPE   H2X21047   0.795   0.834   6.539 -0.0518 -0.6642 -1.0702
  184SOPE   H2Y21048   0.817   0.670   6.620  0.1681  0.4628  0.6040
  184SOPE   C2321049   0.673   0.251   6.792  0.0934  0.1169 -0.5954
  184SOPE   H3R21050   0.634   0.353   6.769  0.7075  0.2388 -1.1432
  184SOPE   H3S21051   0.784   0.252   6.787  0.1451 -0.9421  0.0832
  184SOPE   C2421052   0.632   0.205   6.933  0.7635  0.3153 -0.2353
  184SOPE   H4R21053   0.526   0.171   6.937  0.8951 -0.0343  0.4659
  184SOPE   H4S21054   0.685   0.109   6.952  0.4262  0.1014 -0.3729
  184SOPE   C2521055   0.658   0.305   7.050 -0.3536 -0.6770  0.0414
  184SOPE   H5R21056   0.764   0.335   7.059 -0.5307  0.3337 -0.9639
  184SOPE   H5S21057   0.609   0.402   7.024 -1.8263 -1.8188 -1.7730
  184SOPE   C2621058   0.601   0.241   7.185  0.3865  0.5310  0.3032
  184SOPE   H6R21059   0.498   0.202   7.169 -0.0397  2.1113 -1.0528
  184SOPE   H6S21060   0.662   0.150   7.205 -1.9092 -1.1208  0.1207
  184SOPE   C2721061   0.600   0.325   7.311 -0.4415 -0.0008 -0.4314
  184SOPE   H7R21062   0.544   0.417   7.280 -2.3114 -1.0791 -0.4363
  184SOPE   H7S21063   0.542   0.276   7.392  1.3393  2.4093  2.5263
  184SOPE   C2821064   0.734   0.370   7.377  0.5702  0.2210 -0.3260
  184SOPE   H8R21065   0.770   0.269   7.405 -4.2412 -1.6199  0.1879
  184SOPE   H8S21066   0.802   0.403   7.295  1.1479 -0.7496 -0.2531
  184SOPE   C2921067   0.733   0.471   7.486  0.4806  0.0289  0.2453
  184SOPE   H9121068   0.720   0.575   7.452  1.0380  0.9463  2.6466
  184SOPE  C21021069   0.745   0.448   7.617  0.4020 -0.3094 -0.2495
  184SOPE  H10121070   0.753   0.530   7.690  1.4504 -1.5430  1.0708
  184SOPE  C21121071   0.768   0.313   7.682  0.1240  0.5357  0.5393
  184SOPE  H11R21072   0.846   0.316   7.760 -0.1387  1.1632  0.7817
  184SOPE  H11S21073   0.807   0.242   7.605 -1.3398 -0.6908  0.8817
  184SOPE  C21221074   0.639   0.248   7.741 -0.6335  0.0202 -0.7118
  184SOPE  H12R21075   0.657   0.140   7.758 -1.3161  0.2945  2.2902
  184SOPE  H12S21076   0.561   0.245   7.662 -2.5267  0.9430  1.0215
  184SOPE  C21321077   0.594   0.315   7.869  0.0260  0.2868 -0.2925
  184SOPE  H13R21078   0.544   0.412   7.849 -1.7216 -0.6538 -0.7406
  184SOPE  H13S21079   0.683   0.337   7.932 -1.4582  3.4401  0.9200
  184SOPE  C21421080   0.491   0.222   7.945  0.8882 -1.0000 -0.6222
  184SOPE  H14R21081   0.520   0.115   7.936 -2.3876 -1.9082 -1.9869
  184SOPE  H14S21082   0.392   0.235   7.895  1.6512  2.1353 -1.5179
  184SOPE  C21521083   0.481   0.259   8.095 -0.5677 -0.1960 -0.0595
  184SOPE  H15R21084   0.480   0.369   8.110  2.0190 -0.0115 -0.8279
  184SOPE  H15S21085   0.577   0.228   8.142  0.1915  1.0260 -0.7486
  184SOPE  C21621086   0.365   0.196   8.182 -0.1423 -0.1281 -0.1438
  184SOPE  H16R21087   0.263   0.223   8.146 -0.2363 -0.8078 -0.3866
  184SOPE  H16S21088   0.388   0.244   8.280 -0.7595  0.8537 -0.4577
  184SOPE  C21721089   0.379   0.046   8.187 -0.0137  0.5581 -0.5821
  184SOPE  H17R21090   0.484   0.023   8.216  0.1444 -2.6082 -3.0927
  184SOPE  H17S21091   0.367   0.000   8.087 -0.1273  0.9171 -0.7323
  184SOPE  C21821092   0.284  -0.014   8.283  0.1197  0.0085 -0.7732
  184SOPE  H18R21093   0.317   0.016   8.385 -0.2988  0.9395 -0.9030
  184SOPE  H18S21094   0.273  -0.125   8.285  1.0774 -0.1872  3.7157
  184SOPE  H18T21095   0.185   0.035   8.276  1.2883  2.9200  1.2970
  184SOPE   C3321096   0.614   0.766   6.625 -0.2720  0.5943 -0.6919
  184SOPE   H3X21097   0.560   0.674   6.654  1.5727 -0.0866  0.7228
  184SOPE   H3Y21098   0.554   0.822   6.550 -0.6472  1.0018 -0.0975
  184SOPE   C3421099   0.624   0.853   6.753 -0.2222 -0.5282 -0.2146
  184SOPE   H4X21100   0.527   0.882   6.799  0.9373 -0.4735  2.3615
  184SOPE   H4Y21101   0.681   0.946   6.732 -0.2736 -0.8931 -2.2028
  184SOPE   C3521102   0.685   0.771   6.866 -0.1932  0.7485  0.0408
  184SOPE   H5X21103   0.794   0.762   6.849 -0.6526 -0.9384 -2.4497
  184SOPE   H5Y21104   0.651   0.666   6.863 -1.5133  1.1695 -0.9272
  184SOPE   C3621105   0.657   0.836   7.003 -0.2852  0.5350 -0.2461
  184SOPE   H6X21106   0.548   0.821   7.015 -0.0245 -4.9434 -1.8052
  184SOPE   H6Y21107   0.686   0.942   6.993  0.4116  0.2271 -1.8051
  184SOPE   C3721108   0.725   0.776   7.125  0.3831  0.1175  0.2341
  184SOPE   H7X21109   0.833   0.801   7.126  0.0301  2.1872 -1.9910
  184SOPE   H7Y21110   0.711   0.668   7.145  2.9849 -0.4501 -0.6042
  184SOPE   C3821111   0.665   0.841   7.257  0.6705 -0.0013  0.0266
  184SOPE   H8X21112   0.571   0.785   7.274 -0.0027  1.8365  2.9833
  184SOPE   H8Y21113   0.639   0.946   7.232  0.3562 -0.5071 -1.9273
  184SOPE   C3921114   0.761   0.835   7.372 -0.4621  0.5557  0.2926
  184SOPE   H9X21115   0.843   0.902   7.337  0.3589 -1.1512 -1.2113
  184SOPE   H9Y21116   0.813   0.737   7.371  0.3132  0.9493 -1.3173
  184SOPE  C31021117   0.713   0.895   7.502 -0.0838 -0.3523 -1.0041
  184SOPE  H10X21118   0.645   0.820   7.549  0.2508  0.2009  0.4050
  184SOPE  H10Y21119   0.640   0.975   7.477 -2.5101 -1.4522  1.9272
  184SOPE  C31121120   0.828   0.931   7.598  0.1283 -0.3403  0.0026
  184SOPE  H11X21121   0.898   1.008   7.559  0.4137 -0.5449  0.1070
  184SOPE  H11Y21122   0.893   0.843   7.617  0.1906 -0.2405  0.2585
  184SOPE  C31221123   0.767   0.968   7.733  0.2664  0.8290  0.3320
  184SOPE  H12X21124   0.687   1.044   7.720 -0.4877  0.4437  2.3414
  184SOPE  H12Y21125   0.853   1.012   7.788  2.0647  0.5951 -2.1032
  184SOPE  C31321126   0.699   0.853   7.813  0.0369 -0.2132 -0.3194
  184SOPE  H13X21127   0.614   0.812   7.754 -2.5343 -1.9574  4.1370
  184SOPE  H13Y21128   0.658   0.910   7.899  0.4445  1.4805 -1.2019
  184SOPE  C31421129   0.806   0.765   7.866  0.2680  0.4291  0.2247
  184SOPE  H14X21130   0.876   0.825   7.928  0.7562  0.5336 -0.4200
  184SOPE  H14Y21131   0.865   0.702   7.795  0.9992 -1.7498  2.6193
  184SOPE  C31521132   0.756   0.650   7.953 -0.4967  0.4462 -0.0919
  184SOPE  H15X21133   0.847   0.600   7.992 -0.1348  2.1027  1.3281
  184SOPE  H15Y21134   0.701   0.573   7.896  1.2684  0.0005 -1.2766
  184SOPE  C31621135   0.672   0.697   8.070  0.4424  0.3584 -0.1001
  184SOPE  H16X21136   0.564   0.700   8.043 -0.0134 -2.1467  1.1398
  184SOPE  H16Y21137   0.713   0.794   8.103  0.3480  0.7705 -1.1365
  184SOPE  C31721138   0.688   0.605   8.189 -0.5143 -0.4870  0.3650
  184SOPE  H17X21139   0.796   0.608   8.218 -0.6394  1.2279  0.7735
  184SOPE  H17Y21140   0.666   0.503   8.150 -0.7290  0.4341 -2.0848
  184SOPE  C31821141   0.608   0.638   8.322  0.0036 -0.7394 -0.1009
  184SOPE  H18X21142   0.500   0.645   8.296  0.3693 -0.3477 -1.6472
  184SOPE  H18Y21143   0.630   0.741   8.358 -1.4377 -1.0107  1.7196
  184SOPE  H18Z21144   0.616   0.557   8.397 -3.7018 -0.8962  0.3069
  185SAPI   C1221145   3.918   3.605  11.287 -0.8386 -0.2269 -0.0717
  185SAPI    H221146   3.868   3.658  11.203  3.3729  1.8504 -1.5616
  185SAPI    O221147   4.042   3.674  11.284 -0.0393 -0.9167  0.0633
  185SAPI   HO221148   4.022   3.768  11.285  0.8414 -0.7240 -0.0472
  185SAPI   C1321149   3.849   3.633  11.424  0.4582  0.4981 -0.2949
  185SAPI    H321150   3.752   3.580  11.428 -0.0025  1.3299 -0.3176
  185SAPI    O321151   3.812   3.768  11.453  0.4123 -0.4790  0.4521
  185SAPI   HO321152   3.730   3.774  11.503  0.7292  1.9161  0.8218
  185SAPI   C1421153   3.939   3.574  11.541 -0.5142  0.2475 -0.2388
  185SAPI    H421154   4.029   3.639  11.553 -0.8644  0.4713  1.3672
  185SAPI    O421155   3.870   3.586  11.665 -0.5368 -0.1078 -0.0816
  185SAPI   HO421156   3.796   3.526  11.665  0.2234 -1.0641  0.2308
  185SAPI   C1521157   3.976   3.423  11.515  0.4525  0.0377  0.3980
  185SAPI    H521158   3.887   3.359  11.527  0.8437 -0.9045 -1.4134
  185SAPI    O521159   4.076   3.392  11.614  0.3553 -0.0901  0.2705
  185SAPI   HO521160   4.031   3.343  11.683  2.4760 -1.1671  0.9807
  185SAPI   C1621161   4.032   3.403  11.374  0.2856  0.7380 -0.1125
  185SAPI    H621162   4.133   3.446  11.359  0.5394 -0.3594 -1.8367
  185SAPI    O621163   4.044   3.258  11.358  0.1290  0.4663  0.0828
  185SAPI   HO621164   3.992   3.236  11.281  1.0295  1.4151 -0.8198
  185SAPI   C1121165   3.939   3.454  11.265  0.5653 -0.2380 -0.2809
  185SAPI    H121166   3.843   3.400  11.278 -0.2527  0.6444 -2.2331
  185SAPI     P21167   3.936   3.303  11.046  0.1227  0.0693 -0.3446
  185SAPI   O1321168   3.907   3.189  11.136  0.0249  0.0702  0.5535
  185SAPI   O1421169   4.014   3.277  10.926 -1.0080  0.0591  0.7865
  185SAPI   O1221170   3.990   3.425  11.135 -0.0687 -0.0986 -1.0530
  185SAPI   O1121171   3.792   3.346  11.005  0.7624 -0.3516  0.1148
  185SAPI    C121172   3.752   3.478  10.956  0.1285  0.5616 -0.4891
  185SAPI    HA21173   3.659   3.500  11.013 -0.8759 -0.2254 -1.7597
  185SAPI    HB21174   3.836   3.547  10.977  1.5188 -0.9928 -0.7711
  185SAPI    C221175   3.718   3.485  10.802  0.3277 -0.0740 -0.0958
  185SAPI    HS21176   3.619   3.440  10.782 -1.5300  3.5548  0.1091
  185SAPI   O2121177   3.838   3.442  10.721  0.2640  0.2631 -0.1279
  185SAPI   C2121178   3.944   3.526  10.726 -0.6229  0.3913 -0.2438
  185SAPI   O2221179   3.950   3.622  10.802  0.1937  0.2438 -0.3253
  185SAPI   C2221180   4.057   3.480  10.640 -0.4400 -0.2740  0.3195
  185SAPI   H2R21181   4.150   3.525  10.682 -0.5115 -0.9243  1.2146
  185SAPI   H2S21182   4.075   3.371  10.653  3.3769  0.0046 -1.2599
  185SAPI    C321183   3.666   3.631  10.768 -0.3792 -0.3375  0.1249
  185SAPI    HX21184   3.727   3.718  10.800 -0.6697  0.2799 -0.9686
  185SAPI    HY21185   3.567   3.634  10.820 -0.2275 -1.4106  0.4974
  185SAPI   O3121186   3.653   3.645  10.621 -0.6658  0.7074 -0.0907
  185SAPI   C3121187   3.551   3.705  10.573  0.3215 -0.2880 -0.3019
  185SAPI   O3221188   3.453   3.751  10.632 -0.1309 -0.0737 -0.2381
  185SAPI   C3221189   3.561   3.711  10.423  0.3401  0.1138  0.6055
  185SAPI   H2X21190   3.478   3.775  10.385  1.8993  2.6680  1.2807
  185SAPI   H2Y21191   3.542   3.616  10.370 -1.0847  1.1035 -0.7571
  185SAPI   C2321192   4.031   3.525  10.489 -0.5438  0.2690  0.8008
  185SAPI   H3R21193   3.933   3.486  10.456  0.0343  0.0768 -0.7889
  185SAPI   H3S21194   4.105   3.474  10.423 -0.0313  1.0897  0.7271
  185SAPI   C2421195   4.057   3.673  10.470  0.0075 -0.0092  0.5547
  185SAPI   H4R21196   3.999   3.717  10.554 -0.9269 -1.6970  0.8430
  185SAPI   H4S21197   4.011   3.705  10.373 -0.2919 -0.7370  0.4499
  185SAPI   C2521198   4.203   3.709  10.469 -0.4390 -0.5762 -0.0437
  185SAPI   H5R21199   4.258   3.700  10.564  0.6038  1.7830 -0.3532
  185SAPI   C2621200   4.275   3.750  10.360  0.6411  1.1056 -0.6327
  185SAPI   H6R21201   4.385   3.753  10.370  0.6629 -0.9933  0.3184
  185SAPI   C2721202   4.231   3.768  10.215 -0.7132  0.3661  0.6591
  185SAPI   H7R21203   4.257   3.871  10.184 -1.8101  0.2303 -0.8492
  185SAPI   H7S21204   4.120   3.757  10.211 -0.6819 -0.0366 -4.3904
  185SAPI   C2821205   4.273   3.673  10.110 -0.0996  0.0499  0.0681
  185SAPI   H8R21206   4.335   3.586  10.134  2.4523  1.6725 -0.2930
  185SAPI   C2921207   4.248   3.690   9.976  0.0450 -0.2215 -0.1901
  185SAPI   H9R21208   4.279   3.609   9.908 -2.5910  1.0909 -3.2166
  185SAPI  C21021209   4.170   3.795   9.904  0.5807 -0.0706  0.5116
  185SAPI  H10R21210   4.093   3.816   9.982  0.1761  0.6384 -0.0665
  185SAPI  H10S21211   4.125   3.761   9.808  1.1744  0.2433  0.1130
  185SAPI  C21121212   4.248   3.924   9.879 -0.3936  0.1766 -0.1042
  185SAPI  H11R21213   4.319   3.945   9.960 -0.3424  0.7536 -0.2933
  185SAPI  C21221214   4.249   4.005   9.772  0.3424 -0.2791  0.5182
  185SAPI  H12R21215   4.335   4.074   9.766 -0.7261  0.9469 -1.3950
  185SAPI  C21321216   4.174   3.995   9.639  0.2042  0.1557  0.7742
  185SAPI  H13R21217   4.192   4.080   9.569  1.6223 -1.8104 -1.4073
  185SAPI  H13S21218   4.065   4.000   9.660  0.4358  0.5295  1.9691
  185SAPI  C21421219   4.199   3.868   9.555 -1.0620 -0.0115 -0.7628
  185SAPI  H14R21220   4.259   3.793   9.610 -0.5190  0.8075 -0.2161
  185SAPI  C21521221   4.150   3.835   9.434 -0.2182 -0.2732  0.0554
  185SAPI  H15R21222   4.178   3.745   9.376  2.0104 -0.1074  0.7897
  185SAPI  C21621223   4.067   3.927   9.357 -0.2905  0.0355 -0.5241
  185SAPI  H16R21224   4.022   4.002   9.425 -0.4225  1.4863 -2.1368
  185SAPI  H16S21225   3.983   3.875   9.307 -1.6845 -0.2613  1.9659
  185SAPI  C21721226   4.152   4.009   9.257  0.5925  0.0898 -0.6586
  185SAPI  H17R21227   4.204   3.948   9.180 -0.3193  1.5498 -2.4846
  185SAPI  H17S21228   4.236   4.063   9.306 -1.0927  2.2529 -0.0165
  185SAPI  C21821229   4.064   4.121   9.193 -0.1760  0.3983  0.1157
  185SAPI  H18R21230   4.045   4.200   9.269 -0.4888  0.6790 -0.2492
  185SAPI  H18S21231   3.962   4.092   9.157 -0.9589  3.1301 -0.0586
  185SAPI  C21921232   4.123   4.197   9.073 -0.1843  0.1987  0.4355
  185SAPI  H19R21233   4.199   4.137   9.018  0.2018  1.9143 -1.0099
  185SAPI  H19S21234   4.180   4.286   9.107  2.0097 -1.7238  2.0759
  185SAPI  C22021235   4.011   4.226   8.972 -0.5992  0.7801  0.2446
  185SAPI  H20R21236   3.917   4.272   9.007 -0.7024  1.6130 -1.0398
  185SAPI  H20S21237   3.979   4.136   8.915 -0.0038  1.5688 -1.4338
  185SAPI  H20T21238   4.041   4.293   8.888 -0.6240  0.0772 -0.3312
  185SAPI   C3321239   3.696   3.788  10.387 -0.0917  0.7348 -0.9332
  185SAPI   H3X21240   3.785   3.731  10.420 -1.2619 -0.2967  0.5636
  185SAPI   H3Y21241   3.680   3.877  10.451  0.4413 -0.9874  1.7233
  185SAPI   C3421242   3.699   3.825  10.249 -0.8694 -0.4262  0.5162
  185SAPI   H4X21243   3.751   3.923  10.242  0.1178 -0.8800  1.2922
  185SAPI   H4Y21244   3.599   3.824  10.200 -0.3319 -3.9755 -0.8710
  185SAPI   C3521245   3.776   3.724  10.163  0.2952 -0.0031  0.4349
  185SAPI   H5X21246   3.706   3.639  10.145  1.9767 -1.4518  0.4565
  185SAPI   H5Y21247   3.871   3.690  10.210  1.8200  2.4637 -0.6391
  185SAPI   C3621248   3.808   3.792  10.025 -0.4888  0.1464  0.8528
  185SAPI   H6X21249   3.902   3.851  10.029 -0.0701 -0.0646 -2.5408
  185SAPI   H6Y21250   3.719   3.849   9.994 -0.8671 -0.1239  1.4374
  185SAPI   C3721251   3.822   3.701   9.900 -0.1435 -0.1073  0.8482
  185SAPI   H7X21252   3.742   3.625   9.910  0.2122 -0.5350  0.4627
  185SAPI   H7Y21253   3.923   3.655   9.902 -0.6876 -1.3519  3.0580
  185SAPI   C3821254   3.805   3.774   9.755 -0.0426  0.2195 -0.1551
  185SAPI   H8X21255   3.901   3.825   9.736 -0.1046  0.3531 -0.1092
  185SAPI   H8Y21256   3.722   3.847   9.771  1.3097  1.4709  1.4138
  185SAPI   C3921257   3.780   3.677   9.639  0.6089  0.5857  0.2811
  185SAPI   H9X21258   3.709   3.597   9.667 -0.6889  0.9178 -1.7951
  185SAPI   H9Y21259   3.877   3.635   9.604 -0.4626 -1.0930 -0.8359
  185SAPI  C31021260   3.720   3.745   9.512 -0.5399 -0.2143  0.3736
  185SAPI  H10X21261   3.802   3.790   9.452 -2.9499  0.6815 -2.4779
  185SAPI  H10Y21262   3.652   3.832   9.525  0.7950  0.8735  0.3186
  185SAPI  C31121263   3.655   3.640   9.417  0.0353 -0.1172  0.1935
  185SAPI  H11X21264   3.583   3.579   9.475 -0.8377 -0.1196 -0.8617
  185SAPI  H11Y21265   3.727   3.568   9.372  0.5084 -0.3442  1.2672
  185SAPI  C31221266   3.563   3.715   9.317 -0.1986  0.6954 -0.1652
  185SAPI  H12X21267   3.630   3.768   9.246  1.6253 -1.0501  0.1524
  185SAPI  H12Y21268   3.506   3.784   9.382  0.7466  0.3945  1.0283
  185SAPI  C31321269   3.455   3.630   9.253 -0.2708 -0.0916  0.5628
  185SAPI  H13X21270   3.378   3.599   9.327 -0.4939  1.0078  0.8009
  185SAPI  H13Y21271   3.495   3.535   9.210 -2.4278 -1.5997  1.7375
  185SAPI  C31421272   3.406   3.687   9.116  0.2510 -0.0578 -0.2605
  185SAPI  H14X21273   3.493   3.693   9.046 -0.6433  0.6229 -1.3444
  185SAPI  H14Y21274   3.382   3.791   9.147 -1.2592 -0.6970  0.8568
  185SAPI  C31521275   3.293   3.610   9.055 -0.4330 -0.0760 -0.2310
  185SAPI  H15X21276   3.217   3.603   9.135 -0.8306 -0.9654 -0.6752
  185SAPI  H15Y21277   3.333   3.510   9.029  0.3788  0.2951 -0.4475
  185SAPI  C31621278   3.236   3.676   8.924  0.3345  0.0255 -0.8921
  185SAPI  H16X21279   3.197   3.779   8.939 -0.8101 -0.7761  2.4114
  185SAPI  H16Y21280   3.151   3.611   8.895 -1.7181  2.3126 -0.3103
  185SAPI  C31721281   3.344   3.675   8.818  0.1801  0.4263  0.4005
  185SAPI  H17X21282   3.409   3.587   8.835 -0.1951  0.0091 -0.2846
  185SAPI  H17Y21283   3.407   3.764   8.840  3.3007 -1.9034  1.5872
  185SAPI  C31821284   3.293   3.677   8.669  0.7211 -0.1028  0.7901
  185SAPI  H18X21285   3.251   3.578   8.642 -0.5996  0.7314 -0.3712
  185SAPI  H18Y21286   3.382   3.703   8.607  1.4629  4.0322  3.1930
  185SAPI  H18Z21287   3.206   3.744   8.650 -0.1822 -1.3310  0.4647
  186SAPI   C1221288   5.635   1.843  11.195  0.2043 -0.1449  0.1302
  186SAPI    H221289   5.638   1.892  11.095 -0.4784  1.2783  0.7823
  186SAPI    O221290   5.767   1.813  11.221 -0.1878  0.2646  0.1517
  186SAPI   HO221291   5.801   1.810  11.131  0.4650  2.2357  0.2855
  186SAPI   C1321292   5.560   1.926  11.295 -0.3886 -0.0734  0.6250
  186SAPI    H321293   5.456   1.942  11.261 -0.0322 -0.3185 -0.6484
  186SAPI    O321294   5.615   2.051  11.309 -0.0795 -0.2558 -0.3190
  186SAPI   HO321295   5.706   2.034  11.336  0.8018  1.4954 -2.0108
  186SAPI   C1421296   5.558   1.849  11.431 -0.2179 -0.2979  0.0055
  186SAPI    H421297   5.664   1.828  11.458  0.1312 -0.8110 -1.6595
  186SAPI    O421298   5.506   1.932  11.533 -0.0986  0.1391 -0.9168
  186SAPI   HO421299   5.437   1.980  11.486 -0.5097  0.1594 -0.3084
  186SAPI   C1521300   5.484   1.720  11.425 -0.3360  0.5666  1.1422
  186SAPI    H521301   5.377   1.740  11.405 -0.2230 -0.2726 -0.4771
  186SAPI    O521302   5.487   1.641  11.544  0.0649  0.6001  0.2228
  186SAPI   HO521303   5.570   1.656  11.591  0.1266 -0.5593  0.5268
  186SAPI   C1621304   5.538   1.636  11.305  0.2662  0.0941 -0.2250
  186SAPI    H621305   5.642   1.607  11.330 -0.0949 -2.7456 -1.6577
  186SAPI    O621306   5.462   1.514  11.293 -0.9356  0.3288  0.0561
  186SAPI   HO621307   5.377   1.533  11.252 -1.2892  3.2250  1.8494
  186SAPI   C1121308   5.549   1.715  11.173 -0.6675 -0.1686 -0.0329
  186SAPI    H121309   5.453   1.769  11.156  0.3290  1.8119  0.3579
  186SAPI     P21310   5.475   1.602  10.933 -0.2218 -0.1453  0.1701
  186SAPI   O1321311   5.354   1.685  10.951 -0.3214  0.1691 -0.5011
  186SAPI   O1421312   5.464   1.456  10.921  0.3614 -0.6995  0.2403
  186SAPI   O1221313   5.582   1.639  11.057 -0.0714  0.7074  0.5358
  186SAPI   O1121314   5.549   1.660  10.802 -0.1380  0.1150  0.2394
  186SAPI    C121315   5.486   1.641  10.673 -0.7121  0.0685  0.2631
  186SAPI    HA21316   5.377   1.662  10.678 -0.4338  2.3644 -1.5600
  186SAPI    HB21317   5.516   1.721  10.602  1.7701 -0.5947  0.4753
  186SAPI    C221318   5.525   1.505  10.604  0.3245 -0.4122 -0.3254
  186SAPI    HS21319   5.500   1.427  10.679  0.7865 -0.6650 -0.4304
  186SAPI   O2121320   5.668   1.497  10.586 -0.0002  0.5529 -0.1758
  186SAPI   C2121321   5.710   1.390  10.528  0.2108 -0.3779 -0.1355
  186SAPI   O2221322   5.642   1.288  10.534 -0.6869  0.4237 -0.3923
  186SAPI   C2221323   5.837   1.405  10.468 -0.5214 -0.2534  0.2198
  186SAPI   H2R21324   5.836   1.501  10.412 -0.7434 -1.2159 -1.4806
  186SAPI   H2S21325   5.912   1.391  10.548 -1.4740 -1.8937  0.8606
  186SAPI    C321326   5.449   1.499  10.465  0.2899  0.0456  0.1741
  186SAPI    HX21327   5.351   1.550  10.476  0.0462 -0.1786 -0.7850
  186SAPI    HY21328   5.426   1.391  10.454 -1.2969  0.3220  0.6077
  186SAPI   O3121329   5.535   1.554  10.355  0.3447 -0.0712  0.2601
  186SAPI   C3121330   5.497   1.669  10.300  0.4635  0.2559 -0.1984
  186SAPI   O3221331   5.399   1.734  10.337 -0.0658  0.5162 -0.0164
  186SAPI   C3221332   5.604   1.707  10.198  0.4035  0.1688  0.3760
  186SAPI   H2X21333   5.704   1.694  10.245  0.1908  0.1934  0.8424
  186SAPI   H2Y21334   5.602   1.818  10.197 -1.9954  0.1597  0.0026
  186SAPI   C2321335   5.867   1.287  10.367  0.0905 -0.1912 -0.2182
  186SAPI   H3R21336   5.860   1.194  10.427 -1.2255 -1.1889 -1.8351
  186SAPI   H3S21337   5.977   1.294  10.353  0.1075  2.6531  0.6978
  186SAPI   C2421338   5.785   1.288  10.241 -0.4244 -0.0245  0.9032
  186SAPI   H4R21339   5.788   1.391  10.200  1.9661 -0.0193  0.9533
  186SAPI   H4S21340   5.679   1.267  10.265 -0.9516  1.9866  0.4934
  186SAPI   C2521341   5.844   1.189  10.146 -0.0123  0.1286 -0.2781
  186SAPI   H5R21342   5.862   1.086  10.180  1.0832  0.8132  1.3151
  186SAPI   C2621343   5.867   1.206  10.014  0.7701 -0.2817 -0.2440
  186SAPI   H6R21344   5.924   1.135   9.951  1.0697 -0.2560 -0.0090
  186SAPI   C2721345   5.843   1.331   9.931  0.0613  0.4560  0.7914
  186SAPI   H7R21346   5.772   1.396   9.988  0.1877  0.0528  1.4088
  186SAPI   H7S21347   5.779   1.308   9.843 -0.3850 -1.5888  1.6029
  186SAPI   C2821348   5.957   1.407   9.882 -0.1180 -0.9288  0.1857
  186SAPI   H8R21349   6.007   1.473   9.954 -0.3927  1.1938 -1.4692
  186SAPI   C2921350   5.997   1.408   9.755 -0.2408 -0.2513 -0.1400
  186SAPI   H9R21351   6.096   1.454   9.752 -0.9483  1.4711  1.2696
  186SAPI  C21021352   5.946   1.331   9.638  0.0507  0.1477  0.1007
  186SAPI  H10R21353   5.847   1.368   9.601  0.9303  0.3396 -2.2592
  186SAPI  H10S21354   5.943   1.222   9.658  1.0276  0.4263  1.8870
  186SAPI  C21121355   6.036   1.332   9.518 -0.1831 -0.5050 -0.3450
  186SAPI  H11R21356   6.135   1.289   9.538  0.8442  1.3046 -1.2732
  186SAPI  C21221357   6.020   1.397   9.399  0.5782 -0.6095  0.5302
  186SAPI  H12R21358   6.108   1.393   9.333  0.6439  0.6689  0.5214
  186SAPI  C21321359   5.908   1.481   9.347  0.2564  0.3680  0.6647
  186SAPI  H13R21360   5.954   1.569   9.296  0.9625 -1.4441 -2.0641
  186SAPI  H13S21361   5.853   1.524   9.433 -3.3513 -0.9280 -0.8306
  186SAPI  C21421362   5.821   1.398   9.254  0.4758 -0.0206  0.4005
  186SAPI  H14R21363   5.759   1.317   9.293  0.6931 -0.8407 -0.8925
  186SAPI  C21521364   5.823   1.407   9.118  0.3559 -0.8019 -0.1364
  186SAPI  H15R21365   5.753   1.340   9.066  1.6516 -2.0522 -0.3118
  186SAPI  C21621366   5.904   1.498   9.036  0.3882 -0.3047  0.0719
  186SAPI  H16R21367   6.000   1.446   9.015 -0.1194 -1.7510  1.2249
  186SAPI  H16S21368   5.915   1.605   9.064 -1.4408  1.2092 -4.1395
  186SAPI  C21721369   5.836   1.508   8.897 -0.6370 -0.2219 -0.6155
  186SAPI  H17R21370   5.737   1.550   8.926 -1.9345 -3.2833 -0.2266
  186SAPI  H17S21371   5.812   1.412   8.846  1.4951 -0.8393 -0.5415
  186SAPI  C21821372   5.912   1.585   8.786 -0.7318  0.1747 -0.5702
  186SAPI  H18R21373   5.985   1.651   8.836 -1.6927  1.6143 -1.0021
  186SAPI  H18S21374   5.840   1.655   8.738 -0.4777  0.9750  0.1944
  186SAPI  C21921375   5.984   1.507   8.675  0.5621  0.0624  0.3048
  186SAPI  H19R21376   6.046   1.420   8.705  0.2795 -1.2669 -2.6545
  186SAPI  H19S21377   6.056   1.577   8.627 -0.9480  1.2651 -0.2943
  186SAPI  C22021378   5.895   1.453   8.558 -0.5828 -0.1882  0.3900
  186SAPI  H20R21379   5.826   1.378   8.601 -2.1425  0.2893 -1.1768
  186SAPI  H20S21380   5.960   1.401   8.485  1.8841  2.2537  0.6638
  186SAPI  H20T21381   5.837   1.524   8.496  1.2682  0.3412 -0.8221
  186SAPI   C3321382   5.583   1.641  10.064  0.1494 -0.2174  0.0494
  186SAPI   H3X21383   5.476   1.641  10.031  0.8898  0.6973 -2.5899
  186SAPI   H3Y21384   5.605   1.532  10.056  1.3649  0.1223 -2.1518
  186SAPI   C3421385   5.651   1.718   9.948  0.0166 -0.3467 -0.1439
  186SAPI   H4X21386   5.751   1.672   9.932  0.5657  0.1552  1.6421
  186SAPI   H4Y21387   5.675   1.823   9.973  1.8916 -0.7406 -0.1468
  186SAPI   C3521388   5.572   1.704   9.821  0.1050 -0.1935 -0.5784
  186SAPI   H5X21389   5.500   1.788   9.817  2.0350  1.8006  2.1229
  186SAPI   H5Y21390   5.517   1.608   9.813  0.6835 -0.4906 -1.0536
  186SAPI   C3621391   5.657   1.710   9.692 -0.0360  0.4248 -0.6457
  186SAPI   H6X21392   5.735   1.631   9.697 -1.2230 -0.6777  2.3920
  186SAPI   H6Y21393   5.702   1.811   9.705 -1.8304  0.9372  2.4486
  186SAPI   C3721394   5.579   1.723   9.562 -0.3108  0.0553  0.7027
  186SAPI   H7X21395   5.495   1.794   9.579 -0.5151  0.0472 -0.1885
  186SAPI   H7Y21396   5.549   1.623   9.523 -0.6304  0.0645  0.9239
  186SAPI   C3821397   5.660   1.793   9.457 -0.2991 -0.0934 -0.5114
  186SAPI   H8X21398   5.750   1.728   9.451 -3.0154 -4.3468  0.2466
  186SAPI   H8Y21399   5.687   1.896   9.488  0.9710 -0.1452 -1.3538
  186SAPI   C3921400   5.600   1.791   9.319  0.8371  0.2056  0.4946
  186SAPI   H9X21401   5.505   1.849   9.319  0.3603 -0.5424  1.0882
  186SAPI   H9Y21402   5.573   1.688   9.285  0.4415  0.8623 -1.3084
  186SAPI  C31021403   5.688   1.850   9.210 -0.3424  0.2257  0.3039
  186SAPI  H10X21404   5.792   1.811   9.199 -0.3871 -0.2122  1.2806
  186SAPI  H10Y21405   5.707   1.958   9.224  1.6132 -0.3465  2.9132
  186SAPI  C31121406   5.617   1.838   9.081 -0.1958 -0.9113  0.0017
  186SAPI  H11X21407   5.523   1.895   9.089  0.1398  0.2405 -2.8652
  186SAPI  H11Y21408   5.569   1.744   9.048  1.1398 -0.7923 -2.5994
  186SAPI  C31221409   5.706   1.897   8.964  0.7386 -0.0778 -0.0504
  186SAPI  H12X21410   5.804   1.848   8.979 -0.9127 -3.4920  0.7201
  186SAPI  H12Y21411   5.716   2.007   8.974 -2.0698  0.1398  1.2848
  186SAPI  C31321412   5.645   1.852   8.832  0.3450 -0.0815  0.5884
  186SAPI  H13X21413   5.631   1.742   8.834  0.1503 -0.1036 -0.6972
  186SAPI  H13Y21414   5.713   1.868   8.745  0.9481 -0.9193  0.8919
  186SAPI  C31421415   5.511   1.929   8.808  0.4592  0.6453 -0.0028
  186SAPI  H14X21416   5.440   1.910   8.891  2.6101 -1.5851  1.4456
  186SAPI  H14Y21417   5.457   1.875   8.726 -3.6365  2.6334  1.1410
  186SAPI  C31521418   5.521   2.083   8.787 -0.0871 -0.3513  0.5111
  186SAPI  H15X21419   5.541   2.140   8.880  0.3104  1.3671 -0.5959
  186SAPI  H15Y21420   5.421   2.120   8.756 -1.3933 -3.6808  0.3097
  186SAPI  C31621421   5.611   2.134   8.676  0.8065  0.2531 -0.7353
  186SAPI  H16X21422   5.582   2.089   8.579 -0.8066  1.4689 -0.8593
  186SAPI  H16Y21423   5.716   2.100   8.693  0.6639 -0.3406 -1.0210
  186SAPI  C31721424   5.598   2.284   8.659  0.3872 -0.0495  0.1309
  186SAPI  H17X21425   5.623   2.327   8.758 -0.3418 -0.6806  0.6042
  186SAPI  H17Y21426   5.495   2.318   8.635 -0.1825 -1.0137  1.1033
  186SAPI  C31821427   5.690   2.349   8.551 -0.6101 -0.7156 -0.3708
  186SAPI  H18X21428   5.682   2.459   8.535 -0.7636 -0.4423  1.3593
  186SAPI  H18Y21429   5.684   2.294   8.455 -0.6489  2.0816 -2.0857
  186SAPI  H18Z21430   5.795   2.345   8.589 -0.2171  0.3939 -1.2785
  187SAPI   C1221431   1.640   2.993   6.284 -0.0425  0.2220  0.9148
  187SAPI    H221432   1.601   3.086   6.331 -2.3775 -0.4770  0.4817
  187SAPI    O221433   1.611   2.998   6.144 -0.0110 -0.6605  0.0508
  187SAPI   HO221434   1.517   2.986   6.132  0.0534 -0.3349 -0.9257
  187SAPI   C1321435   1.791   2.969   6.306 -0.8123 -0.0019 -0.1750
  187SAPI    H321436   1.797   2.962   6.417  1.4290 -0.5625 -0.2785
  187SAPI    O321437   1.880   3.076   6.271  0.2403 -0.2800  0.1209
  187SAPI   HO321438   1.951   3.059   6.333  0.6257 -0.4814 -0.3631
  187SAPI   C1421439   1.832   2.831   6.252 -0.3420 -0.4501  0.0906
  187SAPI    H421440   1.817   2.828   6.142 -1.6735 -0.0607  0.2468
  187SAPI    O421441   1.973   2.813   6.274 -0.0469 -0.3452  0.1797
  187SAPI   HO421442   2.020   2.872   6.215 -1.0743  0.7162  0.3832
  187SAPI   C1521443   1.737   2.722   6.306 -0.1671 -0.1625  0.2081
  187SAPI    H521444   1.761   2.710   6.414  1.0791 -0.5519 -0.1028
  187SAPI    O521445   1.770   2.591   6.249 -0.0934 -0.3031  0.2778
  187SAPI   HO521446   1.854   2.560   6.286 -1.1347 -2.4754  0.9946
  187SAPI   C1621447   1.589   2.747   6.290  0.2264  0.0347  0.6237
  187SAPI    H621448   1.559   2.741   6.183 -2.4249  0.2892  1.2818
  187SAPI    O621449   1.511   2.648   6.356 -0.3115  0.0598  0.1215
  187SAPI   HO621450   1.478   2.594   6.284  0.7294 -0.4548  0.0092
  187SAPI   C1121451   1.550   2.887   6.339 -0.0216  0.3055 -0.2644
  187SAPI    H121452   1.567   2.884   6.448 -2.6258  0.6942  0.2232
  187SAPI     P21453   1.323   3.045   6.379  0.0577  0.5573  0.2863
  187SAPI   O1321454   1.233   3.094   6.273 -0.9480 -0.2008 -0.1963
  187SAPI   O1421455   1.412   3.135   6.452 -0.4328 -0.8658  0.5265
  187SAPI   O1221456   1.408   2.923   6.314  0.3982  0.6131 -0.3779
  187SAPI   O1121457   1.231   2.972   6.488 -0.1161  0.2328  0.0975
  187SAPI    C121458   1.297   2.907   6.599  0.1683 -0.1241 -0.2180
  187SAPI    HA21459   1.396   2.863   6.572  0.0154 -0.5452 -0.0923
  187SAPI    HB21460   1.319   2.980   6.680  1.8124  1.0147 -1.6086
  187SAPI    C221461   1.211   2.785   6.627  0.0651 -0.0775  0.7143
  187SAPI    HS21462   1.208   2.723   6.534  0.2739 -0.9468  1.2743
  187SAPI   O2121463   1.081   2.836   6.659  0.3705  0.1227  0.1280
  187SAPI   C2121464   0.973   2.762   6.635 -0.2165 -0.4689 -0.3885
  187SAPI   O2221465   0.970   2.664   6.573  0.0687  0.9703  0.1410
  187SAPI   C2221466   0.848   2.824   6.716 -0.3434 -0.1085  1.2408
  187SAPI   H2R21467   0.882   2.850   6.819  2.4693 -3.3842  1.3427
  187SAPI   H2S21468   0.811   2.920   6.676  0.4286  0.0373  0.8570
  187SAPI    C321469   1.271   2.695   6.735 -0.7079  0.3069 -0.4293
  187SAPI    HX21470   1.360   2.640   6.699  0.0279 -2.2755  4.3872
  187SAPI    HY21471   1.201   2.611   6.754 -0.3783  0.7793  4.0822
  187SAPI   O3121472   1.308   2.767   6.862  0.4306 -0.2272 -0.4869
  187SAPI   C3121473   1.210   2.772   6.948  0.1733 -0.0288  0.4539
  187SAPI   O3221474   1.096   2.720   6.946 -0.1073  0.1912 -0.5520
  187SAPI   C3221475   1.257   2.861   7.071 -0.5876  0.3463  0.0605
  187SAPI   H2X21476   1.168   2.924   7.092 -0.0564  1.3679 -0.6204
  187SAPI   H2Y21477   1.344   2.925   7.044  0.3476 -0.7503  0.3881
  187SAPI   C2321478   0.729   2.729   6.727 -0.5280 -0.2088  0.1966
  187SAPI   H3R21479   0.765   2.630   6.760 -0.3556  0.1015  0.9633
  187SAPI   H3S21480   0.687   2.725   6.624  1.3136  0.8813 -0.6434
  187SAPI   C2421481   0.624   2.784   6.824 -0.3887  0.3006  0.9170
  187SAPI   H4R21482   0.675   2.830   6.911 -0.3175  3.5394 -0.7042
  187SAPI   H4S21483   0.580   2.693   6.871 -1.2969  0.4471  0.3891
  187SAPI   C2521484   0.515   2.873   6.756  0.6834  0.4772  0.0690
  187SAPI   H5R21485   0.450   2.813   6.692  0.6169  2.1660 -1.5207
  187SAPI   C2621486   0.502   3.010   6.751 -1.4218 -0.0708 -0.8991
  187SAPI   H6R21487   0.427   3.070   6.698  1.2800  1.6140 -3.0894
  187SAPI   C2721488   0.606   3.100   6.817  0.0247 -0.9547 -0.2813
  187SAPI   H7R21489   0.703   3.046   6.828  0.7126  0.3941  0.5927
  187SAPI   H7S21490   0.564   3.116   6.919 -0.8072  0.7450 -0.8602
  187SAPI   C2821491   0.620   3.240   6.763  0.3622 -0.6222 -0.0042
  187SAPI   H8R21492   0.580   3.264   6.663  0.1102  0.1837  0.2807
  187SAPI   C2921493   0.675   3.342   6.830 -0.0151 -0.1773 -0.1198
  187SAPI   H9R21494   0.680   3.438   6.777 -0.2858 -0.6003 -0.9296
  187SAPI  C21021495   0.732   3.349   6.970  0.5188 -0.5558 -0.1066
  187SAPI  H10R21496   0.806   3.432   6.970  1.1138 -1.0690  0.9254
  187SAPI  H10S21497   0.793   3.262   7.005  0.8018 -1.2163 -2.0771
  187SAPI  C21121498   0.623   3.383   7.070 -0.7149  0.3334  0.6009
  187SAPI  H11R21499   0.579   3.483   7.059  0.6133  0.8534 -0.2497
  187SAPI  C21221500   0.583   3.309   7.178 -0.5034  0.1660 -0.2599
  187SAPI  H12R21501   0.498   3.343   7.240  1.0404  1.5408  1.1881
  187SAPI  C21321502   0.639   3.172   7.217  0.0510 -0.8546  0.1168
  187SAPI  H13R21503   0.731   3.193   7.276  0.7826 -3.6123  0.1097
  187SAPI  H13S21504   0.659   3.111   7.126 -2.6606 -3.2498  0.9887
  187SAPI  C21421505   0.546   3.086   7.295  0.5625 -0.3084 -0.8305
  187SAPI  H14R21506   0.458   3.041   7.246  1.0724 -0.4390 -1.6335
  187SAPI  C21521507   0.557   3.047   7.426 -0.0505  0.4324  0.0674
  187SAPI  H15R21508   0.468   2.996   7.466 -0.5137 -0.1593 -1.6175
  187SAPI  C21621509   0.671   3.092   7.524  0.1195  0.2845 -0.1474
  187SAPI  H16R21510   0.774   3.064   7.493 -0.2775 -1.0704 -0.3032
  187SAPI  H16S21511   0.652   3.058   7.628 -1.3798 -1.3661 -0.8996
  187SAPI  C21721512   0.674   3.251   7.545 -0.9691  0.5637 -0.4374
  187SAPI  H17R21513   0.702   3.300   7.449 -1.1892 -1.3386 -1.5029
  187SAPI  H17S21514   0.749   3.284   7.621  2.6438 -2.3656 -2.4120
  187SAPI  C21821515   0.539   3.312   7.587  0.5228  0.5553  0.5037
  187SAPI  H18R21516   0.461   3.297   7.508  1.1968  3.7221 -0.9170
  187SAPI  H18S21517   0.571   3.418   7.596  2.2413  0.2849 -1.5310
  187SAPI  C21921518   0.477   3.263   7.718 -0.0897  0.2392  0.2643
  187SAPI  H19R21519   0.459   3.154   7.715 -3.7305  0.7401 -2.4371
  187SAPI  H19S21520   0.377   3.311   7.721  0.7515  2.0531  0.6277
  187SAPI  C22021521   0.549   3.312   7.845 -0.2997 -0.1107 -0.2397
  187SAPI  H20R21522   0.500   3.406   7.876 -1.7951 -1.3456  1.3576
  187SAPI  H20S21523   0.657   3.329   7.826 -0.4236 -0.6480 -1.5671
  187SAPI  H20T21524   0.538   3.230   7.919 -0.6114  1.0643  1.0519
  187SAPI   C3321525   1.309   2.767   7.191  0.4382  0.3712  0.4263
  187SAPI   H3X21526   1.336   2.841   7.269 -1.4728  0.8553  0.6764
  187SAPI   H3Y21527   1.403   2.716   7.161  2.4088  3.0864  1.6600
  187SAPI   C3421528   1.199   2.683   7.254  0.2733 -0.5208 -0.1382
  187SAPI   H4X21529   1.223   2.648   7.356 -4.9882  0.4932  1.7713
  187SAPI   H4Y21530   1.178   2.600   7.183  1.8732  0.7401 -2.2331
  187SAPI   C3521531   1.073   2.769   7.286 -0.4485  0.6205 -0.4065
  187SAPI   H5X21532   1.038   2.797   7.185 -2.2710  1.4937  0.4246
  187SAPI   H5Y21533   1.109   2.862   7.335 -1.0814  0.1363  1.0413
  187SAPI   C3621534   0.968   2.689   7.353 -0.2601  0.7949  0.2601
  187SAPI   H6X21535   1.010   2.651   7.448 -0.7551  0.7738  0.4746
  187SAPI   H6Y21536   0.945   2.601   7.289 -0.6335  0.8485  0.3173
  187SAPI   C3721537   0.849   2.782   7.375  0.1952 -0.6762 -0.1046
  187SAPI   H7X21538   0.831   2.843   7.284  3.2044  0.4354 -0.0733
  187SAPI   H7Y21539   0.876   2.853   7.455  2.3258 -1.0601 -0.4297
  187SAPI   C3821540   0.718   2.704   7.415 -0.4664 -0.7181  0.0947
  187SAPI   H8X21541   0.691   2.627   7.339 -1.1915 -0.4770  0.1013
  187SAPI   H8Y21542   0.634   2.777   7.424 -0.0722 -0.1911 -0.4823
  187SAPI   C3921543   0.720   2.612   7.543  0.0049 -0.3139 -0.2425
  187SAPI   H9X21544   0.816   2.556   7.540  0.1054 -0.1127 -0.9476
  187SAPI   H9Y21545   0.639   2.538   7.528 -0.3236 -0.4391  1.9085
  187SAPI  C31021546   0.694   2.695   7.669  0.3080  0.6841  0.5403
  187SAPI  H10X21547   0.655   2.797   7.649  0.1528  0.5897  0.3578
  187SAPI  H10Y21548   0.791   2.694   7.723  0.6734  1.7535 -0.0797
  187SAPI  C31121549   0.587   2.624   7.762 -0.1343 -0.9563  0.4277
  187SAPI  H11X21550   0.644   2.544   7.814  0.6464  0.1682  1.3530
  187SAPI  H11Y21551   0.500   2.579   7.709  0.8029 -2.6947  0.2767
  187SAPI  C31221552   0.528   2.721   7.870 -0.1394  0.6403 -0.5940
  187SAPI  H12X21553   0.435   2.671   7.903 -1.4623  2.7649 -0.8884
  187SAPI  H12Y21554   0.492   2.817   7.826  1.4187  1.1587 -0.8183
  187SAPI  C31321555   0.627   2.736   7.982  0.7114 -0.2856 -0.2365
  187SAPI  H13X21556   0.725   2.778   7.951  0.8393 -0.1952  0.2909
  187SAPI  H13Y21557   0.653   2.641   8.033 -0.9408 -0.5644  0.1520
  187SAPI  C31421558   0.571   2.840   8.091 -0.0848 -0.0507  0.3135
  187SAPI  H14X21559   0.559   2.940   8.043  2.1825  0.0143 -0.2224
  187SAPI  H14Y21560   0.650   2.858   8.167  0.7489 -0.5563 -0.4108
  187SAPI  C31521561   0.453   2.788   8.157 -0.3665  0.0412  0.5397
  187SAPI  H15X21562   0.461   2.683   8.192 -2.6215 -0.2933  0.2090
  187SAPI  H15Y21563   0.357   2.792   8.101  0.0536 -3.6531 -0.6854
  187SAPI  C31621564   0.442   2.859   8.291 -0.1398  0.0681 -0.1083
  187SAPI  H16X21565   0.419   2.967   8.280  2.3068  0.7884  1.0815
  187SAPI  H16Y21566   0.539   2.863   8.345 -0.5207 -1.9602  0.7909
  187SAPI  C31721567   0.335   2.801   8.384 -0.4953  0.5113  0.1624
  187SAPI  H17X21568   0.372   2.704   8.423 -1.1606  0.8554  1.7468
  187SAPI  H17Y21569   0.250   2.784   8.315  0.0641  2.4010 -1.0638
  187SAPI  C31821570   0.301   2.897   8.501 -0.0292 -0.1025 -0.1374
  187SAPI  H18X21571   0.317   2.999   8.461 -1.7066 -0.2073 -1.1537
  187SAPI  H18Y21572   0.345   2.860   8.596  0.4770 -0.2096 -0.4087
  187SAPI  H18Z21573   0.190   2.902   8.508 -0.0456  1.4259 -1.1325
  188SAPI   C1221574   3.328   6.416   6.113 -0.2362 -0.0611  0.2675
  188SAPI    H221575   3.225   6.457   6.115 -0.4474 -0.4471 -1.3033
  188SAPI    O221576   3.320   6.285   6.164  0.0317  0.2129  0.6445
  188SAPI   HO221577   3.258   6.238   6.108 -0.4049  0.0611  1.2458
  188SAPI   C1321578   3.388   6.410   5.976  0.0100 -0.2268  0.3132
  188SAPI    H321579   3.387   6.517   5.944 -0.4089 -0.0906  0.7694
  188SAPI    O321580   3.311   6.339   5.880 -0.5543 -0.9073 -0.2781
  188SAPI   HO321581   3.227   6.385   5.871 -1.4142 -1.9685  1.6951
  188SAPI   C1421582   3.531   6.364   5.976 -0.2151  0.2942  0.7857
  188SAPI    H421583   3.538   6.262   6.021  0.7733 -0.3302 -0.6955
  188SAPI    O421584   3.583   6.340   5.843  0.7499 -0.7058 -0.1340
  188SAPI   HO421585   3.502   6.336   5.791 -0.4711  0.3177  1.5939
  188SAPI   C1521586   3.615   6.454   6.063 -0.4103 -0.9105  0.8424
  188SAPI    H521587   3.619   6.556   6.020 -2.0408 -1.4437 -0.6440
  188SAPI    O521588   3.749   6.398   6.074 -0.0191 -0.3577  0.4213
  188SAPI   HO521589   3.764   6.307   6.100  1.2113  0.0339  1.1685
  188SAPI   C1621590   3.563   6.463   6.207  1.0998  1.2342  0.3179
  188SAPI    H621591   3.555   6.360   6.247 -2.6492  2.7619  4.2404
  188SAPI    O621592   3.639   6.543   6.290  0.4808  0.3273 -0.4121
  188SAPI   HO621593   3.641   6.492   6.371 -0.2342 -0.3427 -0.7998
  188SAPI   C1121594   3.419   6.504   6.202  0.2059 -0.1363  0.1081
  188SAPI    H121595   3.418   6.599   6.145 -0.5777 -1.1605 -1.6526
  188SAPI     P21596   3.251   6.640   6.360  0.2638  0.0004 -0.2202
  188SAPI   O1321597   3.167   6.607   6.477 -0.8093 -0.7051  0.0763
  188SAPI   O1421598   3.179   6.680   6.232  0.1452 -0.3887  0.0845
  188SAPI   O1221599   3.354   6.508   6.333 -0.4368  0.0209  0.6841
  188SAPI   O1121600   3.347   6.765   6.384  0.8029  0.2926  0.3903
  188SAPI    C121601   3.447   6.771   6.485 -0.1838 -0.3863  0.6036
  188SAPI    HA21602   3.478   6.669   6.517  1.2092 -0.2210 -0.1250
  188SAPI    HB21603   3.538   6.830   6.461 -0.0741 -1.4822 -2.0009
  188SAPI    C221604   3.381   6.833   6.616 -0.1675 -0.1821  0.3015
  188SAPI    HS21605   3.278   6.792   6.619 -0.2086 -0.0252  1.6707
  188SAPI   O2121606   3.372   6.974   6.599  0.1920  0.0185 -0.1275
  188SAPI   C2121607   3.286   7.043   6.669 -0.0283  0.4077  0.6448
  188SAPI   O2221608   3.186   6.994   6.716 -0.6339  0.0944  0.2981
  188SAPI   C2221609   3.325   7.190   6.674  0.4871 -0.2802 -0.1382
  188SAPI   H2R21610   3.424   7.199   6.624  0.5907 -2.1601 -0.3145
  188SAPI   H2S21611   3.255   7.238   6.601 -0.0193 -2.3195 -1.0506
  188SAPI    C321612   3.453   6.796   6.755  0.2395  0.1416 -0.0797
  188SAPI    HX21613   3.555   6.838   6.763  0.2674  0.2589 -0.9937
  188SAPI    HY21614   3.466   6.685   6.758 -2.9420 -0.3049  1.2907
  188SAPI   O3121615   3.377   6.836   6.872  0.0716 -0.0444  0.1155
  188SAPI   C3121616   3.304   6.748   6.930 -0.3497 -0.1611  0.2332
  188SAPI   O3221617   3.295   6.630   6.897 -0.5375 -0.3450 -0.7125
  188SAPI   C3221618   3.227   6.812   7.045  0.8302 -0.2276 -0.2627
  188SAPI   H2X21619   3.176   6.729   7.099  0.3052 -1.4920 -2.5866
  188SAPI   H2Y21620   3.155   6.885   7.002  3.1213  1.0164 -2.2053
  188SAPI   C2321621   3.312   7.244   6.816  0.2793  0.3027  0.6293
  188SAPI   H3R21622   3.221   7.213   6.871  0.3310  0.5142  0.8376
  188SAPI   H3S21623   3.303   7.354   6.825  0.1092  0.3491 -0.0848
  188SAPI   C2421624   3.425   7.194   6.907 -0.6895  0.3923  0.1250
  188SAPI   H4R21625   3.419   7.085   6.927 -0.0562  0.5632  1.3360
  188SAPI   H4S21626   3.412   7.237   7.009  0.8974  1.2154  0.0070
  188SAPI   C2521627   3.566   7.209   6.860 -1.2131 -0.9413 -0.4260
  188SAPI   H5R21628   3.611   7.120   6.814  0.1189 -0.6249  0.2232
  188SAPI   C2621629   3.642   7.322   6.887 -0.1104  0.2118  0.2135
  188SAPI   H6R21630   3.745   7.317   6.849 -0.0947  0.9658  0.1383
  188SAPI   C2721631   3.606   7.441   6.967 -0.5674  0.3295 -0.0711
  188SAPI   H7R21632   3.496   7.445   6.961 -0.4948  0.4162 -2.1050
  188SAPI   H7S21633   3.644   7.533   6.917 -0.7566  1.3461  1.5949
  188SAPI   C2821634   3.654   7.436   7.112 -0.6036 -0.5727 -0.9326
  188SAPI   H8R21635   3.763   7.433   7.125 -0.3564 -2.1414 -2.8342
  188SAPI   C2921636   3.579   7.420   7.229 -0.0867  0.5541  0.8475
  188SAPI   H9R21637   3.631   7.411   7.325 -0.2928 -1.0428  0.8235
  188SAPI  C21021638   3.427   7.397   7.249 -0.2100  0.4116 -0.0006
  188SAPI  H10R21639   3.403   7.289   7.255  0.6087  0.1146 -1.6556
  188SAPI  H10S21640   3.377   7.442   7.161 -0.4720  0.5500  0.2150
  188SAPI  C21121641   3.375   7.476   7.365  0.0796 -0.8221  0.0415
  188SAPI  H11R21642   3.328   7.564   7.320  0.0820 -0.1349  1.3282
  188SAPI  C21221643   3.395   7.453   7.494  0.8960 -0.2623 -0.1432
  188SAPI  H12R21644   3.358   7.534   7.559  3.1096  0.5244  0.2282
  188SAPI  C21321645   3.462   7.341   7.561  0.2690 -0.6109 -0.6138
  188SAPI  H13R21646   3.523   7.275   7.494  1.0971  0.0275 -0.5080
  188SAPI  H13S21647   3.383   7.267   7.586  0.6850 -0.9821 -0.3767
  188SAPI  C21421648   3.533   7.400   7.678  0.0659  0.1478  0.1800
  188SAPI  H14R21649   3.620   7.464   7.658 -1.0536  1.9592  0.8775
  188SAPI  C21521650   3.504   7.378   7.809 -0.7747 -0.0915  0.0012
  188SAPI  H15R21651   3.571   7.407   7.891  0.0369  0.0147 -0.6818
  188SAPI  C21621652   3.391   7.287   7.849 -0.5705  0.5330  0.2750
  188SAPI  H16R21653   3.432   7.186   7.828  1.5087  1.4712 -0.5042
  188SAPI  H16S21654   3.294   7.301   7.796 -2.1794 -1.7154  2.3830
  188SAPI  C21721655   3.368   7.304   8.002 -0.2030  0.2889 -1.4756
  188SAPI  H17R21656   3.325   7.406   8.010 -1.4056 -0.3313  1.5884
  188SAPI  H17S21657   3.465   7.310   8.056  0.7428 -1.1152 -2.9479
  188SAPI  C21821658   3.281   7.187   8.062  0.2262  0.5059 -0.4540
  188SAPI  H18R21659   3.328   7.093   8.025  2.2424  1.1870  0.1998
  188SAPI  H18S21660   3.179   7.198   8.019  1.2210  1.3347 -2.7940
  188SAPI  C21921661   3.259   7.194   8.217  0.0109  0.5679  0.6736
  188SAPI  H19R21662   3.193   7.111   8.250 -1.8037  2.2380  1.4356
  188SAPI  H19S21663   3.212   7.292   8.236  2.5550  1.6842  1.7486
  188SAPI  C22021664   3.392   7.181   8.290  0.3603 -0.2365  0.0221
  188SAPI  H20R21665   3.437   7.283   8.288  0.8697 -0.4514 -2.5330
  188SAPI  H20S21666   3.468   7.118   8.239  0.0240 -0.7387  0.1347
  188SAPI  H20T21667   3.368   7.156   8.396  0.8631 -1.8319 -0.2091
  188SAPI   C3321668   3.319   6.880   7.150  0.5950  0.0625  0.2111
  188SAPI   H3X21669   3.385   6.952   7.097 -1.3132  0.2185 -2.1492
  188SAPI   H3Y21670   3.378   6.798   7.196 -0.0210 -1.4527 -1.5604
  188SAPI   C3421671   3.241   6.967   7.246  0.0150  0.5518 -0.1645
  188SAPI   H4X21672   3.142   6.924   7.271  0.5983 -0.2234  0.8969
  188SAPI   H4Y21673   3.212   7.060   7.192 -0.6504 -0.5294 -1.7344
  188SAPI   C3521674   3.306   7.014   7.382 -0.8734 -0.4822 -0.2001
  188SAPI   H5X21675   3.235   7.081   7.435 -0.4179 -1.1401  1.3070
  188SAPI   H5Y21676   3.395   7.075   7.354 -1.6931  0.6360 -0.4730
  188SAPI   C3621677   3.348   6.896   7.471 -0.4595 -0.1628  0.3014
  188SAPI   H6X21678   3.425   6.834   7.421 -0.3867 -0.3490  0.6369
  188SAPI   H6Y21679   3.264   6.823   7.474 -0.6484  0.0081 -0.6072
  188SAPI   C3721680   3.388   6.948   7.614  0.5799 -0.5012 -0.1075
  188SAPI   H7X21681   3.307   7.006   7.664 -1.4216 -2.3921 -0.9575
  188SAPI   H7Y21682   3.482   7.007   7.611  0.2878 -0.0524 -1.3526
  188SAPI   C3821683   3.425   6.835   7.711 -0.4808 -0.9485 -0.6315
  188SAPI   H8X21684   3.512   6.776   7.677 -0.2789 -1.0399  0.0305
  188SAPI   H8Y21685   3.330   6.777   7.717 -1.6208  0.8665 -0.2538
  188SAPI   C3921686   3.456   6.887   7.856 -0.4653  0.3707  0.5365
  188SAPI   H9X21687   3.370   6.936   7.906 -0.7514 -0.6029  1.0214
  188SAPI   H9Y21688   3.542   6.957   7.848 -0.7686  0.8650  1.4462
  188SAPI  C31021689   3.483   6.773   7.958 -0.5450  1.3197 -0.1658
  188SAPI  H10X21690   3.566   6.702   7.935 -1.8931 -0.5025  0.3420
  188SAPI  H10Y21691   3.402   6.698   7.969  0.4139  0.3629  0.5249
  188SAPI  C31121692   3.498   6.831   8.105 -0.2103  0.2402  0.1305
  188SAPI  H11X21693   3.398   6.869   8.134 -0.7727 -1.0853 -0.0026
  188SAPI  H11Y21694   3.566   6.918   8.098  2.5655 -1.6420  1.5446
  188SAPI  C31221695   3.576   6.737   8.203  0.3389 -0.0284 -0.0968
  188SAPI  H12X21696   3.659   6.677   8.161  1.0369  0.0424  1.1291
  188SAPI  H12Y21697   3.507   6.656   8.236 -0.5359  0.3450 -0.9606
  188SAPI  C31321698   3.634   6.812   8.326  0.8068  0.4648 -0.2372
  188SAPI  H13X21699   3.678   6.903   8.280  1.6255 -0.0295 -0.4616
  188SAPI  H13Y21700   3.720   6.748   8.357  0.1640 -0.0318  0.5784
  188SAPI  C31421701   3.541   6.828   8.449 -0.4749  0.1759  0.8421
  188SAPI  H14X21702   3.507   6.729   8.486 -0.5389  0.4262  1.4617
  188SAPI  H14Y21703   3.452   6.890   8.427 -0.7709  0.1982  2.0218
  188SAPI  C31521704   3.604   6.890   8.577  0.5742  0.4253 -1.2116
  188SAPI  H15X21705   3.603   7.001   8.570 -0.6055  0.5391  0.2063
  188SAPI  H15Y21706   3.712   6.866   8.580  0.5172  0.1850 -1.0518
  188SAPI  C31621707   3.528   6.866   8.712 -0.2694 -0.5077 -0.6806
  188SAPI  H16X21708   3.531   6.757   8.732  1.2222 -0.7373 -1.9408
  188SAPI  H16Y21709   3.424   6.892   8.683 -0.6992 -0.9570  0.4445
  188SAPI  C31721710   3.573   6.960   8.818  0.1402 -0.0619 -0.0219
  188SAPI  H17X21711   3.537   7.064   8.803  0.2856  0.3088  1.8750
  188SAPI  H17Y21712   3.683   6.970   8.809  0.0973 -0.8249 -1.7734
  188SAPI  C31821713   3.522   6.913   8.954  0.2737 -0.6091  0.1639
  188SAPI  H18X21714   3.432   6.848   8.941 -0.9491  1.2869 -1.6069
  188SAPI  H18Y21715   3.487   6.996   9.019 -2.9405 -2.0067  0.4159
  188SAPI  H18Z21716   3.598   6.846   8.999  0.2612  0.7586  2.3614
  189POPC     N21717   2.343   2.250  11.013 -0.5657  0.5616  1.0619
  189POPC   C1221718   2.303   2.145  10.903 -0.6200 -0.1466  0.0848
  189POPC  H12A21719   2.203   2.170  10.871 -0.8903  0.3151  1.2137
  189POPC  H12B21720   2.308   2.047  10.948 -1.5595 -0.9340 -1.4748
  189POPC   C1321721   2.261   2.209  11.127  0.2700 -0.7238  0.3247
  189POPC  H13A21722   2.154   2.221  11.119  0.4818  1.1335 -0.2813
  189POPC  H13B21723   2.279   2.109  11.163 -2.1223 -0.7899  1.5890
  189POPC  H13C21724   2.295   2.263  11.215  0.9104 -1.6295  0.6423
  189POPC   C1421725   2.483   2.233  11.065  0.0554  0.0792 -0.0022
  189POPC  H14A21726   2.558   2.213  10.990  1.1194  1.7424  0.5690
  189POPC  H14B21727   2.513   2.321  11.120 -0.2838  1.6025 -2.1086
  189POPC  H14C21728   2.480   2.147  11.130 -2.5909 -1.2853 -1.7178
  189POPC   C1521729   2.322   2.389  10.961 -0.6879 -1.7024 -0.0311
  189POPC  H15A21730   2.218   2.407  10.940 -0.4818  2.3944  1.5375
  189POPC  H15B21731   2.359   2.406  10.860 -0.6498  1.8677  0.4646
  189POPC  H15C21732   2.350   2.476  11.017 -2.5507  1.0113 -2.9622
  189POPC   C1121733   2.395   2.150  10.767  0.9165 -0.3429 -0.7015
  189POPC  H11A21734   2.397   2.256  10.735  1.0433  1.6817  4.9680
  189POPC  H11B21735   2.337   2.083  10.699  1.0252 -2.5794  1.2589
  189POPC     P21736   2.565   1.949  10.788  0.0084  0.1229 -0.0666
  189POPC   O1321737   2.440   1.880  10.756  0.8014 -0.0316  0.4581
  189POPC   O1421738   2.635   1.916  10.908  0.3593  0.5032 -0.1066
  189POPC   O1221739   2.526   2.104  10.791  0.7290 -0.1806  0.0152
  189POPC   O1121740   2.661   1.936  10.668  0.8484 -0.2577  0.0093
  189POPC    C121741   2.774   2.025  10.635 -0.1679  0.0302 -0.3769
  189POPC    HA21742   2.841   1.976  10.561 -0.7266  0.8440 -1.4527
  189POPC    HB21743   2.843   2.043  10.720  1.0525 -0.6962 -1.1730
  189POPC    C221744   2.748   2.156  10.554 -0.3425  0.7315 -0.2506
  189POPC    HS21745   2.668   2.213  10.606 -0.9910  0.8786 -1.3736
  189POPC   O2121746   2.706   2.116  10.420  0.7076 -0.5058 -0.6208
  189POPC   C2121747   2.644   2.211  10.349 -0.4073  0.8240  0.3183
  189POPC   O2221748   2.616   2.321  10.384  0.1299  0.2691 -0.3367
  189POPC   C2221749   2.627   2.159  10.204 -0.5376  0.4572  0.2418
  189POPC   H2R21750   2.594   2.246  10.144  0.1034  0.0385 -0.7412
  189POPC   H2S21751   2.533   2.100  10.214 -0.9297  0.5562 -2.2023
  189POPC    C321752   2.871   2.254  10.547  0.3368  0.3205  0.5442
  189POPC    HX21753   2.888   2.276  10.654  0.5974  1.1331  0.3405
  189POPC    HY21754   2.841   2.355  10.510 -1.5902  0.1707  1.5828
  189POPC   O3121755   2.994   2.194  10.492  0.3845 -0.1699 -0.5043
  189POPC   C3121756   3.032   2.242  10.378  0.2887  0.1228 -0.0730
  189POPC   O3221757   2.968   2.318  10.309  0.3792  0.2432 -0.4167
  189POPC   C3221758   3.172   2.213  10.348  0.0099  0.2527  0.4414
  189POPC   H2X21759   3.215   2.185  10.446  0.7596 -0.2498 -0.0204
  189POPC   H2Y21760   3.221   2.307  10.314 -0.3636  0.7411  1.2105
  189POPC   C2321761   2.751   2.075  10.157 -0.7498 -0.2598  0.3363
  189POPC   H3R21762   2.772   1.986  10.221  0.6663 -0.2019 -0.0181
  189POPC   H3S21763   2.839   2.140  10.142 -1.4648  0.0943 -3.2548
  189POPC   C2421764   2.725   2.033  10.012 -0.6070 -0.2059 -0.6507
  189POPC   H4R21765   2.645   1.957  10.024 -1.1254  0.6220  1.7233
  189POPC   H4S21766   2.810   1.984   9.960 -0.7362  1.0247 -2.0908
  189POPC   C2521767   2.682   2.142   9.920  0.5714 -0.0040 -0.5173
  189POPC   H5R21768   2.760   2.221   9.932  1.1656 -0.8823  2.1397
  189POPC   H5S21769   2.577   2.163   9.946 -0.2615 -0.7334 -3.0056
  189POPC   C2621770   2.689   2.088   9.776  0.5613 -0.0663  0.0678
  189POPC   H6R21771   2.672   1.979   9.770  1.9325 -0.2761 -0.3224
  189POPC   H6S21772   2.791   2.103   9.735  1.6332 -0.7441  2.3579
  189POPC   C2721773   2.599   2.178   9.693  0.2848  0.3271  0.5232
  189POPC   H7R21774   2.624   2.285   9.706  1.1731  0.2149 -0.1791
  189POPC   H7S21775   2.493   2.174   9.727  0.4954  1.8706  1.4629
  189POPC   C2821776   2.609   2.163   9.538  0.4243  0.1484 -0.6320
  189POPC   H8R21777   2.524   2.217   9.490 -0.3574 -0.6532 -0.1583
  189POPC   H8S21778   2.591   2.056   9.518 -0.3154  0.3247 -0.9670
  189POPC   C2921779   2.730   2.188   9.459  0.0717  0.0505  0.0998
  189POPC   H9121780   2.816   2.129   9.496  1.0055  3.0362  3.1600
  189POPC  C21021781   2.759   2.268   9.358  0.1815  0.2912  0.6582
  189POPC  H10121782   2.863   2.277   9.324 -0.1537 -1.7319 -1.0953
  189POPC  C21121783   2.668   2.367   9.293  0.0956 -0.4438  0.1592
  189POPC  H11R21784   2.703   2.467   9.325 -0.5276 -0.3458  0.5484
  189POPC  H11S21785   2.570   2.363   9.346  0.2209 -1.4480  0.3374
  189POPC  C21221786   2.647   2.360   9.145  0.5145 -0.1843 -0.0664
  189POPC  H12R21787   2.609   2.261   9.115  0.9345 -0.1836 -0.6116
  189POPC  H12S21788   2.747   2.360   9.098  0.5825 -2.1545  0.0024
  189POPC  C21321789   2.552   2.472   9.093  0.0062 -0.1142  0.3358
  189POPC  H13R21790   2.567   2.571   9.139 -1.5009 -0.2220  1.1378
  189POPC  H13S21791   2.448   2.449   9.126 -0.0413  2.0035  1.8191
  189POPC  C21421792   2.548   2.496   8.944 -0.7546 -0.4002  0.1484
  189POPC  H14R21793   2.454   2.545   8.912 -0.3855  1.2664  1.5028
  189POPC  H14S21794   2.550   2.395   8.898 -2.4221  0.6897 -2.5383
  189POPC  C21521795   2.663   2.590   8.894  0.5389 -0.7315  0.3971
  189POPC  H15R21796   2.764   2.545   8.903  1.5105  1.1584 -0.5106
  189POPC  H15S21797   2.659   2.676   8.964  2.9199 -1.3233  1.3598
  189POPC  C21621798   2.656   2.623   8.747  0.4063 -0.3807 -0.7296
  189POPC  H16R21799   2.557   2.665   8.718  1.9322  2.5574 -2.2263
  189POPC  H16S21800   2.681   2.530   8.692  0.9834 -0.4796 -0.3046
  189POPC  C21721801   2.762   2.725   8.694 -0.2017 -0.7103 -0.1966
  189POPC  H17R21802   2.866   2.687   8.700  0.5793  1.0532 -1.5498
  189POPC  H17S21803   2.757   2.821   8.751  0.9022  0.2004 -1.5561
  189POPC  C21821804   2.735   2.741   8.542 -0.1775 -0.5273 -0.4966
  189POPC  H18R21805   2.634   2.708   8.509 -0.2448 -1.6398  0.7579
  189POPC  H18S21806   2.813   2.676   8.498  1.1604  0.0919  0.8781
  189POPC  H18T21807   2.745   2.847   8.511  2.1585 -0.1245  1.3480
  189POPC   C3321808   3.199   2.106  10.242  0.3408 -0.0722  0.6792
  189POPC   H3X21809   3.309   2.105  10.226  0.3020  0.5697  0.3390
  189POPC   H3Y21810   3.153   2.136  10.145  0.9381 -0.2013  0.3525
  189POPC   C3421811   3.160   1.967  10.292  0.5100 -0.4455 -0.0678
  189POPC   H4X21812   3.057   1.982  10.330  0.7664  0.5881  0.2753
  189POPC   H4Y21813   3.219   1.933  10.380 -0.5935  1.6601  1.5721
  189POPC   C3521814   3.158   1.849  10.194 -0.1292 -0.1641  0.1964
  189POPC   H5X21815   3.132   1.752  10.242  0.7731 -0.6232 -0.2166
  189POPC   H5Y21816   3.263   1.847  10.157  0.0474  2.8043  0.3008
  189POPC   C3621817   3.068   1.868  10.063 -0.5690  0.1943 -0.1899
  189POPC   H6X21818   3.061   1.976  10.040 -1.8748  0.7261  2.3924
  189POPC   H6Y21819   2.963   1.833  10.074 -0.2332 -1.0655 -0.7495
  189POPC   C3721820   3.125   1.782   9.940  0.8778 -0.0016  0.0087
  189POPC   H7X21821   3.134   1.675   9.965  1.2668  0.5667  2.5556
  189POPC   H7Y21822   3.227   1.817   9.912  0.1979  0.4930 -2.0519
  189POPC   C3821823   3.044   1.796   9.811  0.5462 -0.3357  0.6307
  189POPC   H8X21824   3.093   1.875   9.750 -0.2876  0.1019  0.5208
  189POPC   H8Y21825   2.940   1.827   9.835  0.9005  1.9020 -0.5045
  189POPC   C3921826   3.027   1.661   9.739  0.1885  0.2231 -0.0885
  189POPC   H9X21827   2.991   1.576   9.801 -0.2959 -0.6495 -1.5264
  189POPC   H9Y21828   3.127   1.627   9.705 -1.0293 -1.4681 -2.1911
  189POPC  C31021829   2.951   1.661   9.603  0.5187  0.2475 -0.3528
  189POPC  H10X21830   2.913   1.763   9.582 -2.1341 -0.2809  1.4774
  189POPC  H10Y21831   2.858   1.602   9.619 -1.1176  1.4892 -4.1200
  189POPC  C31121832   3.021   1.610   9.480  0.2707  0.5981  0.4613
  189POPC  H11X21833   3.044   1.501   9.482 -1.5548  0.1857  0.5908
  189POPC  H11Y21834   3.115   1.666   9.460  1.0528 -0.9393 -0.4024
  189POPC  C31221835   2.941   1.633   9.350 -0.7372 -0.1690 -0.3493
  189POPC  H12X21836   2.933   1.743   9.344  0.7263 -0.1001 -1.6313
  189POPC  H12Y21837   2.838   1.592   9.349  0.1222 -2.6233  1.1138
  189POPC  C31321838   3.022   1.589   9.226  0.1902  0.3510  0.2392
  189POPC  H13X21839   3.052   1.483   9.235  2.6808  1.0496  0.8142
  189POPC  H13Y21840   3.117   1.647   9.231  1.3735 -1.4888 -0.0359
  189POPC  C31421841   2.947   1.638   9.100  0.0243  0.2646 -0.3764
  189POPC  H14X21842   2.924   1.746   9.114 -0.2882  0.1256  0.1911
  189POPC  H14Y21843   2.844   1.595   9.096  1.2825 -2.9755 -1.1181
  189POPC  C31521844   3.020   1.627   8.969  0.3329 -0.1940  0.0957
  189POPC  H15X21845   3.054   1.526   8.939 -1.5111 -0.9590  0.4327
  189POPC  H15Y21846   3.106   1.697   8.978  0.5476 -0.6703  2.5107
  189POPC  C31621847   2.934   1.672   8.859  0.0846 -0.6016  0.0517
  189POPC  H16X21848   2.841   1.611   8.859  0.9719 -1.9948 -0.3039
  189POPC  H16Y21849   2.986   1.643   8.765  2.1897 -1.0148  1.2728
  189POPC  H16Z21850   2.903   1.779   8.862  1.6185 -0.1354  0.3817
  190POPC     N21851   5.374   3.428  10.929 -1.0338  0.3213  1.0529
  190POPC   C1221852   5.246   3.470  10.982 -1.0837  1.0415  0.0001
  190POPC  H12A21853   5.237   3.404  11.067  2.4794  0.0225 -0.2521
  190POPC  H12B21854   5.173   3.431  10.912 -1.8178 -2.1012  2.2801
  190POPC   C1321855   5.479   3.453  11.030  0.0591  0.3155 -0.0374
  190POPC  H13A21856   5.485   3.560  11.045  1.2921  0.5431 -1.8456
  190POPC  H13B21857   5.448   3.405  11.122 -2.9687 -2.0852 -2.1011
  190POPC  H13C21858   5.576   3.418  10.999 -1.7572 -2.7772 -2.8396
  190POPC   C1421859   5.381   3.285  10.892 -0.6540 -0.2275 -0.1940
  190POPC  H14A21860   5.323   3.266  10.803 -1.1801  1.1867 -0.1727
  190POPC  H14B21861   5.480   3.245  10.876 -0.2683  1.0885 -1.2747
  190POPC  H14C21862   5.341   3.229  10.975 -1.2573  1.1270  0.4615
  190POPC   C1521863   5.415   3.510  10.805  0.1786  0.2856  0.0415
  190POPC  H15A21864   5.517   3.488  10.779  0.1534 -0.5208  0.5674
  190POPC  H15B21865   5.399   3.617  10.815  1.2190  0.4180  0.3784
  190POPC  H15C21866   5.353   3.479  10.722 -0.0616  1.1405 -0.1060
  190POPC   C1121867   5.224   3.619  11.010  0.0282  0.5279 -0.3267
  190POPC  H11A21868   5.242   3.678  10.918 -0.6684  0.3147 -0.5984
  190POPC  H11B21869   5.301   3.651  11.085 -0.1317  1.8966 -0.7127
  190POPC     P21870   4.973   3.640  10.975  0.4142  0.4090  0.2783
  190POPC   O1321871   4.869   3.712  11.049  0.4785  0.0980  0.1897
  190POPC   O1421872   4.945   3.498  10.935 -0.0828  0.1684  0.0154
  190POPC   O1221873   5.098   3.650  11.065  0.0934  0.0748 -0.0041
  190POPC   O1121874   5.007   3.718  10.853  0.2410 -0.0385 -0.1464
  190POPC    C121875   4.990   3.857  10.830 -0.6531  0.3328 -0.0053
  190POPC    HA21876   5.091   3.902  10.841  1.0050 -2.7108 -1.3540
  190POPC    HB21877   4.923   3.905  10.904 -0.4702 -0.1438  0.4818
  190POPC    C221878   4.940   3.896  10.684  0.1276  0.5898  0.1587
  190POPC    HS21879   4.931   4.007  10.684 -1.9055  0.4636 -0.3315
  190POPC   O2121880   4.807   3.851  10.659  0.1037 -0.1702  0.1294
  190POPC   C2121881   4.712   3.918  10.722 -0.2193 -0.8121 -0.0898
  190POPC   O2221882   4.736   4.009  10.796  0.3912 -0.1075  0.0812
  190POPC   C2221883   4.570   3.873  10.685  0.2604  0.0429  0.2296
  190POPC   H2R21884   4.519   3.824  10.771  0.5074 -0.2224  0.2265
  190POPC   H2S21885   4.582   3.798  10.605 -1.2686  0.2133 -0.1727
  190POPC    C321886   5.036   3.847  10.571 -0.5110  0.1987 -0.2564
  190POPC    HX21887   5.043   3.736  10.575 -0.4902  0.2122  0.1255
  190POPC    HY21888   5.141   3.879  10.590 -0.1532 -1.0018 -0.0861
  190POPC   O3121889   4.996   3.884  10.443  0.5259 -0.5717 -0.5375
  190POPC   C3121890   5.030   3.998  10.393 -0.2644 -0.9695 -0.3985
  190POPC   O3221891   5.113   4.074  10.435 -0.1550 -0.3553  0.3111
  190POPC   C3221892   4.943   4.030  10.269 -0.1302 -0.6099  0.0857
  190POPC   H2X21893   4.846   4.054  10.316  0.7824  2.9063  0.5023
  190POPC   H2Y21894   4.944   3.941  10.204 -0.7700 -0.3013 -0.3468
  190POPC   C2321895   4.491   3.994  10.634  0.2321 -0.1681  0.2404
  190POPC   H3R21896   4.502   4.076  10.709 -1.6823  1.9380 -1.6405
  190POPC   H3S21897   4.384   3.965  10.632  0.0741  0.3161 -3.0265
  190POPC   C2421898   4.521   4.042  10.491  0.1720 -0.5477  0.2551
  190POPC   H4R21899   4.473   3.964  10.429  0.1153 -0.4028  0.1149
  190POPC   H4S21900   4.631   4.031  10.487  0.4520  1.5965  0.7659
  190POPC   C2521901   4.459   4.177  10.449 -0.6002 -0.5478  0.3814
  190POPC   H5R21902   4.503   4.250  10.522 -1.4940 -0.2387  0.6213
  190POPC   H5S21903   4.348   4.185  10.456 -0.6614 -1.5586  0.7536
  190POPC   C2621904   4.511   4.218  10.309  0.6459 -0.0104 -0.6419
  190POPC   H6R21905   4.479   4.136  10.240 -2.1279  0.0970  0.3942
  190POPC   H6S21906   4.618   4.245  10.301  0.7145  0.5166  1.5356
  190POPC   C2721907   4.429   4.333  10.250  0.1636  0.2063 -0.8905
  190POPC   H7R21908   4.433   4.423  10.315 -0.5442  0.9460 -1.8515
  190POPC   H7S21909   4.322   4.304  10.255 -0.2583  1.1012 -3.2993
  190POPC   C2821910   4.454   4.382  10.108 -0.9266 -0.4609  0.5336
  190POPC   H8R21911   4.546   4.443  10.117 -1.9624  1.2554 -0.0741
  190POPC   H8S21912   4.379   4.458  10.078 -0.0933  0.4373  0.6784
  190POPC   C2921913   4.469   4.270  10.010  0.7372 -0.3307  0.3994
  190POPC   H9121914   4.394   4.190  10.020  0.0413 -0.0166 -1.7372
  190POPC  C21021915   4.544   4.282   9.900 -0.2408  0.3735 -0.2234
  190POPC  H10121916   4.555   4.193   9.835 -0.3756  1.0484 -1.1936
  190POPC  C21121917   4.631   4.401   9.860 -0.3173  0.3226  0.0683
  190POPC  H11R21918   4.734   4.362   9.847 -0.0065 -0.2028  3.3208
  190POPC  H11S21919   4.626   4.489   9.927 -0.7488  0.5139 -0.2106
  190POPC  C21221920   4.586   4.448   9.721  0.0423  0.8098  0.5240
  190POPC  H12R21921   4.641   4.542   9.700  0.7836  0.2126 -0.3125
  190POPC  H12S21922   4.482   4.486   9.713  0.1830  1.1227  0.1286
  190POPC  C21321923   4.608   4.354   9.595  0.5646  0.2372 -0.3332
  190POPC  H13R21924   4.588   4.247   9.620  1.1501 -0.1404 -1.4545
  190POPC  H13S21925   4.717   4.351   9.577  0.7620 -1.3686  0.8754
  190POPC  C21421926   4.530   4.400   9.469  0.6653 -0.8319  0.4004
  190POPC  H14R21927   4.423   4.391   9.496  0.8391 -2.7233  0.5577
  190POPC  H14S21928   4.544   4.328   9.386 -2.6798 -0.0695 -0.9966
  190POPC  C21521929   4.558   4.548   9.421  0.0474  0.4730  0.0268
  190POPC  H15R21930   4.663   4.565   9.453  0.2909 -1.5600  0.4265
  190POPC  H15S21931   4.494   4.624   9.470 -0.4960 -0.5083  0.8910
  190POPC  C21621932   4.543   4.556   9.269  0.4092  0.4344  0.2513
  190POPC  H16R21933   4.438   4.535   9.239  0.6911  1.4777 -1.7015
  190POPC  H16S21934   4.597   4.477   9.214 -1.3750 -2.0731  1.9166
  190POPC  C21721935   4.594   4.695   9.218  0.7074 -0.5205  1.0659
  190POPC  H17R21936   4.697   4.728   9.246  2.0515 -3.0049 -0.6345
  190POPC  H17S21937   4.539   4.769   9.280  0.8038  0.1838  0.3374
  190POPC  C21821938   4.575   4.725   9.072  0.9439  0.5266 -0.4277
  190POPC  H18R21939   4.468   4.718   9.042  0.4801 -0.9767  1.4180
  190POPC  H18S21940   4.635   4.649   9.017  0.0617 -0.9355  0.5631
  190POPC  H18T21941   4.617   4.824   9.045  1.6228  0.0808 -1.0377
  190POPC   C3321942   4.968   4.151  10.176 -0.3651 -0.1290  0.2573
  190POPC   H3X21943   4.991   4.234  10.246 -0.2525 -0.8435  1.0844
  190POPC   H3Y21944   4.882   4.176  10.110  0.6212  0.7734 -0.7201
  190POPC   C3421945   5.088   4.134  10.080 -0.1701  0.0098 -1.0326
  190POPC   H4X21946   5.053   4.061  10.003  0.3079  0.1971 -1.4300
  190POPC   H4Y21947   5.169   4.084  10.137  0.2290  0.7437 -0.9492
  190POPC   C3521948   5.131   4.262  10.010  0.2125 -0.2862 -0.4509
  190POPC   H5X21949   5.160   4.342  10.082 -0.3246 -0.2885 -0.2208
  190POPC   H5Y21950   5.038   4.296   9.957  0.9929  0.7463 -1.2183
  190POPC   C3621951   5.232   4.239   9.898  0.4204  0.2743 -0.0113
  190POPC   H6X21952   5.204   4.144   9.847  1.5044 -0.1534  0.1585
  190POPC   H6Y21953   5.325   4.211   9.952  1.5111 -1.6620 -2.6611
  190POPC   C3721954   5.263   4.368   9.819  0.3047 -0.1366  0.6889
  190POPC   H7X21955   5.307   4.452   9.876  1.9828 -0.9312  0.6237
  190POPC   H7Y21956   5.175   4.393   9.756 -0.2614 -0.5020  1.3211
  190POPC   C3821957   5.364   4.349   9.711 -1.1818 -0.2535  0.3227
  190POPC   H8X21958   5.458   4.335   9.769 -2.8593 -0.5231  3.1904
  190POPC   H8Y21959   5.372   4.444   9.654  2.2138 -1.0525 -0.7816
  190POPC   C3921960   5.332   4.237   9.615  0.0321 -0.0045 -0.6289
  190POPC   H9X21961   5.262   4.163   9.657 -0.7218 -0.5195 -2.6856
  190POPC   H9Y21962   5.423   4.174   9.610 -0.7609 -1.5495  2.1277
  190POPC  C31021963   5.301   4.269   9.466  0.1925 -0.1553 -0.1908
  190POPC  H10X21964   5.210   4.331   9.453  1.6074  2.0774 -0.1310
  190POPC  H10Y21965   5.281   4.166   9.430  0.4365  0.0898 -1.0387
  190POPC  C31121966   5.423   4.327   9.396  0.2676 -0.3333  0.1263
  190POPC  H11X21967   5.494   4.242   9.384 -1.4607 -2.3200  2.7175
  190POPC  H11Y21968   5.476   4.411   9.446  3.8950 -1.0700 -2.1478
  190POPC  C31221969   5.386   4.371   9.250  0.4646 -0.1920  0.4683
  190POPC  H12X21970   5.473   4.417   9.199 -1.4306  1.7521 -1.1998
  190POPC  H12Y21971   5.306   4.448   9.249  1.3968  0.8015 -0.5401
  190POPC  C31321972   5.337   4.257   9.157 -0.2329 -0.2239 -0.6472
  190POPC  H13X21973   5.249   4.208   9.204  1.6483 -1.1464  2.1731
  190POPC  H13Y21974   5.415   4.181   9.134 -0.4199 -0.0646 -1.8823
  190POPC  C31421975   5.312   4.320   9.018  0.6507  0.1339  0.5530
  190POPC  H14X21976   5.398   4.373   8.971 -0.2591  0.5401 -0.6884
  190POPC  H14Y21977   5.237   4.400   9.033  1.1224  1.5127 -3.3415
  190POPC  C31521978   5.253   4.213   8.934  0.3031 -0.3110  0.0329
  190POPC  H15X21979   5.144   4.195   8.948  0.0604  0.8611 -0.3185
  190POPC  H15Y21980   5.295   4.112   8.955  2.0732  0.8475  2.4171
  190POPC  C31621981   5.283   4.238   8.784  0.3377 -0.5093 -0.0987
  190POPC  H16X21982   5.389   4.273   8.776 -0.0516  0.5761 -0.6998
  190POPC  H16Y21983   5.220   4.326   8.759  0.7177  0.6356  2.6520
  190POPC  H16Z21984   5.257   4.148   8.725 -0.7681  0.4609 -1.1378
  191POPC     N21985   4.001   6.136   6.475 -0.3190 -0.4613  0.3313
  191POPC   C1221986   4.098   6.069   6.561 -0.2563 -0.5093 -0.1695
  191POPC  H12A21987   4.127   5.972   6.524  2.4835  0.3005 -0.4077
  191POPC  H12B21988   4.057   6.058   6.661  0.3349  0.7631  0.2328
  191POPC   C1321989   4.038   6.125   6.327 -0.0259 -0.0659 -0.6155
  191POPC  H13A21990   4.051   6.020   6.305 -1.1831  0.0069 -1.6896
  191POPC  H13B21991   3.969   6.159   6.252  0.0389 -2.5337 -1.8876
  191POPC  H13C21992   4.129   6.182   6.316 -0.2952  0.8270  1.3257
  191POPC   C1421993   3.876   6.072   6.502  0.6298  0.2631  0.4236
  191POPC  H14A21994   3.844   6.111   6.598  1.5979  1.6870  0.2132
  191POPC  H14B21995   3.814   6.082   6.414  0.8014 -0.1794  0.2551
  191POPC  H14C21996   3.893   5.966   6.504 -1.3171 -0.1135 -0.6176
  191POPC   C1521997   3.976   6.277   6.516 -0.3403  0.1475 -0.5891
  191POPC  H15A21998   3.919   6.330   6.441 -1.0509  1.2158  0.6780
  191POPC  H15B21999   4.069   6.332   6.522 -1.0378  1.1923  1.5041
  191POPC  H15C22000   3.927   6.276   6.612 -0.8359 -2.5573 -0.7717
  191POPC   C1122001   4.228   6.155   6.582 -0.4809 -0.5059 -0.2447
  191POPC  H11A22002   4.291   6.115   6.664 -2.1422 -1.7057  0.5030
  191POPC  H11B22003   4.193   6.251   6.625  1.7569 -0.3537  1.4313
  191POPC     P22004   4.383   6.072   6.384  0.1837  0.0859  0.1622
  191POPC   O1322005   4.393   6.103   6.240  1.0627  0.0312 -0.2737
  191POPC   O1422006   4.307   5.946   6.415 -0.3981  0.1478  0.0099
  191POPC   O1222007   4.300   6.190   6.459  0.1234 -0.1353  0.2000
  191POPC   O1122008   4.525   6.075   6.455  0.1047  0.4738 -0.4492
  191POPC    C122009   4.618   6.178   6.451 -0.0842 -0.4755 -0.4205
  191POPC    HA22010   4.567   6.268   6.491  0.5667 -0.5973  0.7244
  191POPC    HB22011   4.655   6.201   6.349  0.1647  1.3557  0.0441
  191POPC    C222012   4.730   6.139   6.552  0.0379 -0.0609  0.3024
  191POPC    HS22013   4.674   6.140   6.649 -1.2318  0.5246 -0.4112
  191POPC   O2122014   4.835   6.239   6.546  0.0496 -0.6045 -0.3106
  191POPC   C2122015   4.905   6.258   6.653  0.1594 -0.3662  0.1974
  191POPC   O2222016   4.890   6.208   6.763 -0.0405  0.0229  0.1546
  191POPC   C2222017   4.992   6.380   6.625 -1.1265 -0.2545 -1.1590
  191POPC   H2R22018   4.961   6.430   6.531 -0.0886  1.1947 -0.7560
  191POPC   H2S22019   5.093   6.333   6.621 -1.0926 -0.3094  0.0713
  191POPC    C322020   4.788   5.994   6.534  0.1925 -0.2300 -0.1415
  191POPC    HX22021   4.870   5.995   6.459 -1.4564 -0.1699 -2.0334
  191POPC    HY22022   4.703   5.937   6.491 -0.2629 -0.0304  0.4747
  191POPC   O3122023   4.828   5.936   6.659 -0.3985  0.4562  0.8247
  191POPC   C3122024   4.741   5.879   6.738  0.1554 -0.7234 -0.0638
  191POPC   O3222025   4.616   5.875   6.714 -0.4447 -0.2498  0.3843
  191POPC   C3222026   4.817   5.816   6.858 -0.5880 -0.8599  0.6779
  191POPC   H2X22027   4.865   5.895   6.920  1.1903 -1.8073  0.5793
  191POPC   H2Y22028   4.894   5.744   6.824  0.0869 -1.0276  2.4421
  191POPC   C2322029   4.978   6.478   6.748  0.3464  0.0147 -0.2390
  191POPC   H3R22030   5.042   6.568   6.743  2.5619 -1.3702  1.6119
  191POPC   H3S22031   5.025   6.433   6.837  1.1414  0.9990 -0.1470
  191POPC   C2422032   4.840   6.538   6.779 -0.5648 -0.3289 -0.7046
  191POPC   H4R22033   4.768   6.465   6.820 -0.3515 -0.4606 -0.5580
  191POPC   H4S22034   4.797   6.582   6.686  1.2168  0.6947 -1.1046
  191POPC   C2522035   4.858   6.661   6.874 -0.6134 -0.3482 -0.3515
  191POPC   H5R22036   4.764   6.720   6.868  0.0868  0.9309  0.6927
  191POPC   H5S22037   4.931   6.739   6.848 -1.6079  1.2155  1.3044
  191POPC   C2622038   4.886   6.620   7.022 -0.0184  0.4433  0.4662
  191POPC   H6R22039   4.900   6.712   7.082  2.3372 -0.1864  0.9928
  191POPC   H6S22040   4.985   6.568   7.024 -0.2392 -0.0975 -1.1409
  191POPC   C2722041   4.772   6.532   7.086 -0.1870  0.1394  0.6724
  191POPC   H7R22042   4.741   6.449   7.020  1.1492  0.0151  0.1694
  191POPC   H7S22043   4.678   6.588   7.106 -0.9192  0.0775 -2.1912
  191POPC   C2822044   4.820   6.465   7.217 -0.0754  0.3138  0.2516
  191POPC   H8R22045   4.920   6.418   7.204  0.5760  0.2613  4.1205
  191POPC   H8S22046   4.747   6.386   7.245 -0.3327  0.3653 -0.2683
  191POPC   C2922047   4.818   6.553   7.339 -1.2538 -1.1948  0.5829
  191POPC   H9122048   4.736   6.625   7.342  1.6788  2.4097  0.8281
  191POPC  C21022049   4.905   6.555   7.441  0.7068  0.6169 -0.2001
  191POPC  H10122050   4.893   6.635   7.516  0.1703  0.8990 -0.5830
  191POPC  C21122051   5.020   6.463   7.468 -0.1519  0.3226 -0.2047
  191POPC  H11R22052   5.110   6.513   7.426 -0.1223  0.2411 -0.2393
  191POPC  H11S22053   5.002   6.367   7.415  1.8439  0.4079 -1.1296
  191POPC  C21222054   5.071   6.420   7.609  0.1595 -0.4416 -0.1217
  191POPC  H12R22055   5.160   6.353   7.607 -0.5950 -1.4545 -1.3546
  191POPC  H12S22056   4.992   6.357   7.655 -0.8393  1.3657  0.7684
  191POPC  C21322057   5.121   6.542   7.696 -0.2446 -0.4110 -0.5749
  191POPC  H13R22058   5.046   6.624   7.705 -1.2667 -1.4629  0.7548
  191POPC  H13S22059   5.193   6.585   7.623 -0.1551  0.5231  0.0435
  191POPC  C21422060   5.161   6.497   7.838  0.4144 -0.9391  0.2990
  191POPC  H14R22061   5.224   6.406   7.836  2.2508  0.2823  0.7321
  191POPC  H14S22062   5.072   6.460   7.895 -0.1320  0.0091  0.0853
  191POPC  C21522063   5.213   6.617   7.918  0.3644  0.5921 -0.0652
  191POPC  H15R22064   5.136   6.693   7.944  0.5024  0.1561  1.7024
  191POPC  H15S22065   5.294   6.668   7.862  0.8979  0.5040  0.6134
  191POPC  C21622066   5.283   6.568   8.045 -0.9365 -0.6289  0.3635
  191POPC  H16R22067   5.341   6.473   8.034 -0.5362 -0.2691 -0.8184
  191POPC  H16S22068   5.202   6.553   8.119 -0.3863  1.5930  1.4973
  191POPC  C21722069   5.384   6.672   8.101 -0.0306 -0.3541  0.2426
  191POPC  H17R22070   5.464   6.699   8.030  0.1209  1.9003  1.1837
  191POPC  H17S22071   5.435   6.618   8.184 -1.2778 -0.5914  0.8867
  191POPC  C21822072   5.331   6.805   8.145 -0.1748 -0.3020 -0.1537
  191POPC  H18R22073   5.373   6.822   8.247 -0.8543 -0.7417  0.2046
  191POPC  H18S22074   5.222   6.808   8.164 -0.4909 -0.2897 -1.7986
  191POPC  H18T22075   5.362   6.891   8.081 -2.2101 -0.1940 -1.0699
  191POPC   C3322076   4.717   5.730   6.942  0.0321  0.1634  0.6217
  191POPC   H3X22077   4.675   5.644   6.887 -1.1480  0.0280  1.6886
  191POPC   H3Y22078   4.638   5.798   6.979 -1.4681 -0.9594 -0.4369
  191POPC   C3422079   4.784   5.674   7.063  0.0481  0.2667  1.0251
  191POPC   H4X22080   4.853   5.753   7.098  1.6946 -1.4364  1.8242
  191POPC   H4Y22081   4.843   5.582   7.044  0.3700  0.7524 -0.4646
  191POPC   C3522082   4.680   5.651   7.174  0.6511  0.8398 -0.0313
  191POPC   H5X22083   4.606   5.580   7.130  1.3906  0.8008 -1.2898
  191POPC   H5Y22084   4.634   5.748   7.199 -1.5025  0.3828 -1.8432
  191POPC   C3622085   4.731   5.586   7.303  0.4977  0.2509 -0.1653
  191POPC   H6X22086   4.792   5.494   7.292 -0.6741 -0.5141 -0.3574
  191POPC   H6Y22087   4.640   5.542   7.349 -0.3577  0.4391 -1.6156
  191POPC   C3722088   4.786   5.693   7.404 -0.3550  0.3382 -0.1148
  191POPC   H7X22089   4.714   5.777   7.406  0.0678  0.7196  2.2183
  191POPC   H7Y22090   4.884   5.726   7.363  0.9020  0.1264  2.4943
  191POPC   C3822091   4.800   5.628   7.541 -0.0501 -0.4565  0.1312
  191POPC   H8X22092   4.879   5.551   7.524 -0.6089 -0.8307 -0.8612
  191POPC   H8Y22093   4.703   5.583   7.572  0.4938 -1.0011  1.0942
  191POPC   C3922094   4.853   5.712   7.647 -0.0778  0.5642  0.8169
  191POPC   H9X22095   4.802   5.810   7.661 -3.1688 -0.3796 -2.3801
  191POPC   H9Y22096   4.957   5.746   7.623 -0.6640  2.5806  0.9049
  191POPC  C31022097   4.854   5.658   7.789  0.1788  0.8046  0.1097
  191POPC  H10X22098   4.902   5.559   7.804 -0.2605  0.5917  0.1259
  191POPC  H10Y22099   4.750   5.640   7.822  0.6738 -3.6885 -0.1167
  191POPC  C31122100   4.926   5.755   7.883  0.3228 -0.7629 -0.3967
  191POPC  H11X22101   4.890   5.859   7.870  2.6607 -0.0260 -1.5467
  191POPC  H11Y22102   5.031   5.762   7.847  0.9018  0.0644  1.3480
  191POPC  C31222103   4.936   5.690   8.022 -0.7603 -0.4460  0.6482
  191POPC  H12X22104   5.029   5.726   8.072 -1.7214  0.3886  1.9088
  191POPC  H12Y22105   4.953   5.581   8.014 -1.6870 -0.8052  2.8286
  191POPC  C31322106   4.812   5.706   8.114  0.5903  0.1273 -0.5388
  191POPC  H13X22107   4.719   5.663   8.071 -1.7304  1.5220  2.6769
  191POPC  H13Y22108   4.790   5.813   8.131  0.5010 -0.0029  0.2197
  191POPC  C31422109   4.830   5.631   8.246 -0.1944 -0.0588 -0.0170
  191POPC  H14X22110   4.895   5.692   8.313 -1.2457 -0.6336  1.5866
  191POPC  H14Y22111   4.882   5.534   8.230  0.8437  0.3409  0.7468
  191POPC  C31522112   4.700   5.606   8.326  0.6346  0.1619 -0.1584
  191POPC  H15X22113   4.715   5.534   8.409 -1.2091  0.2533  0.3105
  191POPC  H15Y22114   4.625   5.551   8.266  0.7196  2.1916 -2.2803
  191POPC  C31622115   4.648   5.740   8.375  0.0648  0.0218  0.1537
  191POPC  H16X22116   4.583   5.713   8.461  0.3023  3.6213  1.6330
  191POPC  H16Y22117   4.590   5.797   8.299  0.4201 -0.3814 -0.4208
  191POPC  H16Z22118   4.730   5.799   8.422  1.5309 -1.0617 -0.9492
  192POPC     N22119   4.115   2.476   5.893 -0.7674  0.2732  0.5898
  192POPC   C1222120   4.077   2.341   5.947  0.6106 -0.7397  0.9466
  192POPC  H12A22121   4.109   2.266   5.876  0.3423  0.1393 -0.1333
  192POPC  H12B22122   3.970   2.332   5.958  0.3854 -0.4148 -0.7183
  192POPC   C1322123   4.030   2.515   5.770 -0.0593 -0.0154 -0.5108
  192POPC  H13A22124   4.099   2.571   5.707  0.1017 -0.4654 -0.7350
  192POPC  H13B22125   4.005   2.426   5.715 -2.0134 -0.1679  0.5309
  192POPC  H13C22126   3.934   2.556   5.796 -1.3175 -2.5454 -0.8883
  192POPC   C1422127   4.105   2.587   5.989  0.3496  0.1606 -0.2406
  192POPC  H14A22128   4.087   2.678   5.934 -1.9354 -0.9625 -1.5198
  192POPC  H14B22129   4.024   2.576   6.060  0.1050 -0.4100 -0.5980
  192POPC  H14C22130   4.197   2.587   6.046  1.0090 -1.2578 -1.2673
  192POPC   C1522131   4.255   2.464   5.847 -0.2621 -0.6526  0.0965
  192POPC  H15A22132   4.274   2.403   5.760 -0.5100 -0.2970 -0.2141
  192POPC  H15B22133   4.320   2.420   5.921 -2.2551 -2.9634  0.6047
  192POPC  H15C22134   4.285   2.566   5.830 -1.2788 -0.3279  0.1291
  192POPC   C1122135   4.146   2.290   6.080  0.0800 -0.4356 -0.3121
  192POPC  H11A22136   4.115   2.183   6.080 -0.0961 -0.3912 -1.0804
  192POPC  H11B22137   4.097   2.350   6.159 -1.5335  2.3562 -3.1863
  192POPC     P22138   4.368   2.377   6.183  0.0236 -0.0114  0.1708
  192POPC   O1322139   4.286   2.496   6.226  0.0582  0.1297 -0.3836
  192POPC   O1422140   4.502   2.407   6.125 -0.7739 -0.4482 -0.0707
  192POPC   O1222141   4.290   2.297   6.074  0.4347  0.4766  0.2923
  192POPC   O1122142   4.375   2.273   6.303 -0.5036 -0.0178 -0.3888
  192POPC    C122143   4.347   2.133   6.285 -0.1287 -0.0116  0.0221
  192POPC    HA22144   4.382   2.095   6.187 -0.7152  0.6476 -0.4522
  192POPC    HB22145   4.240   2.106   6.299  0.1221 -0.4632  1.1883
  192POPC    C222146   4.437   2.056   6.391 -0.3778 -0.9877 -0.4697
  192POPC    HS22147   4.426   1.948   6.367  2.6850 -1.4575 -0.1744
  192POPC   O2122148   4.406   2.092   6.528 -0.0237  0.1030 -0.0569
  192POPC   C2122149   4.309   2.027   6.589  0.5983  0.5946  0.4055
  192POPC   O2222150   4.258   1.923   6.553  0.4130 -0.0325 -0.3320
  192POPC   C2222151   4.260   2.104   6.707  0.1543 -0.3656 -0.1506
  192POPC   H2R22152   4.200   2.181   6.655  0.6866 -0.4358 -0.8861
  192POPC   H2S22153   4.341   2.158   6.761 -0.5164 -0.1866  0.6939
  192POPC    C322154   4.593   2.079   6.358 -0.2198  0.1673 -0.3771
  192POPC    HX22155   4.607   2.189   6.349  1.3567  0.2858  2.3982
  192POPC    HY22156   4.617   2.028   6.262  0.8707 -0.9279  0.4468
  192POPC   O3122157   4.679   2.033   6.466 -0.1740 -0.3730  0.9855
  192POPC   C3122158   4.690   2.106   6.576  0.0025  0.3413  0.4142
  192POPC   O3222159   4.659   2.222   6.585 -0.2484  0.0129 -0.3573
  192POPC   C3222160   4.740   2.013   6.688 -0.0370 -0.2399  0.2718
  192POPC   H2X22161   4.833   1.969   6.645 -0.4198 -1.6332  0.8134
  192POPC   H2Y22162   4.659   1.937   6.688 -0.2216 -0.0644  1.6374
  192POPC   C2322163   4.180   2.021   6.809  0.9865 -0.3379 -0.2972
  192POPC   H3R22164   4.231   1.930   6.846  1.3404  0.2724  0.7600
  192POPC   H3S22165   4.083   2.004   6.757  0.7451 -1.1446  0.3892
  192POPC   C2422166   4.160   2.108   6.930 -0.2374 -0.0609 -1.0057
  192POPC   H4R22167   4.128   2.209   6.895 -0.0719 -0.2627 -1.7480
  192POPC   H4S22168   4.259   2.124   6.979 -0.5261 -3.1892  0.8300
  192POPC   C2522169   4.075   2.052   7.050 -0.2407 -0.8298  0.4245
  192POPC   H5R22170   4.107   1.947   7.066 -1.4354 -1.3698 -0.4966
  192POPC   H5S22171   3.965   2.045   7.035 -0.6238  2.9709  0.6140
  192POPC   C2622172   4.097   2.131   7.180 -0.4720 -0.0852 -0.6383
  192POPC   H6R22173   4.062   2.235   7.167  1.2202  0.4956 -0.7156
  192POPC   H6S22174   4.205   2.127   7.204 -0.6116  0.3691  0.0896
  192POPC   C2722175   4.014   2.068   7.297  0.2092 -0.6643  0.6533
  192POPC   H7R22176   4.052   1.966   7.317  1.6985  0.2255  2.7356
  192POPC   H7S22177   3.911   2.082   7.257  0.2067  0.0917  0.9021
  192POPC   C2822178   4.015   2.153   7.430  0.4266 -0.4493 -0.5595
  192POPC   H8R22179   3.936   2.107   7.494  2.1993 -1.6870  0.8297
  192POPC   H8S22180   3.975   2.251   7.398 -1.1825 -0.9433 -0.1705
  192POPC   C2922181   4.146   2.161   7.507 -0.3283  0.3376 -0.1838
  192POPC   H9122182   4.232   2.169   7.439 -0.1590  0.2513  0.0167
  192POPC  C21022183   4.159   2.163   7.643 -0.9290 -0.1522  0.2309
  192POPC  H10122184   4.259   2.176   7.686 -1.1245  1.8819  0.1751
  192POPC  C21122185   4.050   2.160   7.746  0.7529  1.0039 -0.3578
  192POPC  H11R22186   3.961   2.210   7.704 -0.4928 -1.3870 -0.7386
  192POPC  H11S22187   4.082   2.206   7.842  1.2351  2.4690 -1.1860
  192POPC  C21222188   4.000   2.017   7.763 -0.2141  0.5401 -0.1704
  192POPC  H12R22189   4.086   1.949   7.781 -0.3525  0.5444  0.5467
  192POPC  H12S22190   3.961   1.980   7.665  1.6854 -0.5435 -0.5554
  192POPC  C21322191   3.881   2.005   7.863  0.5046 -0.5212 -0.5812
  192POPC  H13R22192   3.829   1.911   7.836 -0.3781  0.0712 -0.9855
  192POPC  H13S22193   3.818   2.096   7.847  2.1550  0.4789 -1.6926
  192POPC  C21422194   3.918   1.987   8.014  0.0765 -0.5616  0.1152
  192POPC  H14R22195   3.967   2.083   8.041 -2.2442  0.3138  1.5416
  192POPC  H14S22196   3.988   1.903   8.031  0.8387  0.3022  1.3641
  192POPC  C21522197   3.797   1.971   8.112 -0.5143  0.6446  0.6263
  192POPC  H15R22198   3.752   1.875   8.079  2.3702 -0.8071  0.5987
  192POPC  H15S22199   3.717   2.047   8.100 -0.5364  0.4544 -0.6190
  192POPC  C21622200   3.832   1.956   8.264  0.2266  0.1960  0.1007
  192POPC  H16R22201   3.880   2.051   8.297 -0.5790  0.9646 -0.8663
  192POPC  H16S22202   3.905   1.873   8.273 -1.1763 -1.0781  0.2479
  192POPC  C21722203   3.709   1.917   8.351 -0.6091 -0.5183  0.9408
  192POPC  H17R22204   3.672   1.824   8.302 -0.2453 -0.4526  0.5359
  192POPC  H17S22205   3.639   1.999   8.324 -1.9751 -1.7106  0.7164
  192POPC  C21822206   3.728   1.901   8.498 -0.4293 -0.4296 -1.1106
  192POPC  H18R22207   3.815   1.834   8.512  0.3041  0.3258 -1.9220
  192POPC  H18S22208   3.642   1.849   8.545  0.6409 -1.6415 -0.4488
  192POPC  H18T22209   3.744   1.999   8.547  2.0096  0.8976 -4.1879
  192POPC   C3322210   4.776   2.079   6.821 -0.5021  0.2211 -0.5730
  192POPC   H3X22211   4.834   2.169   6.791 -0.4477  0.1774 -0.5996
  192POPC   H3Y22212   4.841   2.010   6.880  0.7946  0.9907 -1.0452
  192POPC   C3422213   4.657   2.108   6.918  0.4764 -0.0606 -0.8503
  192POPC   H4X22214   4.595   2.017   6.933  1.0436 -0.0774  1.9588
  192POPC   H4Y22215   4.595   2.178   6.858 -2.7622 -1.8691  0.1758
  192POPC   C3522216   4.701   2.174   7.053  0.5694 -0.6270  0.6973
  192POPC   H5X22217   4.722   2.281   7.031 -1.8715 -0.3087 -0.4630
  192POPC   H5Y22218   4.794   2.123   7.085  0.6951 -1.4689 -0.9374
  192POPC   C3622219   4.586   2.150   7.155 -0.2409  0.3190 -0.0409
  192POPC   H6X22220   4.527   2.056   7.142  0.0571  0.2329 -0.8142
  192POPC   H6Y22221   4.504   2.224   7.145  0.6656  1.3720  0.0859
  192POPC   C3722222   4.633   2.148   7.302 -0.0583 -0.1341 -0.2263
  192POPC   H7X22223   4.702   2.062   7.316  0.9207  0.8495  1.3132
  192POPC   H7Y22224   4.539   2.129   7.357 -0.7171  0.2525 -1.1851
  192POPC   C3822225   4.691   2.283   7.332 -0.6976  0.3143  0.1994
  192POPC   H8X22226   4.599   2.344   7.318 -2.3462 -1.4167  2.6242
  192POPC   H8Y22227   4.772   2.310   7.261 -1.3972 -0.1679 -0.8107
  192POPC   C3922228   4.726   2.308   7.484  0.0068 -0.0211 -0.2521
  192POPC   H9X22229   4.801   2.389   7.494  1.2739 -1.2041  0.1503
  192POPC   H9Y22230   4.785   2.224   7.527 -1.2800 -0.7225  0.2128
  192POPC  C31022231   4.607   2.316   7.580  0.7950 -0.1322 -0.0727
  192POPC  H10X22232   4.553   2.219   7.581 -0.2412  0.4060  2.2025
  192POPC  H10Y22233   4.547   2.405   7.555  0.8730  0.3825  1.4360
  192POPC  C31122234   4.667   2.341   7.724 -0.8117 -0.0792  0.2971
  192POPC  H11X22235   4.733   2.430   7.713 -1.2047  0.0532 -1.3131
  192POPC  H11Y22236   4.726   2.256   7.766  0.2189 -0.4586 -1.7693
  192POPC  C31222237   4.565   2.387   7.825 -0.2910  0.4829  0.2954
  192POPC  H12X22238   4.489   2.458   7.784 -1.5274 -0.8725  0.1608
  192POPC  H12Y22239   4.620   2.448   7.900  3.7600 -1.8859 -0.4764
  192POPC  C31322240   4.494   2.268   7.897  0.1455 -0.0201 -0.1135
  192POPC  H13X22241   4.572   2.219   7.959  0.0423  1.1949  1.0062
  192POPC  H13Y22242   4.464   2.193   7.820  1.5100  0.9606 -1.6687
  192POPC  C31422243   4.382   2.308   7.996 -0.0765  0.2379  0.1046
  192POPC  H14X22244   4.306   2.370   7.943 -1.0919 -0.7212  0.4112
  192POPC  H14Y22245   4.435   2.373   8.069 -2.6941  2.2677  0.3608
  192POPC  C31522246   4.307   2.188   8.062 -0.8202 -0.0159  0.3393
  192POPC  H15X22247   4.324   2.103   7.993  2.2947 -0.1535  1.1192
  192POPC  H15Y22248   4.200   2.213   8.078 -0.7611 -0.4868  1.5447
  192POPC  C31622249   4.372   2.150   8.199 -0.3589 -0.6507 -0.9313
  192POPC  H16X22250   4.381   2.231   8.274  1.5022 -1.7635  0.0974
  192POPC  H16Y22251   4.479   2.124   8.198  0.3798  1.9434  0.6509
  192POPC  H16Z22252   4.298   2.078   8.240 -0.5839 -0.1436 -0.4385
  193SOD    SOD22253   3.254   6.335   4.825  0.3725  0.6127 -0.6003
  194SOD    SOD22254   1.185   5.150  15.937  0.2040  0.0821 -0.3805
  195SOD    SOD22255   5.521   5.836  12.733  0.1239  0.0594 -0.1684
  196SOD    SOD22256   5.736   0.051  11.700 -0.3218 -0.3476 -0.3129
  197SOD    SOD22257   4.458   2.634  10.688  0.3942 -0.2902  0.0714
  198SOD    SOD22258   6.076   0.564   4.605  0.1525  0.0349  0.5757
  199SOD    SOD22259   2.704   0.943  11.272  0.2611 -0.2453  0.2021
  200SOD    SOD22260   1.808   0.190   1.339  0.5299  0.0892 -0.1285
  201SOD    SOD22261   3.520   1.413  15.391  0.2087 -0.0401  0.1452
  202SOD    SOD22262   2.495   2.882   3.926 -0.1735 -0.0660  0.1417
  203SOD    SOD22263   3.788   3.964   4.942 -0.1738 -0.2372  0.5738
  204SOD    SOD22264   4.854   3.167  11.431 -0.4636 -0.0423 -0.1280
  205SOD    SOD22265   2.852   3.740   0.367 -0.1121  0.0325 -0.1210
  206SOD    SOD22266   4.588   5.605   1.836  0.0208 -0.0425  0.6419
  207SOD    SOD22267   1.557   3.895  15.870  0.4100  0.3863  0.2322
  208SOD    SOD22268   2.874   5.653   5.977 -0.0540 -0.1784  0.1274
  209SOD    SOD22269   3.327   6.783  16.764  0.0044 -0.1063  0.2033
  210SOD    SOD22270   6.295   5.417  15.956 -0.3994 -0.2871  0.1812
  211SOD    SOD22271   0.653   0.904   3.514  0.4236 -0.5135 -0.5187
  212SOD    SOD22272   5.943   4.427  13.731 -0.3692  0.3455  0.6126
  213SOD    SOD22273   0.192   4.079  11.165 -0.0065 -0.2900  0.0086
  214SOD    SOD22274   4.704   4.111  11.001 -0.2901 -0.4087 -0.3867
  215SOD    SOD22275   4.982   2.975  16.886  0.4535 -0.3270 -0.3429
  216SOD    SOD22276   4.172   1.286  15.894 -0.3093 -0.0974  0.5021
  217SOD    SOD22277   2.886   0.606   5.774 -0.1788 -0.2868  0.1339
  218SOD    SOD22278   5.160   2.484  15.064  0.1328  0.2557 -0.0247
  219SOD    SOD22279   0.295   3.011   1.455  0.0713 -0.1713 -0.2359
  220SOD    SOD22280   1.552   1.654  13.249  0.7726 -0.1764  0.2330
  221SOD    SOD22281   1.041   3.861   2.258 -0.5293 -0.0180  0.5293
  222SOD    SOD22282   1.006   4.741   1.860 -0.0298  0.1274  0.5589
  223SOD    SOD22283   0.311   3.291   5.653 -0.7898 -0.2115  0.6868
  224SOD    SOD22284   0.925   5.777   5.539  0.3093 -0.1434  0.3766
  225SOD    SOD22285   5.908   2.042  13.463 -0.4395  0.1827 -0.0661
  226SOD    SOD22286   3.429   1.053  13.764 -0.2221 -0.5973  0.1088
  227SOD    SOD22287   0.757   1.534  13.492  0.5186  0.0571 -0.0628
  228SOD    SOD22288   0.783   5.640  16.417 -0.0039 -0.0783 -0.3305
  229SOD    SOD22289   0.370   0.006  12.444  0.3188  0.1829  0.0964
  230SOD    SOD22290   5.495   5.821   2.129 -0.0196  0.2990  0.1441
  231SOD    SOD22291   4.323   1.907   1.424  0.2445  0.4533  0.0948
  232SOD    SOD22292   5.156   5.064  14.926 -0.2909 -0.1710 -0.0135
  233SOD    SOD22293   3.878   4.805  11.449 -0.0178  0.0536 -0.0773
  234SOD    SOD22294   0.862   3.302   2.535 -0.4973  0.1786  0.1271
  235SOD    SOD22295   5.989   5.337   4.909 -0.1048 -0.2204 -0.1590
  236SOD    SOD22296   5.792   4.611  11.212 -0.3285 -0.0395 -0.1419
  237SOD    SOD22297   0.936   1.474  15.400 -0.2654  0.1913  0.1673
  238SOD    SOD22298   2.891   2.677  11.715  0.1591  0.3260 -0.4677
  239SOD    SOD22299   0.495   1.482  11.783 -0.3574  0.2013 -0.0669
  240SOD    SOD22300   5.598   3.505   4.695  0.3334  0.2495  0.0684
  241SOD    SOD22301   1.428   0.370  11.509  0.1117 -0.3125  0.1542
  242SOD    SOD22302   0.766   1.458   3.166  0.2066  0.6461 -0.4712
  243SOD    SOD22303   5.483   0.139  17.196  0.2088 -0.0105  0.3622
  244SOD    SOD22304   0.442   3.142   3.969 -0.2941  0.1175  0.5794
  245SOD    SOD22305   4.370   6.786  15.049 -0.0529  0.2681  0.5072
  246SOD    SOD22306   6.233   6.388   4.558  0.4651  0.3155  0.3242
  247SOD    SOD22307   3.112   6.101  11.026 -0.1343  0.7681 -0.2601
  248SOD    SOD22308   6.744   2.400   2.454  0.0367  0.4994 -0.1156
  249SOD    SOD22309   4.291   1.663  10.613 -0.1249 -0.5544 -0.4387
  250SOD    SOD22310   2.483   6.197  14.815 -0.2991  0.1607  0.0369
  251SOD    SOD22311   4.827   5.896   0.098 -0.1122 -0.5699  0.7131
  252SOD    SOD22312   0.250   3.879   4.371  0.1301  0.1795  0.0223
  253SOD    SOD22313   6.318   1.271   1.714 -0.0002 -0.2557 -0.1367
  254SOD    SOD22314   5.371   4.214   0.189 -0.0391 -0.1991  0.4701
  255SOD    SOD22315   5.638   3.459  12.918 -0.1323 -0.3190  0.0538
  256SOD    SOD22316   2.618   1.788  14.967  0.3872  0.5116 -0.2169
  257SOD    SOD22317   3.116   1.489   0.825 -0.4639 -0.2118 -0.3310
  258SOD    SOD22318   2.122   1.670   4.890  0.4239 -0.5510  0.1977
  259SOD    SOD22319   1.790   1.104   3.721  0.2404  0.0101 -0.3189
  260SOD    SOD22320   5.625   5.238  11.827 -0.0103 -0.0419 -0.3050
  261SOD    SOD22321   2.284   5.432  16.831  0.1399  0.0977 -0.1655
  262SOD    SOD22322   0.935   3.343   5.708 -0.4658  0.0883  0.3170
  263SOD    SOD22323   5.668   5.336   6.419  0.1355 -0.1644 -0.1298
  264SOD    SOD22324   2.264   3.306  13.121  0.5035 -0.2315 -0.1090
  265SOD    SOD22325   0.553   4.963  11.107  0.1008 -0.1831 -0.0742
  266SOD    SOD22326   4.968   0.909  13.164 -0.2830 -0.6336  0.1948
  267SOD    SOD22327   4.023   4.023   0.804  0.3947 -0.2741 -0.1645
  268SOD    SOD22328   1.769   4.732   4.080 -0.1777 -0.1999  0.0921
  269SOD    SOD22329   2.010   0.311   6.488 -0.2189 -0.1656 -0.0258
  270CLA    CLA22330   2.677   3.408  17.121  0.0192 -0.2454 -0.1626
  271CLA    CLA22331   0.101   6.610   1.351 -0.0365  0.0579 -0.0137
  272CLA    CLA22332   1.444   6.602  16.510 -0.5294 -0.1382  0.1282
  273CLA    CLA22333   0.235   4.597  14.318  0.0554 -0.0074 -0.0875
  274CLA    CLA22334   4.207   5.943   0.387 -0.3555  0.0968 -0.1599
  275CLA    CLA22335   0.778   5.248  16.267  0.2091 -0.1514  0.0663
  276CLA    CLA22336   1.714   4.064  16.844 -0.2370 -0.0677  0.0659
  277CLA    CLA22337   6.580   6.321  15.659 -0.1428  0.1386 -0.0223
  278CLA    CLA22338   5.584   3.030   0.594  0.0374  0.0258 -0.1257
  279CLA    CLA22339   2.377   0.584   2.508 -0.1524 -0.1012  0.4668
  280CLA    CLA22340   2.792   4.717   3.708 -0.0505 -0.0060  0.1018
  281CLA    CLA22341   1.297   3.431   1.412 -0.1705  0.2435 -0.2032
  282CLA    CLA22342   3.086   0.538  15.359 -0.3398  0.3870  0.3061
  283CLA    CLA22343   2.236   0.769  11.429  0.1015 -0.0834 -0.1621
  284CLA    CLA22344   4.914   4.669  15.504 -0.3821 -0.0630 -0.1200
  285CLA    CLA22345   3.403   5.928   4.682  0.3872 -0.2366  0.3144
  286CLA    CLA22346   3.738   1.428  11.940  0.0681  0.6508 -0.1077
  287CLA    CLA22347   5.404   0.870   1.539 -0.0478  0.0613 -0.3111
  288CLA    CLA22348   0.658   5.519  16.852 -0.0673  0.0098  0.0319
  289CLA    CLA22349   5.227   4.429   2.503  0.4992  0.0898  0.0419
  290CLA    CLA22350   1.985   3.863  13.672 -0.1752  0.0823 -0.5641
  291CLA    CLA22351   3.355   1.980  15.683  0.0906  0.2452  0.1904
  292CLA    CLA22352   6.253   4.215   0.052 -0.1111  0.0858 -0.2604
  293CLA    CLA22353   3.212   0.919  13.121 -0.1847  0.2309 -0.4213
  294CLA    CLA22354   3.878   0.885  16.573 -0.2637  0.3320  0.0211
  295CLA    CLA22355   3.000   3.531   0.329  0.2327  0.0404  0.0380
  296CLA    CLA22356   5.837   4.137   4.609 -0.1031 -0.0504 -0.4176
  297CLA    CLA22357   0.189   3.094   2.010  0.4536  0.1583 -0.0326
  298CLA    CLA22358   4.921   5.467  13.630 -0.0679 -0.1558 -0.4696
  299CLA    CLA22359   6.726   5.770  11.994 -0.0236 -0.0456  0.3280
  300CLA    CLA22360   2.808   2.200  17.062 -0.1742 -0.1159 -0.1988
  301CLA    CLA22361   3.285   3.052  12.036 -0.3837  0.0240  0.2307
  302CLA    CLA22362   5.684   0.879   2.910 -0.3651  0.0648  0.1465
  303CLA    CLA22363   3.650   4.856  13.265  0.0553  0.3182  0.2543
  304CLA    CLA22364   6.172   0.082   4.824 -0.0010  0.1396  0.2659
  305CLA    CLA22365   1.962   4.670   1.245 -0.0217 -0.0461  0.2493
  306CLA    CLA22366   1.649   1.481  14.055  0.0086  0.2215 -0.6813
  307CLA    CLA22367   1.672   2.769  12.676 -0.2505 -0.0494  0.5250
  308CLA    CLA22368   1.679   5.172  15.978 -0.0976 -0.2107  0.3083
  309CLA    CLA22369   0.016   3.416   2.330 -0.0254 -0.0482 -0.4398
  310CLA    CLA22370   3.626   2.676   4.597 -0.0151 -0.1206 -0.4838
  311CLA    CLA22371   2.742   0.512   1.605 -0.0468  0.1149 -0.1141
  312CLA    CLA22372   4.995   4.407   1.953  0.0542  0.2769 -0.1891
  313CLA    CLA22373   2.119   0.637  15.510 -0.0905 -0.3300 -0.1797
  314CLA    CLA22374   3.224   0.207   5.792  0.3037  0.1078  0.1468
  315CLA    CLA22375   1.472   3.424  13.878 -0.2008 -0.1407 -0.1782
  316CLA    CLA22376   6.729   5.071  11.635  0.0110 -0.2883  0.3109
  317CLA    CLA22377   4.644   2.477  15.627  0.6287 -0.4402  0.1604
  318CLA    CLA22378   4.096   1.796  15.395 -0.1112  0.0762  0.0078
  319CLA    CLA22379   4.850   6.627   3.866  0.3268  0.3866 -0.2906
  320CLA    CLA22380   4.950   6.523  15.648  0.1468 -0.1474 -0.4027
  321CLA    CLA22381   0.167   4.369   1.877 -0.4708  0.1863  0.0572
  322CLA    CLA22382   4.866   6.160  15.405 -0.3865 -0.0362  0.0227
  323TIP3   OH222383   4.016   0.457   6.160 -0.0904 -0.2139 -0.2223
  323TIP3    H122384   3.988   0.535   6.209  1.0938  0.0436  0.0779
  323TIP3    H222385   3.995   0.384   6.219 -0.2516 -0.0424 -0.0628
  324TIP3   OH222386   0.436   5.657   3.661  0.7120  0.2218  0.6801
  324TIP3    H122387   0.396   5.723   3.605  1.8664  0.3348 -0.0585
  324TIP3    H222388   0.498   5.612   3.604 -0.4289 -1.8951  0.9998
  325TIP3   OH222389   1.196   3.002  14.546 -0.1152 -0.3277  0.1219
  325TIP3    H122390   1.272   2.951  14.518 -1.1496 -1.9583  0.1658
  325TIP3    H222391   1.151   3.025  14.465 -0.1257 -0.2591  0.1469
  326TIP3   OH222392   6.653   3.645  15.385  0.4017 -0.5048 -0.4530
  326TIP3    H122393   6.728   3.685  15.429 -0.7816  1.9791 -0.5273
  326TIP3    H222394   6.581   3.706  15.401 -1.2069 -1.9586 -1.8139
  327TIP3   OH222395   3.856   1.662  15.526  0.0042 -0.2710  0.5189
  327TIP3    H122396   3.859   1.636  15.618 -1.8725  0.2488  0.7604
  327TIP3    H222397   3.941   1.704  15.510  0.8643 -1.5198  1.6302
  328TIP3   OH222398   4.539   4.525   3.763  0.2572  0.4866  0.0126
  328TIP3    H122399   4.455   4.484   3.743  0.4519  0.1925 -0.2219
  328TIP3    H222400   4.536   4.610   3.720  0.1121  0.4415 -0.0653
  329TIP3   OH222401   0.319   4.448   0.320 -0.7565 -0.4959  1.0036
  329TIP3    H122402   0.295   4.416   0.233 -0.1612  1.6736 -0.0432
  329TIP3    H222403   0.343   4.370   0.369 -3.1956 -2.0267 -0.0616
  330TIP3   OH222404   3.013   6.670  12.791 -0.1553 -0.0594  0.3423
  330TIP3    H122405   2.922   6.673  12.761 -0.2780 -0.3099  0.6805
  330TIP3    H222406   3.033   6.576  12.794  0.5043  0.0215 -0.8926
  331TIP3   OH222407   1.682   0.261   6.213  0.6189  0.3779 -0.2263
  331TIP3    H122408   1.608   0.239   6.156  0.7193  1.3273 -0.7299
  331TIP3    H222409   1.747   0.193   6.194  0.7119  0.7692 -1.3565
  332TIP3   OH222410   3.450   3.151  14.861  0.4306  0.5779 -0.1290
  332TIP3    H122411   3.440   3.128  14.953 -1.5201  0.4173 -0.3349
  332TIP3    H222412   3.545   3.158  14.847  0.7496  0.6053  1.8706
  333TIP3   OH222413   2.337   6.498   3.343  0.0695 -0.0625 -0.4157
  333TIP3    H122414   2.383   6.421   3.378 -0.3058 -0.4242 -0.7191
  333TIP3    H222415   2.382   6.517   3.261  0.4899  0.3578 -0.0992
  334TIP3   OH222416   2.589   4.116   2.638  0.1794 -0.2984  0.1738
  334TIP3    H122417   2.541   4.076   2.565  0.2122 -1.7111  0.8860
  334TIP3    H222418   2.521   4.158   2.691 -0.0929 -0.9807  0.3743
  335TIP3   OH222419   5.257   1.247   5.792  0.1332 -0.5082  0.2193
  335TIP3    H122420   5.240   1.322   5.849 -2.0328 -1.0204  0.3467
  335TIP3    H222421   5.259   1.172   5.851 -3.1601 -1.1846 -0.3259
  336TIP3   OH222422   3.662   6.186   4.700  0.6864 -0.4357 -0.1155
  336TIP3    H122423   3.638   6.190   4.607 -0.2880 -0.5153  0.1201
  336TIP3    H222424   3.629   6.100   4.728 -1.8831  0.8104  1.0388
  337TIP3   OH222425   4.708   0.234  14.115  0.3111  0.0730 -0.3288
  337TIP3    H122426   4.783   0.294  14.117  0.3180  0.0797 -0.7244
  337TIP3    H222427   4.743   0.152  14.149  0.3072  0.2872  0.1996
  338TIP3   OH222428   6.004   3.037  13.844  0.5380  0.0691 -0.6132
  338TIP3    H122429   5.909   3.032  13.851  0.5214  0.6685 -0.3444
  338TIP3    H222430   6.036   3.000  13.927  0.4682  2.0919  0.3738
  339TIP3   OH222431   6.209   2.265  15.921  0.2335 -1.0888 -0.2241
  339TIP3    H122432   6.170   2.300  15.841 -0.7230  2.1182  1.4533
  339TIP3    H222433   6.301   2.293  15.917  0.0446 -0.3952  0.0029
  340TIP3   OH222434   0.217   5.207   0.027 -0.0604 -0.3938 -0.2149
  340TIP3    H122435   0.275   5.207   0.104  1.3729  0.1442 -1.2330
  340TIP3    H222436   0.209   5.115   0.003  0.4080 -0.4761 -0.0747
  341TIP3   OH222437   2.029   2.329   2.637  0.0790  0.2629  0.6288
  341TIP3    H122438   2.123   2.315   2.643  0.1437  0.1690 -0.3496
  341TIP3    H222439   2.000   2.342   2.727  1.0543  0.4725  0.9215
  342TIP3   OH222440   6.343   1.360  11.495 -0.1546  0.0984  0.2432
  342TIP3    H122441   6.273   1.421  11.469 -1.6461 -1.4921  0.3745
  342TIP3    H222442   6.317   1.330  11.582  0.1749 -1.2551 -0.1077
  343TIP3   OH222443   5.035   1.104   4.138  0.6832  0.3685  0.1591
  343TIP3    H122444   4.978   1.178   4.158  0.7020  0.2427  0.6963
  343TIP3    H222445   4.996   1.063   4.062 -0.4664 -0.2664  1.0683
  344TIP3   OH222446   5.518   2.692   3.057  0.4333 -0.3326  0.2932
  344TIP3    H122447   5.557   2.605   3.065 -2.0989 -1.5940  0.2272
  344TIP3    H222448   5.431   2.682   3.096  0.2812  2.3694  0.8240
  345TIP3   OH222449   0.015   0.115   4.880  0.1009 -0.6867 -0.0038
  345TIP3    H122450  -0.021   0.182   4.938 -0.0075  0.8349 -1.7322
  345TIP3    H222451  -0.053   0.048   4.875 -1.4777  0.9000 -1.1724
  346TIP3   OH222452   5.656   5.385   5.807 -0.3305  0.3052  0.1509
  346TIP3    H122453   5.595   5.409   5.877 -0.9376 -0.7637  0.0098
  346TIP3    H222454   5.656   5.289   5.807  0.0891  0.2934 -0.9377
  347TIP3   OH222455   3.783   5.802  14.930 -0.0003 -0.0774 -0.7566
  347TIP3    H122456   3.796   5.895  14.949  0.5110 -0.3210  0.1280
  347TIP3    H222457   3.731   5.801  14.850 -0.4135  0.9719 -0.5156
  348TIP3   OH222458   2.034   2.293  13.280 -0.5986  0.0402  0.3390
  348TIP3    H122459   2.000   2.357  13.218  0.3669  0.8116  0.5694
  348TIP3    H222460   1.966   2.285  13.347 -1.8634 -1.1531 -1.0149
  349TIP3   OH222461   4.445   2.754   4.517 -0.0924  0.0047  0.4128
  349TIP3    H122462   4.355   2.743   4.488 -0.4956  1.6732  0.9666
  349TIP3    H222463   4.488   2.672   4.492 -0.9137  0.4438 -2.8861
  350TIP3   OH222464   5.606   4.894   5.367  0.4174 -0.4045  0.4679
  350TIP3    H122465   5.574   4.908   5.278  1.9918  0.9519  0.0801
  350TIP3    H222466   5.554   4.954   5.421  0.1723 -0.4833  0.3211
  351TIP3   OH222467   2.059   5.514  11.950  0.3168  0.1077 -0.2871
  351TIP3    H122468   2.022   5.521  12.038 -1.9913  0.6908 -1.2409
  351TIP3    H222469   1.985   5.492  11.894  1.6985 -0.0908 -2.1422
  352TIP3   OH222470   1.181   4.701   0.273 -0.2387 -0.7364 -0.0343
  352TIP3    H122471   1.133   4.633   0.320  1.0312 -0.2727  2.0472
  352TIP3    H222472   1.263   4.660   0.247 -0.9551 -1.0074 -2.0063
  353TIP3   OH222473   1.514   5.267   5.597 -0.4796 -0.5388 -0.2631
  353TIP3    H122474   1.474   5.212   5.664  0.6307  1.1426  1.9062
  353TIP3    H222475   1.449   5.335   5.580  0.0131  0.2129  0.7106
  354TIP3   OH222476   2.006   2.830  12.997 -0.3970  0.1563  0.2106
  354TIP3    H122477   1.990   2.788  12.912  0.6922  1.1156 -0.5130
  354TIP3    H222478   2.100   2.821  13.010 -0.3212  1.3031  0.5932
  355TIP3   OH222479   6.622   6.298   4.011  0.4268 -0.0536  0.4290
  355TIP3    H122480   6.690   6.281   3.946  0.2629 -0.1461  0.2816
  355TIP3    H222481   6.664   6.281   4.095  1.2045  1.8115  0.4781
  356TIP3   OH222482   0.007   3.787   1.139  0.0296 -0.7255 -0.0666
  356TIP3    H122483  -0.060   3.841   1.180  1.2637  0.1205  0.8836
  356TIP3    H222484  -0.039   3.706   1.115 -1.6572  0.4196 -0.8078
  357TIP3   OH222485   3.794   6.045  11.730  0.3537 -0.0435  0.0261
  357TIP3    H122486   3.765   6.130  11.696  0.6366  0.9296  2.0250
  357TIP3    H222487   3.880   6.032  11.692 -0.7745 -0.8041 -2.4449
  358TIP3   OH222488   0.856   1.478  15.611 -0.3174  0.0160 -0.0904
  358TIP3    H122489   0.864   1.424  15.690 -0.7174  0.4031  0.2180
  358TIP3    H222490   0.871   1.568  15.641 -2.3829  0.4002 -0.0748
  359TIP3   OH222491   3.004   4.246  13.485  0.4074 -0.0053  0.0939
  359TIP3    H122492   3.093   4.240  13.449  0.3182 -1.5918  0.0694
  359TIP3    H222493   2.971   4.156  13.483 -1.6341  0.6918 -0.9681
  360TIP3   OH222494   5.529   5.349  14.786  0.2586 -0.3021 -0.4639
  360TIP3    H122495   5.530   5.269  14.839  1.0145  1.0176  1.6191
  360TIP3    H222496   5.491   5.416  14.844 -0.7913  0.7892 -2.3043
  361TIP3   OH222497   2.487   6.049   5.459  0.0347 -0.2601  0.2590
  361TIP3    H122498   2.460   6.134   5.494  1.8116  0.9062 -0.9964
  361TIP3    H222499   2.409   5.994   5.466 -1.3693  1.6499  0.5415
  362TIP3   OH222500   2.495   3.211   3.240 -0.0569  0.0790 -0.1321
  362TIP3    H122501   2.572   3.247   3.197  1.4420 -1.4331  1.1714
  362TIP3    H222502   2.434   3.285   3.246  0.7550  0.9977 -2.3058
  363TIP3   OH222503   0.163   3.248  11.927 -0.3364  0.9075 -0.3780
  363TIP3    H122504   0.240   3.198  11.899  1.7243  2.2629  2.3982
  363TIP3    H222505   0.171   3.331  11.880  1.0384  1.7577  1.2503
  364TIP3   OH222506   0.203   0.657   1.293  0.1659 -0.5677 -0.6948
  364TIP3    H122507   0.120   0.621   1.261 -0.8685 -0.1808  1.3209
  364TIP3    H222508   0.267   0.589   1.275  0.1600  0.2775 -5.0604
  365TIP3   OH222509   2.584   2.621  15.390  0.8761  0.7330 -0.1327
  365TIP3    H122510   2.647   2.553  15.368  0.2896  0.3694 -0.7394
  365TIP3    H222511   2.536   2.587  15.465  0.4854  0.4020 -0.5262
  366TIP3   OH222512   3.949   5.787  14.079 -0.1254 -0.3375 -0.2336
  366TIP3    H122513   4.003   5.811  14.155 -1.9421  2.8662  0.2375
  366TIP3    H222514   3.984   5.841  14.008  0.5424 -2.1519 -1.3633
  367TIP3   OH222515   2.435   0.859  13.623 -1.0979 -0.1854  0.1293
  367TIP3    H122516   2.346   0.880  13.596 -1.4123 -1.5381  0.0430
  367TIP3    H222517   2.424   0.815  13.708 -0.4599  0.2120  0.4213
  368TIP3   OH222518   4.445   4.456  14.884  0.1137  0.1484  0.2759
  368TIP3    H122519   4.473   4.377  14.837  0.4077  0.4989 -0.1394
  368TIP3    H222520   4.351   4.462  14.868  0.4923  1.2458 -1.7707
  369TIP3   OH222521   0.131   1.057  15.760  0.3558 -0.9418 -0.3682
  369TIP3    H122522   0.192   1.041  15.688  1.0748 -1.7683  0.3896
  369TIP3    H222523   0.095   1.144  15.743  1.7584 -0.4281 -0.8581
  370TIP3   OH222524   5.758   2.887  15.495 -0.4030 -0.2216  0.1901
  370TIP3    H122525   5.729   2.866  15.583  1.2111  1.1985  1.1170
  370TIP3    H222526   5.678   2.891  15.443 -1.5785  0.8626  2.0182
  371TIP3   OH222527   5.642   5.292  13.860 -0.2911 -0.5329 -0.6128
  371TIP3    H122528   5.629   5.202  13.892 -2.1347 -0.2889 -0.5289
  371TIP3    H222529   5.613   5.347  13.932  0.0245  0.1084 -0.9726
  372TIP3   OH222530   5.984   6.571  15.177  0.0114  0.1490  0.3338
  372TIP3    H122531   6.040   6.494  15.166 -0.2017 -0.1348  1.1252
  372TIP3    H222532   6.006   6.628  15.104  0.1521 -0.6786 -0.2839
  373TIP3   OH222533   2.478   3.117  14.499  0.4506  0.0144  0.3982
  373TIP3    H122534   2.391   3.097  14.533 -0.2917  1.3314 -0.6183
  373TIP3    H222535   2.486   3.065  14.420 -0.4502  1.6409 -0.8415
  374TIP3   OH222536   2.309   5.899   2.105  0.4514  0.1582 -0.6068
  374TIP3    H122537   2.387   5.905   2.160  0.3242 -0.7838 -0.3173
  374TIP3    H222538   2.340   5.865   2.021  0.3365 -0.3138 -0.4579
  375TIP3   OH222539   5.136   1.934  14.242  0.3641  0.4505  0.1064
  375TIP3    H122540   5.184   1.886  14.174  0.8759 -1.0417  1.4473
  375TIP3    H222541   5.052   1.955  14.202  0.5740 -0.5976 -0.9326
  376TIP3   OH222542   2.436   3.800  13.804 -0.3464  0.1319  0.4362
  376TIP3    H122543   2.503   3.738  13.833 -3.2000 -3.1999  0.6410
  376TIP3    H222544   2.387   3.822  13.883 -1.7738 -0.6314 -0.1849
  377TIP3   OH222545   5.767   4.458   1.361 -0.2243 -0.4453 -0.3665
  377TIP3    H122546   5.745   4.447   1.269 -1.9337  0.0571 -0.0504
  377TIP3    H222547   5.758   4.370   1.398 -0.8126 -0.4149 -0.4308
  378TIP3   OH222548   5.917   2.688   5.005 -0.8401  0.1891  0.3251
  378TIP3    H122549   5.997   2.664   5.051 -0.0251  0.4370 -0.8877
  378TIP3    H222550   5.846   2.647   5.054  0.1997 -1.7152  0.3040
  379TIP3   OH222551   5.311   4.980  14.762 -0.1298  0.0208 -0.0674
  379TIP3    H122552   5.403   4.993  14.784  0.0110  1.2029 -1.1837
  379TIP3    H222553   5.307   4.891  14.726  0.5512 -0.0937  0.1312
  380TIP3   OH222554   4.002   2.073  10.400  0.2495  0.1541  0.1002
  380TIP3    H122555   3.965   2.157  10.374 -1.3173 -0.3806  0.5043
  380TIP3    H222556   3.943   2.040  10.468  0.5417 -1.4909 -0.3896
  381TIP3   OH222557   6.748   3.336  12.657  0.2724 -0.2844  0.4796
  381TIP3    H122558   6.679   3.400  12.673  0.8064  0.9962 -1.8872
  381TIP3    H222559   6.830   3.384  12.668  0.7496 -1.1236  0.7541
  382TIP3   OH222560   1.062   2.924  10.816 -0.0436  0.2780  0.1117
  382TIP3    H122561   0.974   2.924  10.778  0.2728 -0.7320 -0.6799
  382TIP3    H222562   1.061   2.850  10.877  0.3181  0.1217 -0.0686
  383TIP3   OH222563   1.388   0.647  16.446 -0.7218 -0.2943  0.3496
  383TIP3    H122564   1.429   0.612  16.525 -0.2288  0.2350  0.3423
  383TIP3    H222565   1.460   0.655  16.384 -0.8265  0.6690  0.3365
  384TIP3   OH222566   4.654   6.169   2.641 -0.2835  0.3972  0.5156
  384TIP3    H122567   4.698   6.172   2.556  0.5124  0.4906  0.9252
  384TIP3    H222568   4.606   6.251   2.647  0.3597  0.7758  0.5231
  385TIP3   OH222569   5.211   2.585   3.718 -0.2372 -0.3399 -0.1765
  385TIP3    H122570   5.290   2.566   3.769  0.9189  0.9998 -1.3597
  385TIP3    H222571   5.240   2.578   3.627 -1.5843 -0.1473 -0.6402
  386TIP3   OH222572   0.062   3.529   0.483  0.0652  0.4746 -0.1614
  386TIP3    H122573   0.124   3.582   0.434  0.6817 -2.8328 -3.4125
  386TIP3    H222574   0.112   3.454   0.514 -1.4950 -0.2734  0.7130
  387TIP3   OH222575   3.646   2.224  13.217 -0.1547 -0.4165  0.6721
  387TIP3    H122576   3.730   2.189  13.246 -0.2232 -0.5231  0.7388
  387TIP3    H222577   3.636   2.306  13.265  0.1739 -0.1224  0.2498
  388TIP3   OH222578   0.427   3.149  14.238 -0.1965 -0.2779  0.0596
  388TIP3    H122579   0.373   3.222  14.208  0.8993  0.9638  1.0187
  388TIP3    H222580   0.472   3.182  14.316 -0.7565 -2.4531  1.3939
  389TIP3   OH222581   1.842   5.335   6.160 -0.8414  0.6192 -0.5907
  389TIP3    H122582   1.787   5.410   6.185  0.8501  1.4525  0.8282
  389TIP3    H222583   1.883   5.307   6.241 -1.2723 -1.7734 -1.1322
  390TIP3   OH222584   3.536   3.325  13.631  0.4963  0.0046 -0.5229
  390TIP3    H122585   3.487   3.243  13.625  0.9197 -0.4288  1.4716
  390TIP3    H222586   3.627   3.300  13.618  0.9321 -0.3172  2.4062
  391TIP3   OH222587   5.514   3.716  11.508 -0.0714  0.9472 -0.0052
  391TIP3    H122588   5.427   3.738  11.541 -0.4867  1.1796 -1.2280
  391TIP3    H222589   5.567   3.703  11.587 -0.9690  1.7593  0.7467
  392TIP3   OH222590   0.253   2.658   3.145  0.3369  0.4251  0.1174
  392TIP3    H122591   0.202   2.579   3.157  2.1601 -0.8838 -0.3075
  392TIP3    H222592   0.215   2.722   3.205 -2.1284 -0.2646 -0.6113
  393TIP3   OH222593   3.042   3.925   0.857 -0.0133  0.0392 -0.2342
  393TIP3    H122594   2.998   3.979   0.923 -0.2281  0.0837 -0.4124
  393TIP3    H222595   3.093   3.987   0.805 -0.2925  0.0789 -0.4647
  394TIP3   OH222596   0.243   4.959   6.301 -0.0153  0.3793  0.4979
  394TIP3    H122597   0.231   4.876   6.254  0.0165  0.1826  0.8319
  394TIP3    H222598   0.299   4.937   6.375  1.3002  1.0200 -0.2825
  395TIP3   OH222599   1.885   0.218  16.161  0.2130  0.0134  0.7628
  395TIP3    H122600   1.800   0.175  16.170 -0.2835  0.8633  0.1661
  395TIP3    H222601   1.905   0.213  16.068  0.6551  0.1387  0.8492
  396TIP3   OH222602   0.105   1.591  14.926 -0.3982 -0.1426 -0.0156
  396TIP3    H122603   0.183   1.552  14.966  0.1966 -1.0579 -1.9012
  396TIP3    H222604   0.123   1.685  14.924 -0.9607  0.1032  2.7788
  397TIP3   OH222605   4.292   1.767   3.956  0.5406  0.5063  0.7771
  397TIP3    H122606   4.214   1.788   3.905  1.5142  1.3646 -0.4601
  397TIP3    H222607   4.266   1.779   4.047 -0.7150  0.9750  0.3762
  398TIP3   OH222608   6.610   6.214  13.477  0.7251 -0.0305 -0.5201
  398TIP3    H122609   6.697   6.249  13.494  0.3653  0.2645  0.8098
  398TIP3    H222610   6.587   6.165  13.556 -0.1612 -0.4238 -1.0001
  399TIP3   OH222611   1.630   2.172   4.662  0.8613  0.8037  0.0722
  399TIP3    H122612   1.704   2.135   4.710 -1.0848 -1.1751  1.8259
  399TIP3    H222613   1.622   2.261   4.694  1.0156  0.2490  1.7410
  400TIP3   OH222614   5.609   3.405   4.179  0.6583  0.4011 -0.1722
  400TIP3    H122615   5.688   3.353   4.168 -0.0201 -0.2576 -2.6030
  400TIP3    H222616   5.544   3.363   4.122 -0.7645  2.2527 -0.0292
  401TIP3   OH222617   6.430   1.832   4.518  0.6346  0.4232 -0.0371
  401TIP3    H122618   6.519   1.854   4.545  0.3755  0.9451  0.3910
  401TIP3    H222619   6.442   1.776   4.441  1.3113  1.3390 -0.6169
  402TIP3   OH222620   6.580   6.786  11.013 -0.1064  1.0943  0.4546
  402TIP3    H122621   6.633   6.857  11.048 -0.9023  1.9349  0.0130
  402TIP3    H222622   6.496   6.827  10.991  0.1457  0.5116 -1.8544
  403TIP3   OH222623   6.001   3.141   5.419 -0.1506 -0.0781 -0.4492
  403TIP3    H122624   5.975   3.092   5.497 -0.7717  0.6860 -0.1659
  403TIP3    H222625   6.044   3.077   5.364 -1.3529 -1.0460 -0.2894
  404TIP3   OH222626   2.402   6.775   3.860  0.3533  0.0838  0.1407
  404TIP3    H122627   2.388   6.714   3.788  0.2446 -1.5909  1.4903
  404TIP3    H222628   2.320   6.824   3.867 -0.3574 -1.0994  0.3178
  405TIP3   OH222629   1.604   3.862  14.223 -0.3964 -0.2180 -0.0353
  405TIP3    H122630   1.694   3.894  14.234 -0.4858  0.1000 -0.1947
  405TIP3    H222631   1.593   3.798  14.293  0.0885 -0.5611 -0.2632
  406TIP3   OH222632   0.478   4.773   3.837  0.0148  0.2536  0.3760
  406TIP3    H122633   0.409   4.771   3.903  1.1965 -2.3087  1.7037
  406TIP3    H222634   0.433   4.794   3.756 -1.8284  1.4347  1.6288
  407TIP3   OH222635   3.193   2.252   2.185  0.5325  0.3495  0.2008
  407TIP3    H122636   3.180   2.157   2.189 -0.2907  0.5082  1.7528
  407TIP3    H222637   3.114   2.289   2.224 -0.2283  1.7958 -2.4497
  408TIP3   OH222638   6.518   1.890  12.792 -0.7779 -0.0785 -0.3832
  408TIP3    H122639   6.467   1.831  12.847  1.4746 -1.5020  0.3080
  408TIP3    H222640   6.468   1.896  12.710 -2.3809 -0.8028  0.5079
  409TIP3   OH222641   1.704   5.284  12.207 -0.3109 -0.2569  0.0915
  409TIP3    H122642   1.671   5.368  12.175 -0.9991 -0.5863 -0.0746
  409TIP3    H222643   1.799   5.294  12.205 -0.2040 -0.7532 -3.5076
  410TIP3   OH222644   0.235   1.469   3.767 -0.1368 -0.1205  0.1077
  410TIP3    H122645   0.171   1.452   3.836 -2.8351  1.5536 -1.7890
  410TIP3    H222646   0.199   1.425   3.689  1.4060  0.2999 -0.8985
  411TIP3   OH222647   2.499   3.955   0.050  0.2609  0.1002  0.2926
  411TIP3    H122648   2.471   3.868   0.080  0.3989  0.1656  0.6169
  411TIP3    H222649   2.555   3.936  -0.025 -1.7199  0.0351 -1.2397
  412TIP3   OH222650   2.918   3.748  11.773 -0.0306  0.0891  0.7951
  412TIP3    H122651   2.923   3.831  11.820 -0.5098 -0.2253  1.4156
  412TIP3    H222652   2.826   3.740  11.748  0.5431  1.2997 -2.1782
  413TIP3   OH222653   5.252   4.305   3.410  0.5317 -0.3591 -0.5554
  413TIP3    H122654   5.282   4.340   3.326  2.0302 -0.9685 -0.3131
  413TIP3    H222655   5.157   4.310   3.406  0.5679 -0.4538 -2.3362
  414TIP3   OH222656   6.339   1.600  13.161 -0.0732 -0.1151  0.2994
  414TIP3    H122657   6.400   1.526  13.153 -1.7179 -1.4081 -1.0129
  414TIP3    H222658   6.308   1.596  13.251  0.3660 -0.5944  0.4354
  415TIP3   OH222659   6.643   5.865  15.457  0.0067  0.9950  0.0029
  415TIP3    H122660   6.563   5.912  15.434  0.1278  1.5399  0.6476
  415TIP3    H222661   6.704   5.934  15.482  1.6473  0.8658 -3.1602
  416TIP3   OH222662   6.256   3.759   0.630  0.6069 -0.4212 -0.6661
  416TIP3    H122663   6.268   3.731   0.539  1.1688 -0.8282 -0.4674
  416TIP3    H222664   6.288   3.850   0.631 -1.0524  0.2134 -1.2667
  417TIP3   OH222665   3.236   6.015   0.142  0.9806 -0.1735 -0.4473
  417TIP3    H122666   3.259   6.013   0.235  1.3196 -0.7595 -0.5355
  417TIP3    H222667   3.215   6.106   0.124 -1.2998 -0.3877  0.7341
  418TIP3   OH222668   5.429   6.424   5.450  0.1339 -0.1065 -0.6535
  418TIP3    H122669   5.456   6.467   5.369  2.1578 -0.2000 -0.0901
  418TIP3    H222670   5.436   6.330   5.431  0.3229 -0.1305 -0.4766
  419TIP3   OH222671   0.458   1.075   1.189  0.2856  0.0661 -0.7244
  419TIP3    H122672   0.438   1.010   1.257 -1.2706  0.9207 -0.3341
  419TIP3    H222673   0.510   1.141   1.234 -1.9972  1.4079  0.1051
  420TIP3   OH222674   3.719   3.809  12.629  0.5737 -0.1690  0.4737
  420TIP3    H122675   3.638   3.785  12.585  0.9593 -0.8758  0.1484
  420TIP3    H222676   3.745   3.730  12.677  0.0346  0.6354  2.1948
  421TIP3   OH222677   2.029   4.866  11.988 -0.2075 -0.3669  0.4853
  421TIP3    H122678   2.049   4.832  11.901  2.0838  0.5829  0.5766
  421TIP3    H222679   2.005   4.957  11.974 -0.5456 -0.4037  0.7945
  422TIP3   OH222680   5.217   0.220  15.497  0.1348 -0.3352 -0.2520
  422TIP3    H122681   5.175   0.296  15.458  1.3112  0.2447 -0.4383
  422TIP3    H222682   5.263   0.178  15.424  1.0224 -0.1549  0.1836
  423TIP3   OH222683   1.816   0.717  14.080 -0.8185 -0.2569  0.3060
  423TIP3    H122684   1.833   0.796  14.131 -0.9325  0.2880 -0.4770
  423TIP3    H222685   1.800   0.749  13.991 -2.8203 -0.9851  0.3576
  424TIP3   OH222686   0.415   4.934   3.550  0.4238 -0.2055  0.2579
  424TIP3    H122687   0.501   4.900   3.574  1.7208  2.2618 -0.5342
  424TIP3    H222688   0.386   4.876   3.479  0.7913 -1.8274  1.3578
  425TIP3   OH222689   1.449   6.266  12.968  0.1736  0.3402  0.1531
  425TIP3    H122690   1.489   6.353  12.969 -0.0921  0.5686 -2.6387
  425TIP3    H222691   1.487   6.223  12.892 -0.3670 -1.7049  0.9784
  426TIP3   OH222692   3.944   2.885  14.422 -0.1606  0.5379 -0.3770
  426TIP3    H122693   4.006   2.873  14.494  0.1029  3.1255 -0.0715
  426TIP3    H222694   3.858   2.868  14.461  0.1971 -1.8195 -0.4833
  427TIP3   OH222695   4.617   0.708   3.729 -0.4960  0.3196 -0.3089
  427TIP3    H122696   4.693   0.662   3.693 -0.7479  0.3373 -0.8757
  427TIP3    H222697   4.541   0.659   3.696 -0.7306 -0.4586  1.2679
  428TIP3   OH222698   4.642   3.779   2.785  0.6792  0.1936  0.0996
  428TIP3    H122699   4.573   3.720   2.815 -0.3476  1.8450  1.1427
  428TIP3    H222700   4.596   3.847   2.736  1.6786  0.7967 -0.0335
  429TIP3   OH222701   1.179   6.735   1.665 -0.2180  0.1581  0.5391
  429TIP3    H122702   1.150   6.646   1.686 -2.1152  0.6792  0.3778
  429TIP3    H222703   1.203   6.731   1.573  4.9631 -1.3630  1.6634
  430TIP3   OH222704   0.445   1.340  14.482  0.1178  0.2593  0.2569
  430TIP3    H122705   0.522   1.289  14.458  1.5147  2.1533  0.4792
  430TIP3    H222706   0.432   1.321  14.575  0.4465  0.0863  0.2701
  431TIP3   OH222707   3.516   3.384   2.933 -0.6086  0.0664  0.3215
  431TIP3    H122708   3.559   3.349   3.012  0.5022 -0.8070 -0.6161
  431TIP3    H222709   3.555   3.470   2.921 -1.7582  0.7748  1.4364
  432TIP3   OH222710   1.138   2.745  11.849 -0.1597 -0.6052  0.0733
  432TIP3    H122711   1.170   2.682  11.913 -1.8965 -3.6852 -1.7979
  432TIP3    H222712   1.114   2.822  11.900  2.7216 -1.1022  2.4243
  433TIP3   OH222713   3.803   5.808  16.741  0.0536 -0.3875 -0.0011
  433TIP3    H122714   3.876   5.807  16.804  0.5217 -0.8505 -0.5350
  433TIP3    H222715   3.726   5.786  16.793  0.2831  0.1684  0.5859
  434TIP3   OH222716   2.978   0.731   1.029 -0.4126 -0.5687 -0.4998
  434TIP3    H122717   3.046   0.665   1.019  0.3925  0.3646 -1.5873
  434TIP3    H222718   3.021   0.814   1.005 -1.6361  0.2087 -0.1373
  435TIP3   OH222719   5.197   4.638  13.525  0.1724 -0.3269  0.4897
  435TIP3    H122720   5.270   4.663  13.468  0.8651 -0.3588  1.3439
  435TIP3    H222721   5.184   4.545  13.508 -0.2706 -0.1295 -0.3164
  436TIP3   OH222722   6.257   4.362   6.407  0.1016 -0.1329  0.5314
  436TIP3    H122723   6.314   4.291   6.378 -0.4695  0.1210 -1.3232
  436TIP3    H222724   6.204   4.324   6.476 -0.4940 -1.6637 -0.7148
  437TIP3   OH222725   6.440   3.851  15.417 -0.4516  0.8806 -0.4584
  437TIP3    H122726   6.375   3.853  15.347 -0.4623 -0.6918 -0.5203
  437TIP3    H222727   6.390   3.863  15.497 -1.0283 -1.3874 -0.4114
  438TIP3   OH222728   2.725   6.254   2.540 -0.1053  0.0125  0.0386
  438TIP3    H122729   2.671   6.293   2.608 -1.4280 -1.7464  0.0467
  438TIP3    H222730   2.729   6.320   2.471  1.0259  1.7121  1.6302
  439TIP3   OH222731   0.508   6.763   3.021  0.4668  0.4323  0.1625
  439TIP3    H122732   0.460   6.757   3.103 -0.5471  2.2030 -0.2362
  439TIP3    H222733   0.599   6.744   3.044  0.0117 -0.2800  1.4500
  440TIP3   OH222734   6.200   0.100  14.110 -0.0867 -0.1852  0.4578
  440TIP3    H122735   6.204   0.158  14.186 -0.1528 -2.3212  2.1874
  440TIP3    H222736   6.129   0.039  14.131  0.8022 -1.6580 -0.7002
  441TIP3   OH222737   0.505   5.784  11.261 -0.0817 -0.2614  0.3234
  441TIP3    H122738   0.508   5.870  11.217 -0.2046 -0.4693 -0.1023
  441TIP3    H222739   0.413   5.772  11.284 -0.3124 -0.8626 -0.8214
  442TIP3   OH222740   1.492   5.721  12.729 -0.0652 -0.7176 -0.3403
  442TIP3    H122741   1.455   5.793  12.677  4.2978  0.7273 -1.8562
  442TIP3    H222742   1.492   5.755  12.819 -0.4359  0.0806 -0.6272
  443TIP3   OH222743   6.604   6.401   1.027  0.3971 -0.4059 -0.1198
  443TIP3    H122744   6.692   6.433   1.005 -0.4717  1.0080 -1.7528
  443TIP3    H222745   6.580   6.449   1.106  0.1037  1.1855 -1.1391
  444TIP3   OH222746   2.548   3.232  11.687  0.1743 -0.3859 -0.1576
  444TIP3    H122747   2.511   3.204  11.604 -0.7121  0.7307 -0.1514
  444TIP3    H222748   2.476   3.225  11.750  0.5187 -0.1420  0.2738
  445TIP3   OH222749   5.900   5.377  16.057  0.3019 -0.0829  0.6439
  445TIP3    H122750   5.868   5.466  16.038  1.6416 -0.0630 -2.0463
  445TIP3    H222751   5.837   5.342  16.120 -1.6093  1.9660  0.0280
  446TIP3   OH222752   3.495   2.629   5.158  0.1418  0.4112 -0.4590
  446TIP3    H122753   3.457   2.547   5.189 -1.6158  0.5559 -2.0328
  446TIP3    H222754   3.439   2.698   5.194  0.0395  0.7489 -1.2254
  447TIP3   OH222755   2.906   1.339   4.275 -0.5581 -0.2162  0.4709
  447TIP3    H122756   2.880   1.404   4.209 -0.1207 -1.4790 -1.0039
  447TIP3    H222757   2.823   1.304   4.308 -0.7820  0.4254  0.6019
  448TIP3   OH222758   5.233   4.884  12.216 -0.1507 -0.2934  0.2369
  448TIP3    H122759   5.205   4.949  12.280 -2.6542  0.1160 -1.1070
  448TIP3    H222760   5.210   4.800  12.256 -0.0827 -0.1393  0.5999
  449TIP3   OH222761   5.327   0.593   0.651 -0.7752  0.3182 -0.5549
  449TIP3    H122762   5.359   0.620   0.565 -0.0065  4.0309  0.6813
  449TIP3    H222763   5.235   0.573   0.638 -0.7464  1.1249 -2.2180
  450TIP3   OH222764   4.156   3.199   2.339  0.0024  0.0054 -0.8857
  450TIP3    H122765   4.066   3.225   2.361  0.7917  1.1405  1.2907
  450TIP3    H222766   4.204   3.282   2.336  0.8741 -0.5164 -2.7496
  451TIP3   OH222767   5.307   1.692   5.364 -0.1187  0.8615 -0.0762
  451TIP3    H122768   5.336   1.780   5.337 -1.2342  1.5175  0.7674
  451TIP3    H222769   5.350   1.678   5.449  1.7793 -0.3491 -1.1768
  452TIP3   OH222770   0.335   1.306   5.672  0.3113 -0.1403  0.3208
  452TIP3    H122771   0.352   1.304   5.578 -0.3416 -0.9580  0.1998
  452TIP3    H222772   0.348   1.397   5.698 -0.1760  0.2332 -0.7019
  453TIP3   OH222773   1.776   0.637  14.347 -0.0272 -0.0295  0.5785
  453TIP3    H122774   1.791   0.685  14.265  1.5187 -0.2587  0.6936
  453TIP3    H222775   1.750   0.705  14.410 -0.7457  0.2185  0.0189
  454TIP3   OH222776   1.677   6.032  12.181 -0.1466  0.3586  0.5836
  454TIP3    H122777   1.608   6.083  12.223 -0.4509 -0.1798  0.7467
  454TIP3    H222778   1.758   6.078  12.202 -0.6458  2.6306 -1.9426
  455TIP3   OH222779   1.923   2.611  17.189 -0.3698  0.3294 -0.1942
  455TIP3    H122780   1.896   2.528  17.229 -0.8299 -0.4009 -1.9123
  455TIP3    H222781   1.840   2.657  17.173 -0.0934  1.3162  1.0972
  456TIP3   OH222782   6.266   4.049  13.155  0.4821 -0.3834  0.6910
  456TIP3    H122783   6.271   4.104  13.233 -0.0091 -0.0180  0.4711
  456TIP3    H222784   6.346   4.070  13.106  0.2686  0.1921  0.5774
  457TIP3   OH222785   1.846   2.308   1.533 -0.1098 -0.5966 -0.7586
  457TIP3    H122786   1.837   2.398   1.562 -1.1264 -0.7583 -0.5444
  457TIP3    H222787   1.852   2.257   1.614  1.3896 -0.6616 -0.8703
  458TIP3   OH222788   2.146   3.716   5.953 -0.3706  0.7569  0.3022
  458TIP3    H122789   2.128   3.760   6.036 -0.8478  0.1993  0.5012
  458TIP3    H222790   2.176   3.628   5.978 -1.1980  0.3365 -0.1166
  459TIP3   OH222791   1.697   5.622  16.521 -0.0779  0.0444 -0.3632
  459TIP3    H122792   1.713   5.714  16.498 -1.8006  0.5415  0.2646
  459TIP3    H222793   1.612   5.603  16.483 -0.4895 -0.7821  0.9191
  460TIP3   OH222794   5.181   6.349  15.938  0.0821  0.5041 -0.0658
  460TIP3    H122795   5.206   6.257  15.928  0.0542  0.5897 -1.0787
  460TIP3    H222796   5.087   6.351  15.922  0.3747  0.9467 -2.0659
  461TIP3   OH222797   1.249   3.008  16.568 -0.3485 -0.5771  0.1805
  461TIP3    H122798   1.161   3.002  16.606 -0.0844 -0.7802  0.7555
  461TIP3    H222799   1.305   3.034  16.640 -0.3798  2.5716 -0.8038
  462TIP3   OH222800   4.698   1.808  12.330 -0.3229  0.2564 -0.0355
  462TIP3    H122801   4.775   1.771  12.373  0.4202  0.2065 -1.3476
  462TIP3    H222802   4.733   1.854  12.254 -1.3083  2.7890  0.9290
  463TIP3   OH222803   5.153   3.285  13.763 -0.1989  0.2345 -0.4490
  463TIP3    H122804   5.232   3.273  13.710  0.8223  3.0909  0.2507
  463TIP3    H222805   5.172   3.240  13.846 -0.0268 -0.5016 -0.8743
  464TIP3   OH222806   2.974   2.983   6.795 -0.0731 -0.5161 -0.2689
  464TIP3    H122807   2.901   2.958   6.738  0.0114 -1.3218 -0.0321
  464TIP3    H222808   3.014   2.900   6.820 -1.3531 -0.3811  2.6072
  465TIP3   OH222809   5.723   6.538  16.336 -0.0236 -0.0573  0.0258
  465TIP3    H122810   5.799   6.489  16.366  0.2827  1.2407  1.5460
  465TIP3    H222811   5.758   6.601  16.273  0.2938  0.8773  1.0985
  466TIP3   OH222812   4.594   3.104   2.146  0.3742  0.1837 -0.2259
  466TIP3    H122813   4.544   3.158   2.208  1.1078  1.7285 -0.9023
  466TIP3    H222814   4.528   3.049   2.104 -0.3614  0.2651  0.7782
  467TIP3   OH222815   2.440   2.041  11.340  0.0878  0.1213 -0.4711
  467TIP3    H122816   2.451   1.993  11.422 -1.5017  0.8687  0.2231
  467TIP3    H222817   2.499   1.997  11.278  0.0165 -1.5705  0.5949
  468TIP3   OH222818   4.604   0.402   2.145 -0.2968 -0.7941  0.0636
  468TIP3    H122819   4.516   0.365   2.144 -1.0548  0.8815 -0.0878
  468TIP3    H222820   4.655   0.346   2.086 -1.8581 -0.4894 -1.6781
  469TIP3   OH222821   4.645   0.754   1.339 -0.1177 -0.5261  0.2285
  469TIP3    H122822   4.581   0.818   1.370 -0.9667 -0.3327 -1.8150
  469TIP3    H222823   4.725   0.776   1.387 -0.0675  2.7948 -1.1326
  470TIP3   OH222824   3.945   6.105   3.092  0.2417  0.7409  1.0502
  470TIP3    H122825   3.949   6.034   3.028 -2.4731  2.6105 -1.4561
  470TIP3    H222826   4.033   6.142   3.093  0.9185 -0.7575  0.1388
  471TIP3   OH222827   5.792   2.751  16.903  0.4197  0.1549 -0.3028
  471TIP3    H122828   5.856   2.776  16.837  1.2646  0.5815  0.6467
  471TIP3    H222829   5.814   2.805  16.979  0.0016 -0.9107  0.6072
  472TIP3   OH222830   6.281   3.113   1.735  0.7307  0.0337  0.5540
  472TIP3    H122831   6.307   3.022   1.749 -1.6824 -1.0992 -1.5400
  472TIP3    H222832   6.319   3.136   1.650 -0.8059  0.0327 -0.1675
  473TIP3   OH222833   6.759   1.454   3.298  0.1486 -0.2659 -0.1486
  473TIP3    H122834   6.826   1.479   3.234 -0.7909 -0.7282 -1.3539
  473TIP3    H222835   6.687   1.421   3.245 -0.4501 -1.1885  1.1895
  474TIP3   OH222836   5.855   2.113  15.774  0.6289 -0.3394  0.2992
  474TIP3    H122837   5.926   2.172  15.751 -1.4786  1.8710 -1.0603
  474TIP3    H222838   5.861   2.103  15.869  1.5263  1.4854  0.4772
  475TIP3   OH222839   4.981   6.328   5.938  0.1368  0.0162 -0.0697
  475TIP3    H122840   4.941   6.355   6.020 -0.3844 -0.4019 -0.1819
  475TIP3    H222841   5.072   6.308   5.960  0.0124 -0.0426  0.3900
  476TIP3   OH222842   3.752   5.862   2.703 -0.3389 -0.1876  0.2948
  476TIP3    H122843   3.671   5.847   2.752 -1.6803 -1.1410 -2.0779
  476TIP3    H222844   3.731   5.934   2.643  0.5416 -0.4810 -0.3878
  477TIP3   OH222845   3.123   0.340   5.504  0.5923 -0.1683  0.4243
  477TIP3    H122846   3.156   0.302   5.585 -0.8644  1.6852  1.9700
  477TIP3    H222847   3.160   0.428   5.502  0.1136  0.0266 -0.6225
  478TIP3   OH222848   1.169   1.810  15.610  0.0254 -0.2557 -0.0418
  478TIP3    H122849   1.237   1.871  15.640 -2.3225  0.9472  3.4808
  478TIP3    H222850   1.095   1.866  15.589 -1.1997 -1.7142  0.2648
  479TIP3   OH222851   5.978   6.122  15.558 -0.2390 -0.0117 -0.8435
  479TIP3    H122852   6.040   6.069  15.509 -0.4228 -0.4719 -0.5871
  479TIP3    H222853   5.997   6.212  15.532 -0.4252 -0.2537 -1.8664
  480TIP3   OH222854   2.639   5.775   4.796 -0.0439 -0.1085 -0.0257
  480TIP3    H122855   2.580   5.772   4.721  0.4334 -3.6759 -0.4139
  480TIP3    H222856   2.680   5.861   4.791 -4.2211  2.1092 -0.3968
  481TIP3   OH222857   2.700   0.904   6.545  0.2885 -0.1703  0.1229
  481TIP3    H122858   2.660   0.834   6.597  0.2769 -1.3528 -1.3898
  481TIP3    H222859   2.791   0.907   6.574 -0.4324  1.4175  2.4338
  482TIP3   OH222860   3.812   6.605   1.787  0.3566  0.2698 -0.2583
  482TIP3    H122861   3.720   6.614   1.761 -0.3788 -1.6045  1.4569
  482TIP3    H222862   3.849   6.546   1.721  0.1861  0.5425 -0.6050
  483TIP3   OH222863   5.046   2.543  12.579 -0.0153 -0.3542  0.1045
  483TIP3    H122864   4.954   2.545  12.608 -0.5870 -2.2979 -1.4080
  483TIP3    H222865   5.044   2.580  12.491  0.7694  0.0971  0.2677
  484TIP3   OH222866   5.022   0.764  15.894  0.5611  0.1923 -0.0963
  484TIP3    H122867   5.004   0.670  15.898 -0.1413  0.3532  1.2156
  484TIP3    H222868   4.972   0.801  15.967  2.8618  1.2724  1.0325
  485TIP3   OH222869   5.647   3.222   1.845  0.7517 -0.2423  0.3130
  485TIP3    H122870   5.569   3.168   1.829  0.7244 -0.1322  0.0750
  485TIP3    H222871   5.720   3.161   1.836  0.8378  0.1030 -1.7039
  486TIP3   OH222872   0.004   2.111   4.599  0.2192 -0.7032  0.5674
  486TIP3    H122873   0.003   2.206   4.593  1.6336 -0.7595 -1.7878
  486TIP3    H222874   0.087   2.091   4.643  1.1091 -0.8465 -1.0931
  487TIP3   OH222875   2.911   5.746   2.007  0.0409  0.0180  0.4134
  487TIP3    H122876   2.971   5.722   1.937  0.2564 -1.6095  1.0961
  487TIP3    H222877   2.862   5.665   2.024 -1.9716  1.1502  0.2501
  488TIP3   OH222878   4.540   0.041  16.157 -0.4456  0.1328  0.7128
  488TIP3    H122879   4.523  -0.030  16.094  3.3197  1.1851 -1.8426
  488TIP3    H222880   4.492   0.116  16.122  0.0274  0.2134  0.2295
  489TIP3   OH222881   4.120   0.386  12.095  0.2264 -0.0882  0.5043
  489TIP3    H122882   4.053   0.405  12.161 -0.2486 -2.1501  0.6911
  489TIP3    H222883   4.076   0.398  12.011 -0.5856 -1.8882  0.6271
  490TIP3   OH222884   4.628   2.528  13.252 -0.6150 -0.0775 -0.2838
  490TIP3    H122885   4.716   2.532  13.213 -1.1037 -0.0387 -1.4258
  490TIP3    H222886   4.576   2.478  13.189 -1.3542 -0.3574  0.5226
  491TIP3   OH222887   3.243   0.106   1.094  0.0670 -0.4398 -0.0534
  491TIP3    H122888   3.194   0.064   1.164 -0.0820 -0.4502 -0.1652
  491TIP3    H222889   3.289   0.034   1.050 -0.5204 -0.5353 -0.5103
  492TIP3   OH222890   5.315   5.545  11.848 -0.0712  0.0311 -0.1368
  492TIP3    H122891   5.291   5.622  11.797  1.7120  0.1950 -0.7971
  492TIP3    H222892   5.300   5.471  11.789  0.2621  0.0644 -0.2651
  493TIP3   OH222893   1.405   1.524  16.717  0.7478  0.2697 -0.0460
  493TIP3    H122894   1.372   1.435  16.722  1.3983 -0.1499 -2.1790
  493TIP3    H222895   1.358   1.563  16.643  1.2313  1.3685  0.1947
  494TIP3   OH222896   6.394   2.097   2.111 -0.5274 -0.1009 -0.0413
  494TIP3    H122897   6.483   2.133   2.112 -1.2660  1.8110  1.1848
  494TIP3    H222898   6.376   2.074   2.202 -0.9982 -1.2910 -0.4176
  495TIP3   OH222899   1.293   0.722  14.199  0.2884 -0.2551  0.0186
  495TIP3    H122900   1.329   0.672  14.272  0.2808 -1.6283 -0.8739
  495TIP3    H222901   1.363   0.783  14.175  0.1874  0.3952  1.3193
  496TIP3   OH222902   2.048   0.314  14.723 -0.0362  0.5454  0.0849
  496TIP3    H122903   1.960   0.352  14.732 -0.4704 -0.4856  0.2727
  496TIP3    H222904   2.074   0.334  14.633 -1.1813 -0.6091 -0.5321
  497TIP3   OH222905   6.439   2.750   3.890 -0.2576 -0.2631 -0.1050
  497TIP3    H122906   6.501   2.814   3.854 -0.2405 -0.0770  0.2553
  497TIP3    H222907   6.390   2.720   3.813  2.2590 -2.6885 -0.9650
  498TIP3   OH222908   1.418   0.896  14.006 -0.3848  0.7090  0.2491
  498TIP3    H122909   1.426   0.944  13.924  0.2033  0.7918  0.3500
  498TIP3    H222910   1.449   0.957  14.073  1.0503 -0.0324  0.3009
  499TIP3   OH222911   3.753   5.146   3.549 -0.5675 -0.1027  0.1182
  499TIP3    H122912   3.766   5.106   3.635 -2.2619  0.5584  0.7246
  499TIP3    H222913   3.675   5.200   3.560  1.8023  3.8289 -0.5048
  500TIP3   OH222914   4.593   0.234  12.125 -0.0072 -0.2779  0.2547
  500TIP3    H122915   4.541   0.230  12.206 -1.2196  0.8972 -0.4219
  500TIP3    H222916   4.535   0.278  12.062  1.3862 -0.0219 -0.8848
  501TIP3   OH222917   2.222   5.309   5.831  0.1569  0.0285 -0.3129
  501TIP3    H122918   2.238   5.288   5.923 -1.8424 -0.9558 -0.1191
  501TIP3    H222919   2.280   5.250   5.783 -0.5847 -1.2993  0.3317
  502TIP3   OH222920   4.183   0.763  16.613  0.1989  0.1321 -0.3424
  502TIP3    H122921   4.190   0.720  16.528  0.6121 -3.0977  1.1760
  502TIP3    H222922   4.093   0.795  16.615 -0.9363 -2.6831 -0.8371
  503TIP3   OH222923   1.279   0.670   2.614 -0.3096 -0.5138  0.1779
  503TIP3    H122924   1.354   0.676   2.674 -0.3056 -2.0383  0.3489
  503TIP3    H222925   1.311   0.617   2.541 -0.7595  0.1332 -0.5018
  504TIP3   OH222926   4.098   4.710   3.207 -0.2964 -0.1690  0.1713
  504TIP3    H122927   4.132   4.621   3.208 -1.5127 -0.7024 -1.4308
  504TIP3    H222928   4.176   4.766   3.207  0.4754 -1.2132  1.2150
  505TIP3   OH222929   3.850   2.406   2.286 -0.8476  0.2556  0.0017
  505TIP3    H122930   3.886   2.393   2.374  0.5595 -0.7319 -0.6882
  505TIP3    H222931   3.818   2.496   2.287  1.7232  1.2639  0.6835
  506TIP3   OH222932   3.431   2.382   5.234 -0.4299  0.4413 -0.6698
  506TIP3    H122933   3.503   2.323   5.258  0.1937  1.2400 -0.5252
  506TIP3    H222934   3.409   2.358   5.144  0.8132  0.9352 -1.1289
  507TIP3   OH222935   6.166   5.002  15.287  0.1129  0.0956 -0.6622
  507TIP3    H122936   6.236   4.949  15.324 -0.1127  0.0525 -0.2915
  507TIP3    H222937   6.085   4.959  15.316 -0.0898  1.2503  0.5504
  508TIP3   OH222938   0.230   6.575  14.549  0.4878 -0.4321 -0.2207
  508TIP3    H122939   0.227   6.511  14.478 -0.3174 -0.7658  0.1048
  508TIP3    H222940   0.228   6.523  14.629  1.3301 -0.0534  0.0561
  509TIP3   OH222941   3.586   3.258   0.879  0.5462 -0.1714 -0.1787
  509TIP3    H122942   3.638   3.301   0.948  0.0016  0.4229 -0.1312
  509TIP3    H222943   3.594   3.316   0.803 -0.1427 -0.0021 -0.1331
  510TIP3   OH222944   0.111   3.727   3.372  0.6745 -0.1643 -0.1627
  510TIP3    H122945   0.137   3.787   3.302  1.0048  0.3606  0.4008
  510TIP3    H222946   0.016   3.738   3.378  0.4228 -1.2607 -1.4652
  511TIP3   OH222947   4.182   2.410  11.482 -0.4157 -0.1053  0.7230
  511TIP3    H122948   4.139   2.490  11.512 -0.7439  0.8963 -2.1152
  511TIP3    H222949   4.272   2.437  11.462 -0.1221 -0.8003  1.0859
  512TIP3   OH222950   0.361   3.940  11.173 -0.4099  0.0449  0.6495
  512TIP3    H122951   0.433   3.943  11.236 -0.6233 -0.7625  0.9420
  512TIP3    H222952   0.388   3.873  11.109  0.0603  1.2443 -0.4413
  513TIP3   OH222953   4.646   1.311   4.538 -0.0874  0.5623  0.1229
  513TIP3    H122954   4.575   1.247   4.547 -1.4170  1.9378 -0.2356
  513TIP3    H222955   4.644   1.361   4.619  1.4848 -0.3269  0.7498
  514TIP3   OH222956   4.755   0.753   0.898 -0.2503  0.2590  0.6047
  514TIP3    H122957   4.760   0.833   0.951 -0.2230  1.0363 -0.5460
  514TIP3    H222958   4.663   0.728   0.901  0.0047 -0.6098  2.2988
  515TIP3   OH222959   3.145   0.867   0.539  0.8937  0.0701  0.0223
  515TIP3    H122960   3.144   0.946   0.593  0.4656  0.9088 -1.1656
  515TIP3    H222961   3.235   0.835   0.545  0.7594 -0.1290  1.5671
  516TIP3   OH222962   0.413   0.392  16.079 -0.4402 -0.0410 -0.6061
  516TIP3    H122963   0.339   0.423  16.131  1.1587  0.6766  1.3925
  516TIP3    H222964   0.456   0.471  16.047 -0.1201 -0.4207 -1.1437
  517TIP3   OH222965   0.449   6.363  15.746 -0.6337  0.4561 -1.0848
  517TIP3    H122966   0.488   6.423  15.810  0.0633  0.5431 -1.5696
  517TIP3    H222967   0.493   6.280  15.762 -2.1608 -0.1621  0.1091
  518TIP3   OH222968   1.941   4.953   2.525 -0.6867 -0.5430 -0.6365
  518TIP3    H122969   1.905   4.972   2.612 -1.8668  3.9466 -1.8453
  518TIP3    H222970   1.869   4.909   2.479 -0.7887 -1.0754  0.0082
  519TIP3   OH222971   3.885   4.732  13.678  0.7702  0.4982  0.1616
  519TIP3    H122972   3.920   4.777  13.601  1.1719  2.2082  1.2820
  519TIP3    H222973   3.929   4.774  13.752 -0.2787 -0.4702  1.3857
  520TIP3   OH222974   6.518   2.446   2.334  0.2035 -0.6245  0.0733
  520TIP3    H122975   6.470   2.484   2.261 -0.0157 -0.2522  0.4056
  520TIP3    H222976   6.497   2.502   2.408  1.6658 -0.0688  0.0996
  521TIP3   OH222977   2.900   2.527   5.303  0.3092  0.7549  0.1452
  521TIP3    H122978   2.806   2.517   5.295  0.0785 -0.2440  2.9282
  521TIP3    H222979   2.932   2.534   5.213 -1.9091 -3.5775 -1.2073
  522TIP3   OH222980   1.251   2.407   2.659  0.0605  0.6536  0.5473
  522TIP3    H122981   1.237   2.391   2.752 -1.0115 -1.5366  0.0538
  522TIP3    H222982   1.200   2.486   2.641 -0.8282  0.3352  1.5530
  523TIP3   OH222983   1.452   6.321   3.749 -0.5258 -0.1289  0.3626
  523TIP3    H122984   1.459   6.229   3.773  1.1876 -0.3603 -0.8433
  523TIP3    H222985   1.537   6.343   3.711 -1.0936  1.7970  0.0707
  524TIP3   OH222986   2.338   2.266   5.319 -0.3480  0.4661  0.3466
  524TIP3    H122987   2.391   2.319   5.379 -2.3183  2.3647  0.5625
  524TIP3    H222988   2.360   2.176   5.341  3.0049  1.0971  0.1386
  525TIP3   OH222989   4.876   3.273   0.309 -0.1672  0.4323  0.1274
  525TIP3    H122990   4.845   3.247   0.396 -0.7353  0.5793 -0.0308
  525TIP3    H222991   4.800   3.262   0.252 -0.0513  1.1871 -0.1833
  526TIP3   OH222992   1.252   2.931   4.186 -0.6064  0.2862  0.4888
  526TIP3    H122993   1.253   3.012   4.134 -1.1387  0.7601  1.1932
  526TIP3    H222994   1.198   2.871   4.135  0.1984  0.1980 -0.2828
  527TIP3   OH222995   1.789   5.186   1.629 -0.2421  0.1107  0.1497
  527TIP3    H122996   1.819   5.229   1.709  0.9360 -1.3991  0.5642
  527TIP3    H222997   1.705   5.146   1.653  0.3640 -0.7907  0.8092
  528TIP3   OH222998   5.974   4.408  14.769  0.0592  0.1762  0.3187
  528TIP3    H122999   5.900   4.445  14.723  1.8814  0.9378 -2.2361
  528TIP3    H223000   5.938   4.332  14.816 -2.3723  0.8274 -0.3727
  529TIP3   OH223001   6.536   5.573  11.004  0.2349 -0.1665 -0.0342
  529TIP3    H123002   6.506   5.594  11.092  0.6531 -0.3988  0.1666
  529TIP3    H223003   6.629   5.551  11.015 -0.2460 -2.4988 -0.1654
  530TIP3   OH223004   1.652   4.621   1.599 -0.4850  0.1760  0.0223
  530TIP3    H123005   1.615   4.599   1.514 -1.7082 -2.1499  1.0733
  530TIP3    H223006   1.701   4.542   1.625 -0.6728  0.5820  1.7371
  531TIP3   OH223007   0.467   5.806   3.234  0.0959 -0.1004 -0.1038
  531TIP3    H123008   0.429   5.832   3.318 -0.7814  0.8572 -0.7689
  531TIP3    H223009   0.437   5.716   3.220 -0.8997  0.2072 -0.0152
  532TIP3   OH223010   6.406   5.879   5.512  0.2824 -0.0718  0.1091
  532TIP3    H123011   6.435   5.800   5.467 -0.2388 -0.1855 -0.0368
  532TIP3    H223012   6.480   5.904   5.567 -0.6730 -2.6248  2.8483
  533TIP3   OH223013   0.872   2.971  11.895  0.0051  0.0501 -0.7164
  533TIP3    H123014   0.907   2.899  11.947  0.5146  0.7436 -0.0549
  533TIP3    H223015   0.823   3.024  11.958 -2.1891 -0.8051 -1.5817
  534TIP3   OH223016   6.388   2.052   3.772 -0.6448 -0.6715 -0.3278
  534TIP3    H123017   6.408   1.969   3.728 -1.2063  0.6892 -3.4478
  534TIP3    H223018   6.447   2.115   3.730 -0.8925  0.6965  1.2979
  535TIP3   OH223019   5.584   2.820   4.063 -0.1069  0.4278 -0.0847
  535TIP3    H123020   5.662   2.867   4.032  0.0864 -0.4438 -0.9975
  535TIP3    H223021   5.597   2.730   4.032 -1.2423  0.1575  0.1840
  536TIP3   OH223022   5.478   1.297  11.487 -0.1192  0.9319  0.2004
  536TIP3    H123023   5.541   1.302  11.559  0.0686 -0.7878  0.2019
  536TIP3    H223024   5.490   1.379  11.440  1.1410  1.2507  1.0031
  537TIP3   OH223025   0.503   4.460  13.850 -0.2573  0.5311 -1.3867
  537TIP3    H123026   0.510   4.556  13.858 -1.7178  0.5962 -0.5894
  537TIP3    H223027   0.578   4.427  13.899  0.6862  1.2500 -2.2713
  538TIP3   OH223028   3.397   6.349   2.108  0.4079 -0.2695 -0.5292
  538TIP3    H123029   3.353   6.433   2.095  1.1877  0.2842  0.2900
  538TIP3    H223030   3.390   6.304   2.024 -2.4266 -0.5607 -0.2226
  539TIP3   OH223031   6.730   5.183   1.124  0.0186 -0.4194  0.1351
  539TIP3    H123032   6.679   5.132   1.186 -1.1737 -0.2122 -0.6484
  539TIP3    H223033   6.780   5.118   1.074  2.0732 -0.5297  2.1584
  540TIP3   OH223034   6.452   2.237  14.309  0.7006  0.4350 -0.0599
  540TIP3    H123035   6.520   2.272  14.252  1.8340 -2.9011 -1.0202
  540TIP3    H223036   6.380   2.213  14.250 -0.8787  2.7615  0.7962
  541TIP3   OH223037   2.973   0.139  11.824 -0.1189  0.1125 -0.2426
  541TIP3    H123038   3.052   0.090  11.849 -0.8222 -0.8669  0.0817
  541TIP3    H223039   3.005   0.202  11.759  0.8945 -0.4439 -0.3168
  542TIP3   OH223040   2.637   2.862  15.039  0.1355 -0.0914 -0.1683
  542TIP3    H123041   2.720   2.819  15.060  0.6749  0.6097 -0.7899
  542TIP3    H223042   2.600   2.885  15.124  0.6289 -0.3369  0.1166
  543TIP3   OH223043   6.736   5.570   4.431 -0.2582  0.1281 -0.3970
  543TIP3    H123044   6.798   5.617   4.375  0.1439 -0.5875 -0.5676
  543TIP3    H223045   6.763   5.591   4.520 -1.0036  1.4090 -0.4533
  544TIP3   OH223046   4.804   6.721  14.812 -0.3970 -0.2373 -0.0288
  544TIP3    H123047   4.870   6.707  14.880  1.5352  1.4102 -1.4373
  544TIP3    H223048   4.783   6.634  14.780 -0.8328 -0.9936  2.1528
  545TIP3   OH223049   4.789   2.228  13.357 -0.4063 -0.3185  0.1521
  545TIP3    H123050   4.766   2.304  13.303  0.3462 -1.0739 -1.3138
  545TIP3    H223051   4.834   2.265  13.433  1.4294  0.6796 -1.3191
  546TIP3   OH223052   2.220   1.942  13.021  0.3797 -0.2833 -0.1970
  546TIP3    H123053   2.268   1.899  13.092  0.4807  1.6118  0.9463
  546TIP3    H223054   2.185   2.021  13.060 -4.3549 -1.8046 -0.7662
  547TIP3   OH223055   5.580   6.379  11.893  0.3395 -0.5075  0.3489
  547TIP3    H123056   5.670   6.389  11.925  0.7386 -0.3585 -0.7675
  547TIP3    H223057   5.545   6.468  11.889 -0.2657 -0.6463  1.8374
  548TIP3   OH223058   3.802   4.711  16.193  0.5940  0.2760  0.1529
  548TIP3    H123059   3.845   4.679  16.273 -1.3553 -0.8630  0.8051
  548TIP3    H223060   3.805   4.806  16.201  0.8733  0.1873  1.3531
  549TIP3   OH223061   2.762   0.338  10.766 -0.1580 -0.0756 -0.2422
  549TIP3    H123062   2.729   0.285  10.839  0.7425  1.4601  1.3680
  549TIP3    H223063   2.846   0.299  10.744 -0.7980 -1.0474 -1.0755
  550TIP3   OH223064   4.618   5.132   4.865  0.2154 -0.3477  0.1615
  550TIP3    H123065   4.579   5.175   4.789  0.6976  0.2188  0.2264
  550TIP3    H223066   4.679   5.197   4.901 -1.7772  0.3668  2.4983
  551TIP3   OH223067   5.723   2.735   3.281 -0.5282 -0.3344 -0.2516
  551TIP3    H123068   5.640   2.723   3.236 -0.6234 -1.6366  0.2152
  551TIP3    H223069   5.781   2.670   3.241  0.1730  0.3471 -0.3552
  552TIP3   OH223070   1.441   6.110   5.841 -0.9726  0.8318 -0.1599
  552TIP3    H123071   1.412   6.108   5.750 -0.5722 -0.7648 -0.2875
  552TIP3    H223072   1.368   6.148   5.890 -1.5344  0.8968 -1.0383
  553TIP3   OH223073   4.042   4.190  10.972 -0.4262 -0.0289 -0.0750
  553TIP3    H123074   4.019   4.129  10.902 -1.8639 -0.2428  0.5343
  553TIP3    H223075   4.095   4.258  10.929  0.2070 -1.0732 -0.9939
  554TIP3   OH223076   3.527   2.799   3.576  0.7161 -0.3445  0.3895
  554TIP3    H123077   3.554   2.711   3.551  1.0670 -0.6502  1.7774
  554TIP3    H223078   3.442   2.787   3.618  1.6524 -0.3416  2.4308
  555TIP3   OH223079   1.780   2.831  13.440  0.1236 -0.3944 -0.1442
  555TIP3    H123080   1.834   2.907  13.462  3.5442 -2.9109  1.0319
  555TIP3    H223081   1.705   2.836  13.499  1.1143  1.2000  1.0481
  556TIP3   OH223082   1.016   5.689   5.006 -0.0590 -0.3683  0.2612
  556TIP3    H123083   1.073   5.703   4.931  1.5458  1.0378  1.6451
  556TIP3    H223084   0.990   5.597   5.000  2.5446 -1.1401 -0.3800
  557TIP3   OH223085   5.608   4.694  11.340 -0.1363  0.2402 -0.0721
  557TIP3    H123086   5.544   4.742  11.287 -0.3422  0.5077  0.4160
  557TIP3    H223087   5.574   4.700  11.430 -0.1398 -0.7614  0.0091
  558TIP3   OH223088   6.744   1.306  16.297  0.0057  0.3718  0.5674
  558TIP3    H123089   6.688   1.253  16.353  1.1801 -0.9046  0.5824
  558TIP3    H223090   6.832   1.270  16.310  0.6023  1.3396 -0.5896
  559TIP3   OH223091   3.851   4.211  15.222 -0.2107  0.4636 -0.2140
  559TIP3    H123092   3.893   4.296  15.232  0.8914 -0.0234 -0.6013
  559TIP3    H223093   3.904   4.151  15.275 -0.0079 -0.2849 -1.2347
  560TIP3   OH223094   0.731   2.493   2.075  0.0026  0.6748 -0.7723
  560TIP3    H123095   0.826   2.497   2.081 -0.0238  0.6845 -0.3100
  560TIP3    H223096   0.710   2.401   2.090  0.0431  0.3198 -2.6238
  561TIP3   OH223097   6.496   3.789  12.357  0.3036  0.3104  0.0886
  561TIP3    H123098   6.466   3.801  12.447  1.8137  3.6005  0.3097
  561TIP3    H223099   6.573   3.845  12.350  1.6382 -1.6644 -2.6401
  562TIP3   OH223100   1.609   4.542   5.712  0.0356  0.2178  0.3816
  562TIP3    H123101   1.550   4.488   5.764 -0.3552  1.0707  0.8387
  562TIP3    H223102   1.677   4.571   5.773  0.3062  0.1640  0.1144
  563TIP3   OH223103   3.722   5.688   0.869  0.5047  0.2092 -0.5228
  563TIP3    H123104   3.663   5.718   0.800  0.6071  1.0928 -0.2320
  563TIP3    H223105   3.664   5.659   0.940  0.3322 -2.2769 -1.5546
  564TIP3   OH223106   4.285   6.152  11.922  0.5903  0.2370 -0.3655
  564TIP3    H123107   4.209   6.103  11.890 -0.1185 -0.1266  1.7163
  564TIP3    H223108   4.312   6.206  11.848 -0.5960 -0.9332 -1.7154
  565TIP3   OH223109   0.807   2.621  15.355  0.0297  0.6453  0.2653
  565TIP3    H123110   0.792   2.560  15.283  1.3586  0.2657  0.2882
  565TIP3    H223111   0.816   2.566  15.433 -0.5553  0.9987  0.5940
  566TIP3   OH223112   0.333   5.162  11.514 -0.2310  0.3757  0.0949
  566TIP3    H123113   0.399   5.157  11.444 -0.9159 -0.8169 -0.4963
  566TIP3    H223114   0.383   5.154  11.595  0.6062  2.0412 -0.2182
  567TIP3   OH223115   0.750   3.815  14.563  0.3269 -0.2778  0.4217
  567TIP3    H123116   0.831   3.813  14.614  0.8105  0.4658 -0.3017
  567TIP3    H223117   0.756   3.738  14.507  1.2575  0.5853 -0.7027
  568TIP3   OH223118   2.053   0.723  12.497  0.2915 -0.3753 -0.1732
  568TIP3    H123119   2.028   0.665  12.425  1.5817  0.0829 -1.0347
  568TIP3    H223120   1.970   0.757  12.530 -0.3374 -0.3566 -1.6592
  569TIP3   OH223121   3.823   6.508   0.963 -0.0797 -0.6112  0.2124
  569TIP3    H123122   3.781   6.580   0.916  2.0587 -1.3923 -3.2535
  569TIP3    H223123   3.793   6.429   0.918  2.2805 -1.3929 -0.1388
  570TIP3   OH223124   2.405   4.702   4.792  0.4158 -0.2149  0.1638
  570TIP3    H123125   2.314   4.714   4.819  0.0205 -2.3128 -0.0706
  570TIP3    H223126   2.454   4.698   4.874  0.0751 -0.5060  0.3608
  571TIP3   OH223127   4.685   2.765  10.655  0.0738  0.0808  0.0960
  571TIP3    H123128   4.676   2.852  10.695  1.1740 -0.1558  0.9029
  571TIP3    H223129   4.771   2.767  10.612  0.3435 -0.7796  0.5706
  572TIP3   OH223130   3.366   0.897  12.722 -0.5493 -0.4772 -0.2716
  572TIP3    H123131   3.274   0.903  12.697 -0.1518  0.3994 -1.6597
  572TIP3    H223132   3.405   0.839  12.657  0.2899  0.9155 -1.0596
  573TIP3   OH223133   4.043   1.333  13.800 -0.0563  0.3347 -0.3560
  573TIP3    H123134   4.094   1.253  13.810 -1.0272 -0.2221  0.2984
  573TIP3    H223135   4.104   1.395  13.759  1.1218 -0.3168  0.3367
  574TIP3   OH223136   4.659   5.732  11.128  0.4986  0.4964 -0.2467
  574TIP3    H123137   4.744   5.773  11.142  1.0429 -0.7981  0.3672
  574TIP3    H223138   4.656   5.715  11.034  0.3162  1.7794 -0.4935
  575TIP3   OH223139   2.752   5.433  12.451  0.4569 -0.3062 -0.1276
  575TIP3    H123140   2.695   5.385  12.511  0.3026  2.2199  1.8804
  575TIP3    H223141   2.754   5.378  12.372  0.0028 -3.3451  1.8212
  576TIP3   OH223142   6.483   6.721  11.864 -0.2296 -0.2429 -0.2684
  576TIP3    H123143   6.429   6.734  11.786  0.1067 -0.3836 -0.5300
  576TIP3    H223144   6.459   6.633  11.895 -2.3530  0.8268  1.3868
  577TIP3   OH223145   0.171   1.058  12.577 -0.1152 -0.0627  0.4383
  577TIP3    H123146   0.128   1.058  12.492 -0.9489 -2.3921  0.7814
  577TIP3    H223147   0.118   1.118  12.630  0.1259  1.0306 -0.5173
  578TIP3   OH223148   5.335   6.589   0.814 -0.3663 -0.1197  0.7690
  578TIP3    H123149   5.423   6.563   0.842 -0.9671 -0.9589  1.9575
  578TIP3    H223150   5.341   6.684   0.802  0.2546  0.1247  2.6652
  579TIP3   OH223151   5.961   6.261  12.307 -0.2233  0.0998  0.5817
  579TIP3    H123152   6.031   6.197  12.317  1.4279  1.8242  0.5770
  579TIP3    H223153   5.983   6.330  12.370 -0.9238  1.5200 -0.6787
  580TIP3   OH223154   1.153   1.645   1.198  0.1479 -0.0095 -0.2345
  580TIP3    H123155   1.115   1.558   1.184 -0.8156 -0.0358  1.9778
  580TIP3    H223156   1.098   1.684   1.267  1.9658  1.4199  0.5117
  581TIP3   OH223157   5.088   1.702  11.938 -0.5220  0.2614 -0.2829
  581TIP3    H123158   4.994   1.691  11.926 -0.4052 -4.5488  1.0290
  581TIP3    H223159   5.128   1.651  11.867  0.9839  0.1219  0.6128
  582TIP3   OH223160   2.315   2.034   1.467 -0.1771 -0.0394 -0.0006
  582TIP3    H123161   2.293   2.089   1.392 -1.1419  1.1762  1.1312
  582TIP3    H223162   2.247   1.966   1.469 -2.0252  1.7302  1.5089
  583TIP3   OH223163   0.299   1.638  15.531  0.5085  0.3114  0.0092
  583TIP3    H123164   0.389   1.629  15.501  0.9437 -0.0169  1.3541
  583TIP3    H223165   0.301   1.611  15.623 -0.9103  0.5474  0.1352
  584TIP3   OH223166   2.510   2.319   3.143 -0.8320 -0.7638  0.1587
  584TIP3    H123167   2.425   2.275   3.141 -1.1509 -0.1437 -0.4834
  584TIP3    H223168   2.489   2.412   3.132 -0.2114 -0.3607  2.0686
  585TIP3   OH223169   1.001   4.340  14.634 -0.5181  0.8010 -0.3153
  585TIP3    H123170   1.033   4.357  14.722 -0.8326  1.2893 -0.2935
  585TIP3    H223171   0.910   4.370  14.635 -0.5586  0.7055 -0.7732
  586TIP3   OH223172   5.090   1.684   1.809  0.2818  0.1194 -0.3016
  586TIP3    H123173   5.068   1.777   1.812 -0.1010 -0.0000  0.6952
  586TIP3    H223174   5.179   1.678   1.842  0.6030  0.2069 -1.1126
  587TIP3   OH223175   1.692   0.646   5.452  0.4058  0.1730  0.3150
  587TIP3    H123176   1.699   0.741   5.450 -0.0362  0.2316  1.0686
  587TIP3    H223177   1.777   0.615   5.419  1.3392  0.8303  1.9718
  588TIP3   OH223178   0.618   3.349   1.821 -0.2193 -0.3622  0.0176
  588TIP3    H123179   0.533   3.328   1.783  0.4625 -2.0607 -0.6586
  588TIP3    H223180   0.601   3.359   1.915 -1.0538 -1.3320 -0.0214
  589TIP3   OH223181   5.742   0.612  14.907  0.3050  0.3804 -0.2679
  589TIP3    H123182   5.785   0.529  14.885 -1.9259 -0.5609 -1.4210
  589TIP3    H223183   5.749   0.617  15.002  0.6649 -1.0597 -0.1860
  590TIP3   OH223184   1.681   4.097  13.813  0.4603  0.4098 -0.2068
  590TIP3    H123185   1.722   4.111  13.728 -0.0402 -0.7725 -0.6601
  590TIP3    H223186   1.736   4.032  13.856  0.3358  0.5142  0.1175
  591TIP3   OH223187   4.796   4.764  12.755 -0.4200 -0.1189  0.0291
  591TIP3    H123188   4.822   4.835  12.697  1.0508 -1.0098 -0.4589
  591TIP3    H223189   4.827   4.790  12.842  1.1797 -0.6540 -0.3505
  592TIP3   OH223190   2.420   6.756  11.752  0.3543 -0.0529  0.0026
  592TIP3    H123191   2.411   6.663  11.772 -0.7132  0.0790  0.2460
  592TIP3    H223192   2.477   6.791  11.820 -0.7604 -0.1965  1.0569
  593TIP3   OH223193   3.769   4.555  13.285 -0.1748 -0.4701 -0.6579
  593TIP3    H123194   3.765   4.649  13.266  0.3260 -0.3999 -0.4477
  593TIP3    H223195   3.680   4.533  13.313  0.0702  0.3191  0.9153
  594TIP3   OH223196   2.013   2.446   6.330 -0.5778 -0.1066 -0.8292
  594TIP3    H123197   1.995   2.352   6.335  0.2734 -0.2243  0.4918
  594TIP3    H223198   2.074   2.463   6.402 -0.4394  1.3991 -1.2626
  595TIP3   OH223199   6.239   6.040   6.415 -0.2303  0.6146 -1.3139
  595TIP3    H123200   6.287   5.965   6.382  2.4762  1.4160  0.5186
  595TIP3    H223201   6.256   6.110   6.352  0.1573  0.6183 -1.2048
  596TIP3   OH223202   6.215   5.948  12.349  0.2973 -0.0605  0.1951
  596TIP3    H123203   6.157   5.989  12.285  0.4259  1.5122  1.0254
  596TIP3    H223204   6.160   5.933  12.425  0.8734  1.1250  0.8688
  597TIP3   OH223205   4.860   0.093   6.257  0.7538 -0.0570  0.6723
  597TIP3    H123206   4.932   0.035   6.283  0.7322  0.4759  2.0451
  597TIP3    H223207   4.790   0.034   6.229  0.4113 -0.8036  2.8650
  598TIP3   OH223208   1.725   5.615   1.371 -0.1085  0.2435  0.3434
  598TIP3    H123209   1.745   5.588   1.282 -0.6707 -0.2529  0.3600
  598TIP3    H223210   1.652   5.676   1.363  0.0147  0.4054  0.4426
  599TIP3   OH223211   4.751   2.164   1.314  0.3933  0.4935 -0.0200
  599TIP3    H123212   4.718   2.254   1.304 -0.6550  0.0533 -0.7233
  599TIP3    H223213   4.813   2.154   1.242  0.8120  0.7776  0.2963
  600TIP3   OH223214   1.645   6.635   3.648 -0.1248 -0.1723 -0.9240
  600TIP3    H123215   1.686   6.602   3.728 -1.2024 -1.1595 -0.7478
  600TIP3    H223216   1.710   6.695   3.611  0.5161  0.0866  0.5294
  601TIP3   OH223217   1.431   6.507  13.322 -0.2182 -0.1137 -0.4038
  601TIP3    H123218   1.457   6.520  13.413 -0.4979 -0.3454 -0.2853
  601TIP3    H223219   1.509   6.525  13.271 -0.1535  0.3650 -0.1415
  602TIP3   OH223220   1.027   1.111  12.550  0.3584 -0.2002 -0.1855
  602TIP3    H123221   0.952   1.170  12.553  1.6159  1.4166  0.3417
  602TIP3    H223222   1.016   1.055  12.627 -0.7322 -0.5637 -0.5833
  603TIP3   OH223223   6.300   4.528   1.856  0.0016 -0.0629 -0.4952
  603TIP3    H123224   6.270   4.439   1.838 -1.4156  0.2488  0.1396
  603TIP3    H223225   6.347   4.554   1.777 -0.4545 -1.0106 -1.1028
  604TIP3   OH223226   3.154   2.453   1.825 -0.1460 -0.2247  0.6438
  604TIP3    H123227   3.127   2.515   1.758 -2.8363 -1.3000  0.5870
  604TIP3    H223228   3.084   2.387   1.827  0.0308 -0.5369  4.1095
  605TIP3   OH223229   3.874   5.068   1.787  0.0569  0.6222  0.7599
  605TIP3    H123230   3.870   5.026   1.873  0.4220 -0.7497  0.1407
  605TIP3    H223231   3.951   5.029   1.745  0.7336  2.3309  0.3233
  606TIP3   OH223232   2.818   2.115  11.280  0.0655 -0.8316 -0.4419
  606TIP3    H123233   2.836   2.142  11.190 -0.8643 -1.4547 -0.8252
  606TIP3    H223234   2.869   2.034  11.292 -1.3296 -1.8441 -1.0809
  607TIP3   OH223235   4.115   6.452  13.976  0.3860 -0.0928 -0.1659
  607TIP3    H123236   4.038   6.418  13.930 -0.1289  0.1640  0.5087
  607TIP3    H223237   4.095   6.543  13.994  1.0811  0.1290 -0.4733
  608TIP3   OH223238   3.612   0.919  13.697  0.1409 -0.4580 -0.8653
  608TIP3    H123239   3.646   0.981  13.632 -0.5841 -0.4089 -1.2122
  608TIP3    H223240   3.545   0.870  13.650  0.7461 -1.5681 -0.6148
  609TIP3   OH223241   1.645   0.363  13.563 -0.4164 -0.4842  0.2563
  609TIP3    H123242   1.667   0.342  13.472 -1.2057 -2.7951  0.5364
  609TIP3    H223243   1.729   0.389  13.602 -0.2382  1.5974 -1.3312
  610TIP3   OH223244   6.504   0.578   4.433  0.1722 -0.3713  0.0264
  610TIP3    H123245   6.593   0.581   4.468  0.3708 -3.1066  0.0213
  610TIP3    H223246   6.516   0.568   4.339 -0.1595  0.0649 -0.0615
  611TIP3   OH223247   0.685   0.964   2.730 -0.2935  0.2466 -0.5648
  611TIP3    H123248   0.677   0.884   2.781 -0.7661 -0.6003 -1.9193
  611TIP3    H223249   0.613   0.960   2.667 -1.7812  2.8692  0.8171
  612TIP3   OH223250   0.998   1.422   1.082 -0.3427  0.0064  0.4514
  612TIP3    H123251   0.988   1.404   0.989 -0.5078 -1.5845  0.7382
  612TIP3    H223252   1.078   1.376   1.107  0.1267  1.0686  0.9540
  613TIP3   OH223253   3.248   4.095  15.172  0.9465  0.6004 -0.0521
  613TIP3    H123254   3.281   4.095  15.082  0.5986 -0.3304 -0.1958
  613TIP3    H223255   3.230   4.003  15.191 -1.6176  1.0288 -0.0192
  614TIP3   OH223256   4.751   1.022   0.455  0.0152 -0.4184 -0.3368
  614TIP3    H123257   4.795   1.033   0.540 -1.2556 -0.1252  0.3121
  614TIP3    H223258   4.689   0.951   0.470  0.3314 -0.9114 -1.2757
  615TIP3   OH223259   4.203   1.252  16.127 -0.4838 -0.3960  0.2156
  615TIP3    H123260   4.296   1.239  16.147 -0.2670  1.0737  0.2433
  615TIP3    H223261   4.162   1.265  16.213 -0.1776  2.0641  0.0469
  616TIP3   OH223262   1.884   2.467  16.856  0.2524 -0.5027  0.1778
  616TIP3    H123263   1.949   2.533  16.835 -1.4788  1.7389  1.3729
  616TIP3    H223264   1.859   2.429  16.771  1.3369  0.3338 -0.5306
  617TIP3   OH223265   3.154   5.236  14.105  0.1528  0.3549  0.3547
  617TIP3    H123266   3.207   5.316  14.112 -0.1789  0.7326 -1.0230
  617TIP3    H223267   3.151   5.218  14.011 -1.2850 -0.2602  0.4950
  618TIP3   OH223268   6.591   5.821  13.865 -0.2187 -0.2926 -0.6647
  618TIP3    H123269   6.568   5.894  13.923 -0.2652  0.5826 -1.7572
  618TIP3    H223270   6.632   5.757  13.923  0.8797  1.0795  0.1365
  619TIP3   OH223271   4.441   5.432   2.900  0.6635 -0.3439  0.2222
  619TIP3    H123272   4.351   5.452   2.874  0.2892 -2.2198 -0.1229
  619TIP3    H223273   4.489   5.424   2.817  1.1996  0.7550  0.4074
  620TIP3   OH223274   0.836   6.134   3.982 -0.1039  0.4258 -0.9723
  620TIP3    H123275   0.783   6.055   3.979 -0.3222  0.5694 -0.9161
  620TIP3    H223276   0.840   6.165   3.891 -2.6671  2.0962 -0.6331
  621TIP3   OH223277   0.568   5.721   3.911  0.6041  0.1803 -0.1692
  621TIP3    H123278   0.565   5.630   3.940  0.7710  0.0300 -0.6112
  621TIP3    H223279   0.504   5.726   3.840  0.8494  0.3188 -0.3834
  622TIP3   OH223280   1.367   5.549  14.802  0.8083  0.5667  0.2513
  622TIP3    H123281   1.338   5.630  14.760 -1.5994 -1.3055 -2.0984
  622TIP3    H223282   1.460   5.542  14.780  0.5223  1.6014 -1.5000
  623TIP3   OH223283   3.912   0.089   0.183  0.1741 -0.1568  0.2070
  623TIP3    H123284   3.948   0.014   0.134  0.6970 -0.0547  0.4331
  623TIP3    H223285   3.983   0.153   0.184 -0.1115  0.1563  0.4254
  624TIP3   OH223286   0.626   1.732  14.339  0.4214 -0.0759  0.1222
  624TIP3    H123287   0.655   1.696  14.255  0.7025 -1.5699  0.8311
  624TIP3    H223288   0.673   1.815  14.347 -0.0554  0.3725 -1.4469
  625TIP3   OH223289   1.581   3.696  14.439  0.4943  0.2959 -0.0685
  625TIP3    H123290   1.574   3.613  14.486  1.8354  0.5660  0.6819
  625TIP3    H223291   1.544   3.760  14.500  0.9790  0.4561  0.0669
  626TIP3   OH223292   5.815   2.561  15.750 -0.8350  0.1440  0.2438
  626TIP3    H123293   5.838   2.496  15.816  0.7590  0.9916  0.6038
  626TIP3    H223294   5.822   2.514  15.667  1.4798  0.0653  0.4043
  627TIP3   OH223295   0.978   1.919   2.386 -0.0682  0.0411 -0.1458
  627TIP3    H123296   0.977   2.013   2.365  0.4233 -0.0884 -0.8160
  627TIP3    H223297   1.009   1.915   2.476  1.1233  0.4741 -0.5134
  628TIP3   OH223298   4.592   4.718   1.331 -0.3184  0.2586  0.2379
  628TIP3    H123299   4.599   4.632   1.372 -1.1519 -0.3574 -0.8787
  628TIP3    H223300   4.650   4.774   1.384 -0.0716 -0.8772  1.2163
  629TIP3   OH223301   5.816   0.207  10.415  0.2482  0.2920 -0.5853
  629TIP3    H123302   5.885   0.188  10.478  0.1698 -1.4091 -0.9787
  629TIP3    H223303   5.819   0.135  10.352 -1.0280  0.8639 -1.3559
  630TIP3   OH223304   1.029   5.619  14.677  0.0344 -0.1411 -0.3583
  630TIP3    H123305   1.012   5.648  14.587  0.9198  0.5039 -0.3293
  630TIP3    H223306   0.942   5.606  14.715 -0.3859  1.7340 -0.6158
  631TIP3   OH223307   6.676   4.736  14.869  0.3535 -0.4982 -0.2813
  631TIP3    H123308   6.685   4.675  14.942  1.3246 -0.8780 -0.6998
  631TIP3    H223309   6.662   4.680  14.792 -0.7836 -0.1006 -0.3853
  632TIP3   OH223310   2.924   0.710   2.352  0.1993  0.4324  0.1631
  632TIP3    H123311   2.900   0.647   2.284  1.1842 -1.7477  1.7270
  632TIP3    H223312   2.847   0.715   2.408  0.9227 -1.2870  1.3687
  633TIP3   OH223313   4.358   5.875  14.608 -0.4093  0.1264  0.1768
  633TIP3    H123314   4.372   5.853  14.516  1.3560 -0.3557  0.5348
  633TIP3    H223315   4.267   5.905  14.612  0.0743  2.2354 -2.1427
  634TIP3   OH223316   0.766   3.050  13.923  0.2063  0.4199 -0.5931
  634TIP3    H123317   0.796   3.045  13.833 -0.6024 -1.3661 -0.8139
  634TIP3    H223318   0.682   3.003  13.923  0.9743 -1.1391  1.3749
  635TIP3   OH223319   3.385   4.632  14.983  0.2146  0.3938 -0.7091
  635TIP3    H123320   3.321   4.695  15.018 -0.2721  0.2655 -1.3298
  635TIP3    H223321   3.338   4.549  14.982  0.1914  0.4042 -1.6930
  636TIP3   OH223322   4.796   3.332  15.433 -0.5548 -0.4100 -0.2135
  636TIP3    H123323   4.792   3.359  15.342 -2.7009 -0.0850 -0.0649
  636TIP3    H223324   4.876   3.373  15.467  0.4119 -0.7461 -1.9614
  637TIP3   OH223325   0.247   0.001   2.578 -0.0702  0.1114 -0.5063
  637TIP3    H123326   0.298  -0.019   2.656 -1.3346  0.0906  0.3436
  637TIP3    H223327   0.269   0.092   2.558 -0.3601  0.3951  0.3955
  638TIP3   OH223328   0.108   2.155   3.706  0.0030 -0.6591 -0.9497
  638TIP3    H123329   0.054   2.131   3.782  1.1889  1.8134  0.8263
  638TIP3    H223330   0.056   2.222   3.661  0.2293 -0.5223 -1.0108
  639TIP3   OH223331   3.995   5.896  11.917 -0.4657 -0.5319 -0.2294
  639TIP3    H123332   4.006   5.820  11.860  2.4319 -0.1326 -0.3673
  639TIP3    H223333   3.998   5.971  11.858 -0.8183 -0.2211  0.1402
  640TIP3   OH223334   3.052   5.163   2.355 -0.4609  0.4355 -0.5139
  640TIP3    H123335   3.088   5.077   2.335 -1.6705  0.2240 -1.9732
  640TIP3    H223336   2.957   5.152   2.345 -0.6392  1.9060 -0.6160
  641TIP3   OH223337   2.112   4.183   1.421 -0.3219 -0.3497  1.0081
  641TIP3    H123338   2.176   4.249   1.450  1.2764 -1.2883 -0.2243
  641TIP3    H223339   2.092   4.133   1.500  1.2539 -0.6604  1.2386
  642TIP3   OH223340   4.799   3.715   4.384 -0.1417  0.2559  0.1186
  642TIP3    H123341   4.894   3.708   4.381  0.0331  2.0279  0.6094
  642TIP3    H223342   4.770   3.628   4.411  1.1071 -1.2384 -2.8378
  643TIP3   OH223343   2.219   4.769  16.551 -0.6188  0.2926  0.3767
  643TIP3    H123344   2.220   4.701  16.483  2.2153 -0.2357  0.8177
  643TIP3    H223345   2.215   4.851  16.502  0.4312 -0.1118 -0.4284
  644TIP3   OH223346   0.540   1.758  13.206  0.1293  0.1547  0.3366
  644TIP3    H123347   0.499   1.838  13.174 -0.8774 -0.3449  0.3466
  644TIP3    H223348   0.514   1.691  13.143 -0.0487 -0.3948  0.9818
  645TIP3   OH223349   5.905   6.342   5.298  0.1357 -0.5918  0.4378
  645TIP3    H123350   5.949   6.379   5.375  3.2354 -0.0545 -1.4319
  645TIP3    H223351   5.824   6.394   5.290  1.6048  2.0210  1.1715
  646TIP3   OH223352   5.644   1.774   5.081 -0.4061  0.0452 -0.0137
  646TIP3    H123353   5.585   1.782   5.006  0.3852  1.0215 -0.5503
  646TIP3    H223354   5.676   1.862   5.096 -0.0121 -0.2678  1.0426
  647TIP3   OH223355   3.971   2.818   4.218 -0.4812  0.4329  0.2656
  647TIP3    H123356   4.040   2.859   4.166 -0.9319  1.9061  0.7842
  647TIP3    H223357   3.894   2.821   4.160 -0.4153 -0.1196  0.1396
  648TIP3   OH223358   6.185   3.355  16.381  0.2436 -0.0830 -0.0027
  648TIP3    H123359   6.218   3.371  16.470 -0.5002  1.4276  0.0313
  648TIP3    H223360   6.251   3.394  16.324 -0.4051  1.0596 -0.0058
  649TIP3   OH223361   1.089   4.943  15.824 -0.4245 -0.8511 -0.1992
  649TIP3    H123362   1.166   4.911  15.778  0.6728  0.0200  0.9500
  649TIP3    H223363   1.024   4.874  15.813  0.8349 -2.0532 -0.3976
  650TIP3   OH223364   3.909   5.197  12.004 -0.0977 -0.3117 -0.0921
  650TIP3    H123365   3.975   5.131  11.981 -0.8720 -0.9422 -0.5701
  650TIP3    H223366   3.949   5.280  11.980  1.3236 -0.4849  1.4926
  651TIP3   OH223367   3.270   4.979   0.094 -0.3477  0.1128  0.4960
  651TIP3    H123368   3.191   4.927   0.079  0.0173 -0.4736  0.6041
  651TIP3    H223369   3.329   4.956   0.022 -0.2591  0.5265  0.4318
  652TIP3   OH223370   2.092   6.587  14.122 -0.1047  0.8027  0.4130
  652TIP3    H123371   2.040   6.564  14.045 -0.2780 -0.8452  0.9990
  652TIP3    H223372   2.180   6.555  14.103 -0.1830  0.2424  0.9424
  653TIP3   OH223373   6.188   2.648  11.782  0.4985 -0.4005 -0.3713
  653TIP3    H123374   6.199   2.731  11.828  1.4175 -0.9767  0.4665
  653TIP3    H223375   6.217   2.581  11.844 -0.9000 -1.4241 -0.7600
  654TIP3   OH223376   0.836   5.414   3.211  0.4538 -0.0003 -0.1804
  654TIP3    H123377   0.884   5.332   3.219 -0.4810 -0.6052 -0.5627
  654TIP3    H223378   0.786   5.405   3.129  1.0902  1.3558 -0.7605
  655TIP3   OH223379   2.144   4.634  16.276 -0.3365 -0.3866 -0.7737
  655TIP3    H123380   2.058   4.654  16.239 -0.3747 -1.2480 -1.1842
  655TIP3    H223381   2.177   4.562  16.222  0.6041 -0.1336 -0.5608
  656TIP3   OH223382   3.966   2.028   1.098  0.0386  0.1989 -0.0928
  656TIP3    H123383   3.937   1.950   1.050 -0.5182  0.0652  0.4470
  656TIP3    H223384   3.928   2.102   1.049 -0.5152  0.0636  0.1181
  657TIP3   OH223385   5.810   4.579   4.269 -0.0108  0.6806  0.3453
  657TIP3    H123386   5.844   4.648   4.327  2.9008 -0.8592  0.6449
  657TIP3    H223387   5.812   4.500   4.322 -1.2258 -0.0696 -0.6676
  658TIP3   OH223388   2.799   0.134  14.185  0.2572  0.3532 -0.2956
  658TIP3    H123389   2.810   0.223  14.152  0.2996 -0.0656 -1.4653
  658TIP3    H223390   2.712   0.133  14.224  0.1181  0.8231 -0.5871
  659TIP3   OH223391   0.822   4.669   2.762 -0.3674 -0.1294  0.4326
  659TIP3    H123392   0.858   4.592   2.805 -0.0885  0.1128  0.6326
  659TIP3    H223393   0.785   4.636   2.680 -1.6925 -0.7373  1.2428
  660TIP3   OH223394   2.461   5.022   3.746 -0.2485  0.5049 -0.3342
  660TIP3    H123395   2.380   4.974   3.764 -0.6802  0.2916 -2.5202
  660TIP3    H223396   2.437   5.114   3.757 -0.2827  0.3762  0.7594
  661TIP3   OH223397   1.149   2.607  12.837  0.8460  0.1320  0.2436
  661TIP3    H123398   1.061   2.576  12.817  0.9059  0.0716  0.0735
  661TIP3    H223399   1.136   2.699  12.861  0.7524  0.1614  0.0859
  662TIP3   OH223400   6.371   4.663   5.798  0.4399  0.0673  0.2999
  662TIP3    H123401   6.340   4.679   5.709  0.2609 -1.4919  0.0571
  662TIP3    H223402   6.443   4.726   5.810  1.1208 -0.3499 -1.3051
  663TIP3   OH223403   1.235   6.268  16.677 -0.6125 -0.1979 -0.1794
  663TIP3    H123404   1.234   6.351  16.725  0.1501 -1.8892  3.1128
  663TIP3    H223405   1.319   6.268  16.630 -1.0544  1.2327 -1.0238
  664TIP3   OH223406   5.078   2.156  13.165  0.7101  0.4751 -1.1456
  664TIP3    H123407   5.160   2.121  13.130  1.0294 -0.8133  0.7519
  664TIP3    H223408   5.093   2.251  13.170  1.5323  0.4202 -2.1321
  665TIP3   OH223409   2.249   3.779  10.364 -0.1833 -0.0729 -0.2686
  665TIP3    H123410   2.340   3.773  10.394  0.7178  3.3589 -1.7796
  665TIP3    H223411   2.205   3.831  10.431 -1.2178 -1.9637  0.6059
  666TIP3   OH223412   2.845   1.780   3.593 -0.6300 -0.2813 -0.5199
  666TIP3    H123413   2.786   1.789   3.518 -1.9263  0.2984  0.5268
  666TIP3    H223414   2.889   1.865   3.598  0.6560 -0.8443 -1.5418
  667TIP3   OH223415   6.466   4.006   2.196  0.2991  0.2552 -0.0910
  667TIP3    H123416   6.457   3.914   2.172  1.4467 -0.1549  0.9501
  667TIP3    H223417   6.525   4.005   2.271  2.3816  2.0251 -1.5823
  668TIP3   OH223418   2.806   3.003  12.496 -0.2562 -0.2230  0.0865
  668TIP3    H123419   2.748   3.074  12.470 -0.1086 -0.1947 -0.1745
  668TIP3    H223420   2.861   2.989  12.419 -1.9984 -2.3851 -0.8707
  669TIP3   OH223421   3.495   5.481  13.890 -0.0764 -0.5969 -0.2011
  669TIP3    H123422   3.543   5.510  13.812 -1.1073  1.0414 -0.2770
  669TIP3    H223423   3.528   5.537  13.960 -0.6827 -0.5912  0.0869
  670TIP3   OH223424   3.082   0.738   1.854 -0.7578 -0.2574 -0.0354
  670TIP3    H123425   3.017   0.782   1.799 -0.0775  0.2706 -0.4388
  670TIP3    H223426   3.054   0.647   1.857 -1.7401  0.0403  0.1336
  671TIP3   OH223427   5.906   4.940  11.569  0.0445 -0.1037 -0.3061
  671TIP3    H123428   5.912   4.963  11.662 -1.9962  0.4327 -0.2723
  671TIP3    H223429   5.848   5.007  11.531 -1.3649 -1.8540 -1.3999
  672TIP3   OH223430   3.587   4.040   0.372  0.8734  0.2013  0.0399
  672TIP3    H123431   3.521   3.980   0.339  0.9004 -0.0158  0.3726
  672TIP3    H223432   3.629   3.993   0.444  0.9042  0.6117  0.2965
  673TIP3   OH223433   2.331   6.098  13.199 -0.8644 -0.1928 -0.2068
  673TIP3    H123434   2.317   6.011  13.238 -0.7065  0.0264  0.3457
  673TIP3    H223435   2.300   6.159  13.265  1.0533  0.2572  0.3634
  674TIP3   OH223436   0.913   3.796  16.133  0.4746  0.7315  0.3805
  674TIP3    H123437   1.004   3.768  16.143  0.2933 -0.4459 -0.9347
  674TIP3    H223438   0.862   3.721  16.163 -0.0325  0.1073 -1.8800
  675TIP3   OH223439   5.246   4.399  14.997  0.2077  0.0844  0.1873
  675TIP3    H123440   5.257   4.305  15.010 -1.2940  0.1671  2.4275
  675TIP3    H223441   5.314   4.439  15.052 -1.0250  0.3177  1.5894
  676TIP3   OH223442   5.291   2.270  15.696 -0.5907  0.0675  0.0393
  676TIP3    H123443   5.284   2.189  15.646  0.0073  0.2990 -0.4344
  676TIP3    H223444   5.311   2.243  15.785  0.3989 -0.2820 -0.2803
  677TIP3   OH223445   4.416   0.992   1.120 -0.4572 -0.2460 -0.2689
  677TIP3    H123446   4.379   1.056   1.060 -1.7959 -0.4870  0.2857
  677TIP3    H223447   4.509   0.988   1.095 -0.3116  1.9527 -0.2464
  678TIP3   OH223448   4.221   0.099  15.465 -0.3934  0.1095 -0.0610
  678TIP3    H123449   4.129   0.076  15.455 -0.3132 -0.4157  0.3675
  678TIP3    H223450   4.229   0.125  15.557 -0.1036  0.1264 -0.0885
  679TIP3   OH223451   4.546   4.689  15.043  0.0457 -0.0225  0.2300
  679TIP3    H123452   4.596   4.608  15.035 -0.6591 -0.3682 -0.9475
  679TIP3    H223453   4.459   4.660  15.072 -0.3457  0.2465 -0.6498
  680TIP3   OH223454   1.326   2.636   1.682  0.5255  0.0139  0.7850
  680TIP3    H123455   1.326   2.713   1.625  0.2546 -0.6832 -0.1781
  680TIP3    H223456   1.390   2.657   1.750  1.1905  0.6933 -0.0205
  681TIP3   OH223457   5.154   1.055  16.688  0.0113 -0.3864 -0.1010
  681TIP3    H123458   5.148   0.962  16.665  0.5403 -0.2949 -0.6218
  681TIP3    H223459   5.075   1.094  16.651 -0.3409 -0.6710  0.3408
  682TIP3   OH223460   0.025   4.338   0.017  0.3285 -0.0182 -0.0677
  682TIP3    H123461  -0.045   4.343  -0.047 -0.7490  1.5694  1.1857
  682TIP3    H223462   0.102   4.371  -0.029 -0.1977  0.1683 -0.8249
  683TIP3   OH223463   3.384   1.282   3.416 -0.2736  0.4829  0.0487
  683TIP3    H123464   3.307   1.296   3.470 -1.2135 -0.8835 -0.8678
  683TIP3    H223465   3.400   1.188   3.422  0.0942  0.4395 -1.3717
  684TIP3   OH223466   4.949   1.066  15.240  0.2842  0.3153 -0.0639
  684TIP3    H123467   4.916   1.152  15.213  0.0082  0.1440 -0.2716
  684TIP3    H223468   4.872   1.010  15.239  0.4590  0.0718  0.1115
  685TIP3   OH223469   3.905   3.450  14.547  0.3304  0.8340  0.7418
  685TIP3    H123470   3.996   3.443  14.520 -0.3949 -3.1600 -1.5489
  685TIP3    H223471   3.856   3.455  14.465 -1.6097 -0.2193  1.7592
  686TIP3   OH223472   4.958   2.047   4.629 -0.6303 -0.3387 -0.3385
  686TIP3    H123473   4.940   2.089   4.545  0.2751 -0.7506 -0.7532
  686TIP3    H223474   4.938   2.114   4.695 -1.0196  0.0980 -0.8967
  687TIP3   OH223475   6.293   1.804   2.804 -0.1298  0.0160  0.2984
  687TIP3    H123476   6.299   1.778   2.896  1.2099 -0.1167  0.1925
  687TIP3    H223477   6.365   1.866   2.792 -0.9924  0.9136 -0.3918
  688TIP3   OH223478   2.719   3.248  15.703  0.5588 -0.1937 -0.6840
  688TIP3    H123479   2.649   3.214  15.759  1.1570 -1.3613 -0.6314
  688TIP3    H223480   2.773   3.300  15.763  0.4311 -0.3068 -0.4662
  689TIP3   OH223481   5.149   6.347   3.602  0.0382 -0.1521 -0.2621
  689TIP3    H123482   5.242   6.360   3.582 -0.3576  1.3489 -1.3115
  689TIP3    H223483   5.137   6.388   3.687  0.2521  0.0461 -0.3265
  690TIP3   OH223484   4.791   5.502  15.097  0.1182  0.0145  0.1261
  690TIP3    H123485   4.881   5.525  15.072 -0.0967  0.4916 -0.1906
  690TIP3    H223486   4.794   5.498  15.193  0.6643 -0.7371  0.0935
  691TIP3   OH223487   2.747   2.939   6.622 -0.2154 -0.5186 -0.2888
  691TIP3    H123488   2.695   3.018   6.639  2.5526  1.2780  0.5718
  691TIP3    H223489   2.684   2.867   6.625 -2.6312  1.4899  0.4092
  692TIP3   OH223490   5.247   0.603   4.753 -0.7196 -0.2567 -0.4115
  692TIP3    H123491   5.157   0.571   4.760 -0.7050 -0.2062  0.0148
  692TIP3    H223492   5.301   0.524   4.745 -0.6134 -0.3893  1.3617
  693TIP3   OH223493   3.181   2.268  11.790 -0.3560  0.3354 -0.2397
  693TIP3    H123494   3.226   2.195  11.832  0.3102  0.6607 -0.3745
  693TIP3    H223495   3.156   2.234  11.704 -0.4008  0.1436 -0.1529
  694TIP3   OH223496   0.160   3.800  12.145 -0.0704 -0.1773  0.3869
  694TIP3    H123497   0.091   3.824  12.083  0.8958  0.1930 -0.5674
  694TIP3    H223498   0.192   3.715  12.113  0.1035 -0.2191  0.6686
  695TIP3   OH223499   1.866   3.928  13.938 -0.1090 -0.6215  0.1317
  695TIP3    H123500   1.889   3.855  13.996  1.0855 -1.4496 -1.3168
  695TIP3    H223501   1.907   3.906  13.855 -0.8045  1.1075 -0.7098
  696TIP3   OH223502   1.300   5.847  14.966 -0.2018 -0.5540  0.0078
  696TIP3    H123503   1.290   5.786  14.893 -0.5906 -1.2256  0.6050
  696TIP3    H223504   1.215   5.890  14.973 -0.5485 -1.3294  0.7785
  697TIP3   OH223505   3.703   5.430  16.083  0.5012 -0.3170  0.5553
  697TIP3    H123506   3.707   5.525  16.087 -1.5058 -0.1007 -0.9746
  697TIP3    H223507   3.788   5.401  16.115  1.4863  2.0077  0.2438
  698TIP3   OH223508   1.077   1.823   2.932 -0.0275  0.0993  0.0896
  698TIP3    H123509   1.044   1.741   2.895 -0.1232 -0.0480  0.4925
  698TIP3    H223510   1.169   1.825   2.908 -0.2380  0.3297 -0.7196
  699TIP3   OH223511   5.944   3.096   4.384 -0.4413 -0.0933  0.0340
  699TIP3    H123512   5.872   3.144   4.344 -0.6519 -0.9596 -0.6497
  699TIP3    H223513   5.956   3.019   4.328  0.2679 -0.5393  0.7762
  700TIP3   OH223514   3.338   6.272  12.312 -0.1307  0.3838 -0.2369
  700TIP3    H123515   3.383   6.263  12.396 -0.1093 -1.7703 -0.4163
  700TIP3    H223516   3.246   6.259  12.332 -0.1044 -0.3516 -0.5511
  701TIP3   OH223517   5.999   2.175   4.922 -0.1491 -0.4366 -0.3131
  701TIP3    H123518   5.984   2.131   4.839  0.2999  0.4356 -0.8735
  701TIP3    H223519   6.050   2.113   4.974  0.5222 -0.5638 -1.1025
  702TIP3   OH223520   2.530   0.240   2.755  0.3602 -0.3225  0.0684
  702TIP3    H123521   2.446   0.281   2.773  1.5952  1.0351  3.6844
  702TIP3    H223522   2.590   0.313   2.739  1.4155 -1.0513  0.5497
  703TIP3   OH223523   4.609   4.166   3.533 -0.6352  0.4138  0.2858
  703TIP3    H123524   4.634   4.178   3.625 -0.9285  0.0747  0.4122
  703TIP3    H223525   4.530   4.219   3.523 -0.8844  0.0572  0.3599
  704TIP3   OH223526   3.703   1.766   2.831  0.2530  0.2814 -0.2531
  704TIP3    H123527   3.793   1.790   2.856 -0.0776 -0.3153  1.6406
  704TIP3    H223528   3.659   1.849   2.817  0.6391  0.6263  0.5373
  705TIP3   OH223529   2.855   6.107   5.713  0.2725 -0.1591  0.5514
  705TIP3    H123530   2.761   6.098   5.729  0.3405 -2.7825 -0.1477
  705TIP3    H223531   2.893   6.115   5.801 -0.4755 -0.4116  0.9123
  706TIP3   OH223532   0.052   1.931  12.610 -0.2344 -0.4464  0.1540
  706TIP3    H123533   0.127   1.935  12.668  1.1503  0.1159 -1.5751
  706TIP3    H223534  -0.019   1.975  12.658  1.0569  0.6698  1.1030
  707TIP3   OH223535   0.774   4.811   1.774  0.0257  0.5365  0.2563
  707TIP3    H123536   0.702   4.785   1.832 -0.3000 -1.1210 -0.8198
  707TIP3    H223537   0.750   4.774   1.689  2.7510 -1.1580  0.1241
  708TIP3   OH223538   0.756   1.409   5.942  0.6174 -0.1373  0.1308
  708TIP3    H123539   0.720   1.454   6.019 -1.4824  1.2605 -1.5537
  708TIP3    H223540   0.822   1.350   5.978  1.2028  1.9138  2.8040
  709TIP3   OH223541   5.213   0.590  12.358  0.2090 -0.0475  0.4377
  709TIP3    H123542   5.234   0.499  12.335  1.3119  0.6317 -1.5006
  709TIP3    H223543   5.119   0.598  12.344  0.2574 -0.6611 -0.2650
  710TIP3   OH223544   1.315   3.625  11.872  1.1320 -0.0476  0.1402
  710TIP3    H123545   1.312   3.533  11.899  0.4209  0.4498  1.9202
  710TIP3    H223546   1.263   3.670  11.938  1.5015  1.6503 -0.6910
  711TIP3   OH223547   6.741   6.586   4.383  0.1678 -0.0794  0.4273
  711TIP3    H123548   6.805   6.638   4.432 -0.3046  0.1996  0.7492
  711TIP3    H223549   6.669   6.646   4.365  0.8012  0.1765 -1.6141
  712TIP3   OH223550   3.579   0.546   1.208 -0.7486  0.1646 -0.1033
  712TIP3    H123551   3.666   0.524   1.242 -0.6800  0.5349 -0.0383
  712TIP3    H223552   3.520   0.486   1.253 -0.2388 -2.1202 -2.2245
  713TIP3   OH223553   4.174   4.952  14.490  0.2625 -0.0516  0.1496
  713TIP3    H123554   4.103   4.993  14.539  2.1356  1.1396  2.0555
  713TIP3    H223555   4.253   4.975  14.539  1.9124 -1.9291 -1.4489
  714TIP3   OH223556   2.255   1.707  16.755 -0.1476  0.2403  0.5375
  714TIP3    H123557   2.224   1.755  16.832  1.4536 -1.7721  2.5351
  714TIP3    H223558   2.346   1.734  16.745 -0.2173  0.1603 -0.4214
  715TIP3   OH223559   5.670   2.614   5.519 -0.3843  0.2916 -0.2444
  715TIP3    H123560   5.698   2.524   5.537 -1.2330  0.2695  1.1240
  715TIP3    H223561   5.721   2.668   5.578  1.1423  0.9082 -2.0313
  716TIP3   OH223562   1.851   3.824   2.685 -0.0455 -0.1126  0.1351
  716TIP3    H123563   1.922   3.794   2.742  0.6956  1.7598  0.2715
  716TIP3    H223564   1.893   3.885   2.624 -0.6127 -2.6813 -3.1095
  717TIP3   OH223565   2.040   2.112   2.226 -0.5994  0.2915  0.1420
  717TIP3    H123566   1.995   2.037   2.265  0.4293  0.1324  1.0628
  717TIP3    H223567   2.006   2.188   2.274  0.1967  0.1568  0.9450
  718TIP3   OH223568   4.067   2.669  10.491 -0.7043 -0.1191  0.2549
  718TIP3    H123569   3.998   2.643  10.430 -2.9307 -0.2717  2.6082
  718TIP3    H223570   4.054   2.763  10.503  0.5670  0.1657 -0.4336
  719TIP3   OH223571   5.892   6.034   0.677  0.4864 -0.3987  0.9967
  719TIP3    H123572   5.977   6.020   0.720  0.7102 -0.8336  0.4275
  719TIP3    H223573   5.884   6.129   0.670  0.8759 -0.3516  1.1599
  720TIP3   OH223574   5.676   0.851   5.267 -0.1873 -0.2708 -0.2151
  720TIP3    H123575   5.687   0.936   5.225  2.5203 -0.4379  0.0013
  720TIP3    H223576   5.583   0.831   5.257 -0.2544  1.1140 -3.3174
  721TIP3   OH223577   0.534   5.417   6.059  0.0203 -0.4229 -0.2091
  721TIP3    H123578   0.618   5.464   6.068  0.3047  0.0543 -3.8907
  721TIP3    H223579   0.468   5.483   6.082  0.5673  0.3641 -0.8287
  722TIP3   OH223580   6.117   2.747   4.448  0.1803  0.1531 -0.0653
  722TIP3    H123581   6.053   2.711   4.509  0.1324 -0.3594 -0.4150
  722TIP3    H223582   6.198   2.754   4.500  0.3459 -1.0228 -0.1508
  723TIP3   OH223583   6.666   0.359  12.183  0.0534  0.0356  0.9450
  723TIP3    H123584   6.669   0.301  12.107  0.0499  1.4616 -0.1999
  723TIP3    H223585   6.634   0.304  12.254  0.8830 -1.5662  0.1323
  724TIP3   OH223586   4.791   0.547   5.036  0.6384 -0.2246 -0.3456
  724TIP3    H123587   4.834   0.509   5.112  1.4728  0.1058 -0.6474
  724TIP3    H223588   4.702   0.566   5.066  1.0905  0.3505  0.7022
  725TIP3   OH223589   5.342   1.238  16.810 -0.6583 -0.0353  0.1049
  725TIP3    H123590   5.413   1.174  16.815  0.5304  1.2014 -0.3355
  725TIP3    H223591   5.264   1.186  16.791  0.3335 -1.3031 -0.6431
  726TIP3   OH223592   5.180   3.050   0.735  0.5002 -0.0405 -0.0387
  726TIP3    H123593   5.111   3.109   0.766 -2.2448 -3.4222  0.9067
  726TIP3    H223594   5.219   3.015   0.815  1.8500  0.1893 -0.5705
  727TIP3   OH223595   1.732   1.018   3.008 -0.0107  0.2121  0.0684
  727TIP3    H123596   1.787   1.074   3.064  0.8027 -0.3612 -0.1251
  727TIP3    H223597   1.751   1.046   2.919  1.0418 -0.8698 -0.0890
  728TIP3   OH223598   1.159   2.452  11.723 -0.1337 -0.2011  0.1404
  728TIP3    H123599   1.206   2.536  11.723 -2.2670  1.0788  0.7816
  728TIP3    H223600   1.129   2.441  11.633 -0.4181  0.0920  0.1947
  729TIP3   OH223601   4.706   6.441   5.205  0.4256 -0.1675 -0.3322
  729TIP3    H123602   4.742   6.473   5.122  2.1633 -0.9018  0.1047
  729TIP3    H223603   4.729   6.508   5.268 -0.1494 -0.0206 -0.2702
  730TIP3   OH223604   2.936   2.040  13.764 -0.0683  0.3003  0.2664
  730TIP3    H123605   2.933   1.991  13.682 -0.5080 -2.4318  1.8135
  730TIP3    H223606   2.880   1.991  13.824 -0.1929  2.4937  2.1078
  731TIP3   OH223607   2.554   1.996  16.767 -0.6322  0.7561 -0.1199
  731TIP3    H123608   2.523   2.026  16.852 -0.8117  0.9117 -0.2375
  731TIP3    H223609   2.479   2.009  16.709 -0.5571  0.5209 -0.2716
  732TIP3   OH223610   0.190   2.134   3.227  0.0293  0.3324 -0.0430
  732TIP3    H123611   0.246   2.174   3.293  2.0672  0.8026 -1.9413
  732TIP3    H223612   0.213   2.178   3.146 -1.0808 -1.4459 -1.4002
  733TIP3   OH223613   3.168   0.741   4.125  0.3475 -0.1214  0.6239
  733TIP3    H123614   3.120   0.760   4.045  0.9569  0.6264  0.4245
  733TIP3    H223615   3.240   0.804   4.125  0.1832  0.0957  1.9038
  734TIP3   OH223616   2.525   3.511  14.895  0.0940 -0.0917  0.0519
  734TIP3    H123617   2.516   3.433  14.950  1.1596 -0.6813 -0.5692
  734TIP3    H223618   2.617   3.510  14.867  0.0113  1.1510 -0.3214
  735TIP3   OH223619   2.067   0.759  11.165 -0.0504 -0.3491 -0.0726
  735TIP3    H123620   2.062   0.678  11.114  0.1236 -0.3777 -0.0429
  735TIP3    H223621   2.116   0.735  11.244 -1.6519 -0.7005  0.8576
  736TIP3   OH223622   1.467   1.759  11.919 -0.2454 -0.3060 -0.5958
  736TIP3    H123623   1.431   1.824  11.980  0.5567  0.0683 -0.5171
  736TIP3    H223624   1.505   1.692  11.975  4.1801  1.9397 -0.4335
  737TIP3   OH223625   0.728   1.499  12.143 -0.2688 -0.2749 -0.5923
  737TIP3    H123626   0.731   1.577  12.197 -0.6401 -2.8091  3.5108
  737TIP3    H223627   0.820   1.483  12.119 -0.2859  1.7571 -2.2332
  738TIP3   OH223628   2.803   6.223   3.432  0.1477 -0.4153 -0.2404
  738TIP3    H123629   2.859   6.247   3.506  0.4883 -0.4531 -0.4819
  738TIP3    H223630   2.753   6.148   3.464 -0.2134  0.0038  0.1838
  739TIP3   OH223631   6.543   6.468   0.740  0.3451 -0.3221  0.6291
  739TIP3    H123632   6.540   6.458   0.835 -0.7793 -2.7509  0.4186
  739TIP3    H223633   6.571   6.382   0.708  0.0534  0.2466 -1.2708
  740TIP3   OH223634   4.851   2.175  13.016  0.4548  0.0916 -0.1964
  740TIP3    H123635   4.860   2.081  13.002  0.5681  0.1962 -0.8413
  740TIP3    H223636   4.916   2.196  13.083  0.3814 -0.2964  0.0012
  741TIP3   OH223637   4.554   2.292  14.665  0.3036  0.2395 -0.5816
  741TIP3    H123638   4.545   2.386  14.656  0.8805  0.1811 -2.1272
  741TIP3    H223639   4.549   2.259  14.575 -1.9532 -1.4197  0.0462
  742TIP3   OH223640   1.053   2.560   0.619 -0.4388  0.4380  0.0513
  742TIP3    H123641   1.113   2.502   0.667  0.5036  1.7456  0.4908
  742TIP3    H223642   1.102   2.642   0.609 -1.4895  0.9369 -1.1641
  743TIP3   OH223643   4.424   0.591   0.641 -0.0806  0.8151 -0.2678
  743TIP3    H123644   4.394   0.500   0.647  1.5159  0.2841  0.2026
  743TIP3    H223645   4.344   0.643   0.644 -0.9525 -0.5133  0.9523
  744TIP3   OH223646   3.174   0.719  13.567  0.0195  0.0580  0.1477
  744TIP3    H123647   3.102   0.756  13.516  0.3823  0.4293 -0.1068
  744TIP3    H223648   3.140   0.636  13.602 -0.3947  0.0447 -0.2879
  745TIP3   OH223649   4.209   5.173   5.145 -0.7569 -0.0545 -0.3766
  745TIP3    H123650   4.173   5.259   5.166  0.8934  0.3341  1.1280
  745TIP3    H223651   4.302   5.190   5.126 -0.0703 -1.6247  1.2969
  746TIP3   OH223652   6.063   1.132  12.909  0.1492 -0.1514 -0.8792
  746TIP3    H123653   6.068   1.040  12.937 -0.7156  0.5369  1.8904
  746TIP3    H223654   6.099   1.181  12.983  0.1560  1.7842 -2.1018
  747TIP3   OH223655   0.179   3.650   2.028  0.3898  0.6825 -0.0990
  747TIP3    H123656   0.117   3.723   2.032 -1.2110 -0.7043  2.1106
  747TIP3    H223657   0.133   3.582   1.979  0.9578  0.3334 -0.1580
  748TIP3   OH223658   1.266   3.171   4.717 -0.2057 -0.6230 -0.7228
  748TIP3    H123659   1.350   3.185   4.673  0.2602  0.5642  0.5020
  748TIP3    H223660   1.201   3.192   4.649  0.4971  1.3651 -0.8490
  749TIP3   OH223661   3.664   5.139   2.908  0.4361  0.3497 -0.4027
  749TIP3    H123662   3.630   5.056   2.939  0.1820  0.7798  0.5048
  749TIP3    H223663   3.702   5.119   2.823  0.8098 -0.7917  0.0092
  750TIP3   OH223664   5.577   5.541  16.945 -0.5692 -0.2211 -0.2885
  750TIP3    H123665   5.584   5.610  17.011 -0.5975  0.3156 -0.8361
  750TIP3    H223666   5.598   5.460  16.992 -2.8266 -0.1659  0.9266
  751TIP3   OH223667   3.510   5.269   3.605 -0.1320 -0.2111 -0.2373
  751TIP3    H123668   3.483   5.249   3.695  1.7049 -1.3851  0.1139
  751TIP3    H223669   3.529   5.362   3.606 -1.7110  0.1435  0.1155
  752TIP3   OH223670   1.635   4.532   6.632  0.6623  0.5162  0.4099
  752TIP3    H123671   1.664   4.564   6.717  0.6998  1.6853 -0.0325
  752TIP3    H223672   1.665   4.598   6.569  1.4102 -0.7540 -0.6267
  753TIP3   OH223673   5.691   1.694   0.954 -0.2013 -0.3018  0.3211
  753TIP3    H123674   5.626   1.648   0.901 -0.1985 -0.2597  0.2808
  753TIP3    H223675   5.642   1.766   0.995  0.1630  0.7290 -0.9950
  754TIP3   OH223676   2.978   1.392  16.331  0.0838  0.3506  0.2447
  754TIP3    H123677   2.903   1.368  16.386  0.6065 -0.3948  0.6390
  754TIP3    H223678   3.052   1.344  16.368  0.5377  0.1903 -0.8362
  755TIP3   OH223679   3.167   1.699   3.845  0.3418 -0.1479 -0.4990
  755TIP3    H123680   3.110   1.638   3.798 -0.9273  0.8911 -0.3596
  755TIP3    H223681   3.137   1.696   3.935  1.2064 -0.3543 -0.2088
  756TIP3   OH223682   4.766   4.895  14.546  0.8583  0.2334 -0.0066
  756TIP3    H123683   4.787   4.813  14.590 -1.0275  0.0238  0.5936
  756TIP3    H223684   4.734   4.953  14.615 -0.2374  0.5857 -0.7752
  757TIP3   OH223685   2.418   0.925   4.543  0.2643  0.1283 -0.3593
  757TIP3    H123686   2.327   0.932   4.515  0.0008  1.1836  0.6675
  757TIP3    H223687   2.467   0.910   4.462 -0.8449 -0.8937 -0.8769
  758TIP3   OH223688   4.735   3.080  15.845  0.0464  0.0394  0.1113
  758TIP3    H123689   4.798   3.095  15.915 -0.1769  0.3355  0.2543
  758TIP3    H223690   4.787   3.077  15.765  0.3874 -1.0277  0.3585
  759TIP3   OH223691   1.681   0.218  15.022 -0.1049 -0.9180 -0.4334
  759TIP3    H123692   1.720   0.289  15.073 -2.6020  0.0775  0.2353
  759TIP3    H223693   1.731   0.218  14.940  0.6225  0.9592 -0.0575
  760TIP3   OH223694   0.434   6.397   3.639  0.4053 -0.5533 -0.8070
  760TIP3    H123695   0.417   6.323   3.698 -0.6834  1.3406  1.4287
  760TIP3    H223696   0.367   6.461   3.662  0.9286  0.9165 -3.1066
  761TIP3   OH223697   2.372   3.525  11.052 -0.3140  0.0219 -0.0004
  761TIP3    H123698   2.386   3.573  11.134  0.2706 -0.5164  0.2237
  761TIP3    H223699   2.441   3.556  10.994 -1.2025  0.9872 -0.5706
  762TIP3   OH223700   4.645   3.776  15.750  0.1803 -0.1961 -0.3498
  762TIP3    H123701   4.722   3.813  15.793 -0.1074  0.2080 -0.1719
  762TIP3    H223702   4.594   3.737  15.821 -0.2597  0.4055 -0.3257
  763TIP3   OH223703   4.966   2.258   2.437  0.4310  0.5063 -0.7008
  763TIP3    H123704   4.891   2.247   2.496  1.3369  2.3733  0.8691
  763TIP3    H223705   4.973   2.352   2.424  3.3955  0.5108  0.3824
  764TIP3   OH223706   0.330   1.183   3.280  0.3263 -0.4225 -0.0083
  764TIP3    H123707   0.248   1.210   3.238  0.0418 -0.5855  0.4369
  764TIP3    H223708   0.337   1.239   3.357  0.7023 -0.3209 -0.1161
  765TIP3   OH223709   6.659   0.231  12.927 -0.1202  0.9439 -0.3433
  765TIP3    H123710   6.654   0.285  12.848  3.3266  1.3092 -0.4589
  765TIP3    H223711   6.700   0.150  12.897  0.8312  0.9218  0.9809
  766TIP3   OH223712   1.964   4.274   1.185 -0.0679 -0.3350 -0.0276
  766TIP3    H123713   2.020   4.340   1.145 -0.7434  0.6790  0.6690
  766TIP3    H223714   2.015   4.240   1.258 -0.0623  0.0293  0.1357
  767TIP3   OH223715   0.225   2.670   1.242  1.0505  0.1598 -0.6761
  767TIP3    H123716   0.270   2.651   1.160 -0.0224 -1.9576 -0.8249
  767TIP3    H223717   0.279   2.630   1.309  0.3540 -0.8246 -0.6824
  768TIP3   OH223718   6.598   1.878  14.750  0.4265  0.4632  0.5431
  768TIP3    H123719   6.651   1.810  14.708  0.0918  0.0133  0.8404
  768TIP3    H223720   6.510   1.840  14.755 -0.0386  1.3555 -0.3352
  769TIP3   OH223721   1.961   3.804  14.548  0.1400 -0.3456  0.3055
  769TIP3    H123722   2.021   3.735  14.576 -1.2833 -0.7509  2.6133
  769TIP3    H223723   1.985   3.880  14.601 -0.4906 -0.0939  0.2373
  770TIP3   OH223724   0.801   3.375  11.250 -0.3967 -0.7663  0.5306
  770TIP3    H123725   0.856   3.439  11.294  0.3837 -0.1169 -1.2722
  770TIP3    H223726   0.712   3.410  11.259 -0.0712  0.1654  0.2597
  771TIP3   OH223727   4.855   1.893   1.379 -0.0471  0.2904  0.1840
  771TIP3    H123728   4.815   1.980   1.376 -0.8177 -0.0921 -1.9015
  771TIP3    H223729   4.840   1.863   1.469 -0.4169  1.9792  0.7337
  772TIP3   OH223730   2.080   0.450   3.791 -0.5257 -0.2236  0.2213
  772TIP3    H123731   2.069   0.545   3.791  0.0164 -0.0934  2.6144
  772TIP3    H223732   2.018   0.418   3.725 -0.4831  1.7837 -0.8476
  773TIP3   OH223733   0.943   5.575  14.414  0.0406  0.1959 -0.5267
  773TIP3    H123734   0.973   5.496  14.369  0.6858 -2.2079  3.5568
  773TIP3    H223735   0.849   5.562  14.425  0.0018  0.4308 -0.5763
  774TIP3   OH223736   4.475   3.924   4.616  0.6070  0.4381  0.4972
  774TIP3    H123737   4.563   3.916   4.579  1.1495  2.1951  1.2655
  774TIP3    H223738   4.437   3.999   4.571 -1.5896 -1.8432 -1.7453
  775TIP3   OH223739   6.182   4.361  16.136  0.5173 -0.0456  0.3366
  775TIP3    H123740   6.170   4.324  16.224 -0.2005  0.7392  0.5766
  775TIP3    H223741   6.148   4.294  16.077 -2.8803  1.0441  0.8690
  776TIP3   OH223742   4.233   3.720   4.859  0.3044  0.4222  0.0525
  776TIP3    H123743   4.326   3.720   4.836  0.4402 -1.6916  0.4364
  776TIP3    H223744   4.193   3.657   4.799 -0.6193  0.1858  0.8932
  777TIP3   OH223745   3.453   5.566  14.698 -0.1213  0.6299  0.2464
  777TIP3    H123746   3.405   5.525  14.770 -0.3023 -0.1806 -0.3244
  777TIP3    H223747   3.385   5.597  14.638  0.0417  0.7774  0.1362
  778TIP3   OH223748   3.440   5.749   3.770 -0.6970  0.1591  0.1132
  778TIP3    H123749   3.367   5.798   3.733  0.2882  0.7846 -1.0676
  778TIP3    H223750   3.398   5.680   3.822 -2.1087  1.1700  0.3793
  779TIP3   OH223751   6.460   1.921   5.893 -0.1326 -0.2195  0.0105
  779TIP3    H123752   6.422   1.997   5.849  1.4601  0.2195 -0.6964
  779TIP3    H223753   6.398   1.850   5.877  0.8124 -0.3846 -4.0281
  780TIP3   OH223754   3.148   3.659  14.546 -0.0374 -0.2410  0.3386
  780TIP3    H123755   3.103   3.712  14.612  0.6868 -0.0489  0.6870
  780TIP3    H223756   3.142   3.711  14.465 -1.3443 -0.6951  0.1158
  781TIP3   OH223757   1.578   1.985  16.063  0.5989 -0.0767 -0.1072
  781TIP3    H123758   1.647   1.967  16.126 -0.3447  3.0000  2.0687
  781TIP3    H223759   1.499   1.994  16.117 -1.1663 -1.5286 -2.2732
  782TIP3   OH223760   5.482   5.065   5.541  0.0753  0.3606 -0.0844
  782TIP3    H123761   5.477   5.101   5.629  0.8521  0.1059  0.0642
  782TIP3    H223762   5.390   5.050   5.516 -0.0994 -1.7368  1.5762
  783TIP3   OH223763   3.678   4.035   2.926  0.0552 -0.2485 -0.5195
  783TIP3    H123764   3.773   4.038   2.912  0.3741 -3.4710  0.1207
  783TIP3    H223765   3.662   4.100   2.994  1.9765 -0.3099  0.0502
  784TIP3   OH223766   2.307   1.122  14.213 -0.1434  0.3171  0.0806
  784TIP3    H123767   2.214   1.145  14.218 -0.5691 -0.7896 -1.8168
  784TIP3    H223768   2.343   1.181  14.147  0.2892  0.1138  0.1329
  785TIP3   OH223769   6.144   1.389  14.600  0.5319  0.1078 -0.0768
  785TIP3    H123770   6.178   1.363  14.685  0.9932  0.0835 -0.2681
  785TIP3    H223771   6.146   1.485  14.601  1.4716  0.1025 -0.4284
  786TIP3   OH223772   4.819   3.950  11.807  0.8252 -0.0882 -0.9285
  786TIP3    H123773   4.813   3.874  11.750 -0.0875  0.9381 -2.2519
  786TIP3    H223774   4.859   3.916  11.888  3.3937 -1.3336 -2.5710
  787TIP3   OH223775   5.419   2.938  12.140 -0.4943 -0.0067 -0.4963
  787TIP3    H123776   5.443   2.971  12.053  0.0523 -1.2964 -0.8475
  787TIP3    H223777   5.498   2.947  12.192 -0.8382  0.8242 -0.0801
  788TIP3   OH223778   0.042   6.044   2.389  0.0197 -0.0159  0.1202
  788TIP3    H123779   0.114   6.020   2.448 -1.2422  0.9019  2.1614
  788TIP3    H223780   0.038   5.973   2.325  2.5669 -0.1927  0.0643
  789TIP3   OH223781   0.155   4.041  10.947  0.3326 -0.4157 -0.1673
  789TIP3    H123782   0.184   3.958  10.909  0.6512  0.0629 -1.0054
  789TIP3    H223783   0.122   4.091  10.872  2.0254  0.9933 -0.0236
  790TIP3   OH223784   4.986   2.060   2.746 -0.3411 -0.2333  0.6506
  790TIP3    H123785   5.065   2.115   2.743 -0.6872  0.4976  3.1300
  790TIP3    H223786   4.918   2.112   2.704  0.3078 -0.6166 -0.9446
  791TIP3   OH223787   1.781   4.811   0.845  1.0041  0.7027 -0.8271
  791TIP3    H123788   1.781   4.724   0.885  0.5315  0.1193 -2.0390
  791TIP3    H223789   1.704   4.855   0.882  0.5070  0.1316 -1.1729
  792TIP3   OH223790   0.786   1.765   4.092 -0.3047  0.3036  0.0861
  792TIP3    H123791   0.759   1.739   4.180 -2.3857 -1.8773 -1.1173
  792TIP3    H223792   0.868   1.718   4.078  0.5382  1.3821  1.1347
  793TIP3   OH223793   1.507   3.759  13.938 -0.1123  1.1055  0.1464
  793TIP3    H123794   1.524   3.760  14.032 -0.7332  2.1788  0.2700
  793TIP3    H223795   1.531   3.671  13.910 -2.1581 -0.0592  1.7323
  794TIP3   OH223796   4.794   2.428   1.101 -0.0474  0.1919 -0.3338
  794TIP3    H123797   4.764   2.344   1.066  1.5688  0.0824 -1.5714
  794TIP3    H223798   4.734   2.493   1.063 -1.4458 -0.3683  0.8071
  795TIP3   OH223799   2.763   6.555   2.675  0.4554 -0.2349  0.0388
  795TIP3    H123800   2.803   6.551   2.588 -0.6682  0.2443 -0.5242
  795TIP3    H223801   2.680   6.600   2.661 -0.7246 -1.9701  0.9899
  796TIP3   OH223802   2.181   2.579   0.931 -0.2089 -0.1169  0.3091
  796TIP3    H123803   2.133   2.541   1.005 -2.6607  0.6227 -0.7904
  796TIP3    H223804   2.212   2.663   0.964 -0.0831 -0.3936  0.9067
  797TIP3   OH223805   1.675   1.053  12.997 -0.2671 -0.1604 -0.0408
  797TIP3    H123806   1.741   1.016  13.056 -0.2664 -1.1228 -0.6190
  797TIP3    H223807   1.721   1.124  12.951  0.3892 -0.8345 -0.4556
  798TIP3   OH223808   4.178   2.485   4.168 -0.3666  0.1523  0.5094
  798TIP3    H123809   4.263   2.521   4.194 -0.0857 -0.6885  0.7774
  798TIP3    H223810   4.166   2.516   4.078  0.0578  0.5618  0.5887
  799TIP3   OH223811   6.787   3.751   5.452 -0.1276 -0.2415 -0.1403
  799TIP3    H123812   6.804   3.691   5.525 -0.5030 -0.6967 -0.4249
  799TIP3    H223813   6.770   3.694   5.378  1.1555  0.2120 -0.8182
  800TIP3   OH223814   2.618   2.817  11.152 -0.9211  0.1012  0.0634
  800TIP3    H123815   2.656   2.799  11.066 -1.6648 -1.7421  0.0746
  800TIP3    H223816   2.684   2.786  11.214 -0.1818  1.8549  0.2136
  801TIP3   OH223817   4.685   0.360   4.495 -0.2173 -0.3006  0.2474
  801TIP3    H123818   4.723   0.398   4.416  0.4441 -0.6096  0.4124
  801TIP3    H223819   4.619   0.424   4.522  0.4527  0.4362  0.1779
  802TIP3   OH223820   1.099   5.688   0.524 -0.5070  0.5869  0.0512
  802TIP3    H123821   1.082   5.600   0.492 -1.9109  0.7048  0.3921
  802TIP3    H223822   1.012   5.724   0.541  0.0370  2.0499 -0.1183
  803TIP3   OH223823   2.733   5.430  16.535  0.2977  0.1910 -0.3525
  803TIP3    H123824   2.796   5.359  16.524 -0.1452 -0.6049  1.8340
  803TIP3    H223825   2.716   5.433  16.629 -0.5780  2.4563 -0.5216
  804TIP3   OH223826   5.187   3.999   5.966 -0.3915  0.4488 -0.2748
  804TIP3    H123827   5.253   4.058   5.930 -0.0241  1.0112  1.2585
  804TIP3    H223828   5.115   4.003   5.902  0.6405  0.5833 -1.4650
  805TIP3   OH223829   3.449   4.979  15.909 -0.0342 -0.0116  0.0315
  805TIP3    H123830   3.504   4.903  15.929  0.1725  0.5778  1.8841
  805TIP3    H223831   3.510   5.053  15.910 -0.7254  0.5849  1.5791
  806TIP3   OH223832   3.546   0.938  14.613  0.6114  0.1716 -0.2187
  806TIP3    H123833   3.609   0.977  14.552  0.2216  0.5160 -0.4044
  806TIP3    H223834   3.470   0.996  14.610  0.8992  0.6393  1.2252
  807TIP3   OH223835   0.574   4.832  10.924 -0.2907 -0.0616  0.3707
  807TIP3    H123836   0.613   4.857  10.840 -0.0965  0.0695  0.4987
  807TIP3    H223837   0.499   4.777  10.901 -1.4531  1.6031  0.0323
  808TIP3   OH223838   4.910   1.922  13.027 -0.1063  0.5394  0.3398
  808TIP3    H123839   4.853   1.864  12.977  0.3683  1.1376 -0.9368
  808TIP3    H223840   4.971   1.958  12.962  0.6606  1.1901  1.3875
  809TIP3   OH223841   6.731   0.523   1.290 -0.3690 -0.0096  0.2927
  809TIP3    H123842   6.774   0.463   1.351  0.0283 -0.8860 -0.8358
  809TIP3    H223843   6.647   0.482   1.272 -1.4103  1.3043  1.8656
  810TIP3   OH223844   0.884   2.799  16.110  0.9392 -0.0261 -0.6235
  810TIP3    H123845   0.895   2.814  16.016  1.8856  1.7179 -0.2736
  810TIP3    H223846   0.869   2.886  16.147 -1.5545 -0.8875  0.6089
  811TIP3   OH223847   1.182   4.513  13.179  0.1841  0.4752 -0.6724
  811TIP3    H123848   1.254   4.558  13.223  0.2962  0.1558 -0.5236
  811TIP3    H223849   1.224   4.444  13.127  0.0886  1.1994 -1.7214
  812TIP3   OH223850   1.043   0.737  13.478  0.7282  0.2580  0.1437
  812TIP3    H123851   1.088   0.678  13.418  0.5188 -0.4438  0.6779
  812TIP3    H223852   1.106   0.756  13.547  0.4793 -0.0916  0.4702
  813TIP3   OH223853   3.345   2.659  15.144 -0.1766  0.6147  0.3074
  813TIP3    H123854   3.326   2.593  15.212 -2.1263 -0.0410 -0.7882
  813TIP3    H223855   3.323   2.742  15.186  1.2110  0.4964  1.3322
  814TIP3   OH223856   1.685   1.470  14.564  0.0919 -0.0733 -0.1628
  814TIP3    H123857   1.678   1.542  14.501  0.7162 -0.1213 -0.2971
  814TIP3    H223858   1.777   1.470  14.590  0.4942 -1.8466 -1.3860
  815TIP3   OH223859   2.955   4.465   3.831 -0.2704 -0.2322 -0.3952
  815TIP3    H123860   2.982   4.477   3.922 -2.4745  0.4325  0.2587
  815TIP3    H223861   2.929   4.553   3.802 -0.2804 -0.5589 -1.4206
  816TIP3   OH223862   5.642   2.947   3.467 -0.4218  0.2078  0.1849
  816TIP3    H123863   5.667   2.866   3.423  1.0071  0.9733 -0.4829
  816TIP3    H223864   5.688   2.943   3.551  0.8993  0.9797 -0.4689
  817TIP3   OH223865   3.437   6.480   0.487 -0.0978  0.3568 -0.2499
  817TIP3    H123866   3.524   6.503   0.457  0.0114 -0.0274 -0.2389
  817TIP3    H223867   3.428   6.387   0.467  0.1148 -0.0038  1.1947
  818TIP3   OH223868   1.640   4.966   4.489  0.5102  0.1615 -0.0063
  818TIP3    H123869   1.548   4.984   4.510 -0.0583 -0.8304 -1.5175
  818TIP3    H223870   1.680   5.053   4.482 -0.2209  0.5984  0.9855
  819TIP3   OH223871   2.181   2.872   3.669 -0.6136 -0.0433 -0.0238
  819TIP3    H123872   2.163   2.834   3.754 -0.4618  1.3422  0.6533
  819TIP3    H223873   2.272   2.848   3.651 -0.6856 -0.4428  0.1411
  820TIP3   OH223874   4.193   0.327  10.809  0.0993 -0.0332 -0.1364
  820TIP3    H123875   4.262   0.272  10.773  0.8187  0.1337  0.9420
  820TIP3    H223876   4.130   0.336  10.738  0.2192 -1.7978 -0.5161
  821TIP3   OH223877   4.263   3.531  12.797 -0.2547 -0.2693  0.2246
  821TIP3    H123878   4.203   3.457  12.809  0.2719 -0.4482  2.1342
  821TIP3    H223879   4.206   3.608  12.795 -0.7553 -0.6462 -1.0824
  822TIP3   OH223880   0.120   0.519  11.213 -0.0810  0.1340  0.6965
  822TIP3    H123881   0.195   0.506  11.156 -0.4053 -0.1280  0.3207
  822TIP3    H223882   0.136   0.603  11.256 -0.0200  0.5211 -0.0771
  823TIP3   OH223883   3.958   3.684  15.872 -0.2357 -0.2337 -0.4974
  823TIP3    H123884   3.958   3.717  15.961  1.5906 -0.8020 -0.2449
  823TIP3    H223885   3.897   3.610  15.874 -0.7744  0.2098  0.0672
  824TIP3   OH223886   5.227   0.208   4.925  0.0668  0.0556 -0.2349
  824TIP3    H123887   5.272   0.270   4.983  1.1093 -0.9968  0.1274
  824TIP3    H223888   5.136   0.212   4.952  0.5761 -0.6368  1.7208
  825TIP3   OH223889   4.960   5.626  11.134  0.1879 -0.1688  0.0613
  825TIP3    H123890   5.019   5.617  11.060  0.7177 -1.1344  0.5839
  825TIP3    H223891   4.990   5.705  11.179  1.9682 -1.3457  1.0593
  826TIP3   OH223892   2.243   1.032   5.472 -0.0550  0.4619 -0.5577
  826TIP3    H123893   2.268   1.101   5.533  0.7623  1.1139 -1.6049
  826TIP3    H223894   2.326   1.001   5.436 -0.5316  0.0706 -1.3351
  827TIP3   OH223895   2.281   0.327   4.395 -0.1548 -0.9770  0.1387
  827TIP3    H123896   2.347   0.331   4.464 -0.4938 -1.2795  0.4813
  827TIP3    H223897   2.229   0.250   4.416 -0.7304 -0.6383 -0.0275
  828TIP3   OH223898   6.563   1.807   2.503 -0.2791 -0.1603  0.4047
  828TIP3    H123899   6.556   1.796   2.408 -1.1038  0.9795  0.3058
  828TIP3    H223900   6.511   1.735   2.539 -0.7100 -0.0859 -0.0418
  829TIP3   OH223901   6.207   6.143  13.902 -0.3551 -0.3174  0.3027
  829TIP3    H123902   6.291   6.102  13.925 -0.7015 -0.4968  1.2796
  829TIP3    H223903   6.212   6.155  13.807  0.6817 -0.5387  0.3135
  830TIP3   OH223904   2.375   0.785   5.179  0.2258  0.2576 -0.5594
  830TIP3    H123905   2.413   0.833   5.252  0.6898 -0.8287 -0.0565
  830TIP3    H223906   2.299   0.836   5.152 -0.0849  0.5561  0.8336
  831TIP3   OH223907   4.412   3.944   6.585 -0.1804  0.0468 -0.0906
  831TIP3    H123908   4.482   3.888   6.618 -1.2860 -0.4913  1.4345
  831TIP3    H223909   4.455   4.026   6.564  0.9136 -0.2768  0.7935
  832TIP3   OH223910   4.819   1.177  10.289  0.0272  0.3388  0.3767
  832TIP3    H123911   4.906   1.213  10.305 -0.7686  2.1305  0.9538
  832TIP3    H223912   4.823   1.088  10.323  2.1654 -0.2930 -1.3394
  833TIP3   OH223913   4.098   1.463   5.148 -0.2566  0.1382 -0.4046
  833TIP3    H123914   4.099   1.557   5.131 -3.2775  0.4630  0.5759
  833TIP3    H223915   4.121   1.455   5.241 -0.7370 -0.0164 -0.2972
  834TIP3   OH223916   5.063   2.025  11.198 -0.1804  0.4734 -0.0451
  834TIP3    H123917   5.084   1.973  11.121  0.2829 -0.1480  0.4960
  834TIP3    H223918   5.121   2.102  11.191  1.6394 -0.7491  0.9196
  835TIP3   OH223919   6.419   0.130   6.150  0.4952  0.6651 -0.6371
  835TIP3    H123920   6.505   0.118   6.190  0.6437  0.5968 -0.9737
  835TIP3    H223921   6.374   0.191   6.209 -0.1252 -1.1455  0.8669
  836TIP3   OH223922   4.455   5.029   3.046  0.1974 -0.7446 -0.0804
  836TIP3    H123923   4.402   5.094   3.001  0.4479 -0.8185 -0.4902
  836TIP3    H223924   4.494   5.076   3.120 -1.8057 -1.1127  1.2760
  837TIP3   OH223925   3.391   2.448  16.229 -0.2188 -0.1189 -0.8477
  837TIP3    H123926   3.459   2.389  16.196 -1.1009 -0.3112 -2.4113
  837TIP3    H223927   3.367   2.501  16.154  0.7693  2.5195  0.5891
  838TIP3   OH223928   4.070   1.303   2.102  0.0499  0.1258  0.3936
  838TIP3    H123929   4.024   1.329   2.023  1.1019  1.3040  0.1415
  838TIP3    H223930   4.042   1.367   2.168 -0.2936 -0.4343  0.7969
  839TIP3   OH223931   4.684   4.076   3.277 -0.2216 -0.4636  0.5323
  839TIP3    H123932   4.779   4.066   3.284 -0.4969 -2.9054  2.0021
  839TIP3    H223933   4.659   4.122   3.358 -0.4413 -1.3646  0.9837
  840TIP3   OH223934   5.332   1.680   2.222  0.5052 -0.2117 -0.0071
  840TIP3    H123935   5.304   1.589   2.213 -1.1239  0.1340  1.1563
  840TIP3    H223936   5.317   1.718   2.136 -1.2753 -0.4348  0.1681
  841TIP3   OH223937   0.720   1.432   4.069  0.4534 -0.3772 -0.2214
  841TIP3    H123938   0.688   1.513   4.108  1.2743 -0.8059  1.5015
  841TIP3    H223939   0.642   1.381   4.049 -0.0228 -0.1406  0.9735
  842TIP3   OH223940   2.637   0.445  12.641  0.3724  0.3790 -0.0288
  842TIP3    H123941   2.544   0.421  12.645  0.3345 -0.0988 -2.1720
  842TIP3    H223942   2.683   0.365  12.668  0.1676  0.2472 -0.0602
  843TIP3   OH223943   2.172   0.718  11.907  0.5549  0.3467 -0.2735
  843TIP3    H123944   2.135   0.707  11.819  1.0917  0.0170 -0.4656
  843TIP3    H223945   2.165   0.812  11.924 -0.9378  0.2271 -0.0424
  844TIP3   OH223946   5.615   4.871   3.301 -0.5086  0.2034 -0.0048
  844TIP3    H123947   5.635   4.841   3.389 -0.1518 -1.2160 -0.5360
  844TIP3    H223948   5.593   4.963   3.311  0.3857  0.2920  1.4424
  845TIP3   OH223949   5.899   3.957   1.604  0.0192  0.0434  0.5153
  845TIP3    H123950   5.847   3.986   1.529  0.7409 -1.6766 -0.7178
  845TIP3    H223951   5.904   4.034   1.661 -0.3109  1.4982 -1.3265
  846TIP3   OH223952   6.033   5.223   2.462 -0.5551 -0.8506  1.1424
  846TIP3    H123953   5.937   5.217   2.463 -0.7097  0.8385  0.1386
  846TIP3    H223954   6.051   5.316   2.478  0.8958 -1.0779  0.9274
  847TIP3   OH223955   1.356   4.528  12.360  0.2808  0.2880  0.2244
  847TIP3    H123956   1.382   4.618  12.377 -0.7328  0.9592 -1.5256
  847TIP3    H223957   1.266   4.535  12.329  0.5534 -1.2056 -1.0225
  848TIP3   OH223958   2.746   4.364   2.672 -0.2131 -0.1333 -0.1591
  848TIP3    H123959   2.709   4.276   2.675  1.4752 -0.8675  0.3228
  848TIP3    H223960   2.715   4.400   2.588 -0.0200 -1.6127 -0.9034
  849TIP3   OH223961   0.342   6.051   1.374 -0.1078 -0.2700  0.2960
  849TIP3    H123962   0.334   6.030   1.281 -0.0632  0.8337  0.0251
  849TIP3    H223963   0.261   6.020   1.413 -0.7025  0.4196 -0.3574
  850TIP3   OH223964   0.208   6.233  15.743  0.1878 -0.5581  0.8577
  850TIP3    H123965   0.297   6.269  15.740 -0.7173  1.8467 -2.1853
  850TIP3    H223966   0.209   6.160  15.680 -0.2959  0.4706 -0.3858
  851TIP3   OH223967   3.048   2.151  12.851  0.1267  0.5855  0.2871
  851TIP3    H123968   3.107   2.213  12.808  0.1774  1.0616  1.0266
  851TIP3    H223969   3.100   2.071  12.861  0.6388  0.9804  0.8727
  852TIP3   OH223970   2.352   2.263  16.679 -0.9031 -1.1620 -0.0629
  852TIP3    H123971   2.309   2.200  16.622 -1.8026 -2.6231  2.1015
  852TIP3    H223972   2.283   2.323  16.706 -0.4238 -0.3032 -0.6918
  853TIP3   OH223973   5.530   3.173   0.847 -0.0960  0.2645 -0.3523
  853TIP3    H123974   5.467   3.109   0.881  1.4101 -1.8023 -1.2114
  853TIP3    H223975   5.550   3.141   0.759  1.7634  1.1232 -0.2831
  854TIP3   OH223976   4.850   4.514  15.238  0.5458  0.0730 -0.3647
  854TIP3    H123977   4.925   4.455  15.245  0.9056  0.5584 -0.0731
  854TIP3    H223978   4.854   4.567  15.317 -1.1142 -1.0536  0.5239
  855TIP3   OH223979   0.028   0.900   3.533 -0.1641  0.4227 -0.1138
  855TIP3    H123980   0.113   0.859   3.512  0.3810  1.0924  0.7175
  855TIP3    H223981  -0.037   0.834   3.508  0.6531 -0.5995  0.3580
  856TIP3   OH223982   6.526   4.676  12.713 -0.7167 -0.5669  0.1682
  856TIP3    H123983   6.580   4.753  12.695 -1.8094 -0.1868 -1.7928
  856TIP3    H223984   6.588   4.604  12.718  0.1081  0.0565 -0.6686
  857TIP3   OH223985   2.481   5.550  14.611 -0.9092 -0.2959 -0.1485
  857TIP3    H123986   2.460   5.535  14.519 -2.5271  0.9642 -0.0271
  857TIP3    H223987   2.448   5.637  14.629 -2.9048 -1.4356  2.2578
  858TIP3   OH223988   2.086   4.016  14.716  0.3206 -0.0295  0.1266
  858TIP3    H123989   2.009   4.033  14.770 -0.8069 -1.4613 -0.9540
  858TIP3    H223990   2.160   4.035  14.773 -0.8289  0.2062  1.5865
  859TIP3   OH223991   4.215   3.323  14.108 -0.0813  0.2864  0.2668
  859TIP3    H123992   4.205   3.389  14.039  1.6152  1.1629  0.8108
  859TIP3    H223993   4.184   3.367  14.187 -1.4285 -0.5032  0.1995
  860TIP3   OH223994   6.477   5.693   1.890  0.0971  0.3058 -0.1706
  860TIP3    H123995   6.549   5.756   1.899  0.2043  0.3888 -1.3881
  860TIP3    H223996   6.407   5.729   1.945  0.9989  0.1750  1.1012
  861TIP3   OH223997   3.625   4.039   0.056 -0.4951  0.1261  0.0144
  861TIP3    H123998   3.596   4.060   0.145 -1.3154 -0.1440 -0.1841
  861TIP3    H223999   3.658   4.122   0.022 -0.8857  0.4011  0.2981
  862TIP3   OH224000   5.254   0.184  12.762 -0.0741  0.8029  0.5804
  862TIP3    H124001   5.287   0.116  12.702 -1.8306  0.5625 -0.1746
  862TIP3    H224002   5.236   0.137  12.843 -2.7224 -0.0532 -0.3992
  863TIP3   OH224003   0.296   2.546  11.491 -0.2155  0.1907 -0.0739
  863TIP3    H124004   0.280   2.452  11.488  0.7069 -0.1247  2.4233
  863TIP3    H224005   0.388   2.554  11.513 -0.7250  1.6083  1.8110
  864TIP3   OH224006   3.870   2.943   0.338 -0.2412  0.0475  0.2425
  864TIP3    H124007   3.832   2.951   0.250 -0.6695 -0.6192  0.3621
  864TIP3    H224008   3.813   2.880   0.383  0.0681  0.2618  0.9487
  865TIP3   OH224009   1.503   0.235  14.690 -0.2622  0.0717  0.7348
  865TIP3    H124010   1.534   0.146  14.676  1.1241  0.7465 -0.8221
  865TIP3    H224011   1.452   0.256  14.611  1.4249  1.4330 -0.0601
  866TIP3   OH224012   1.786   5.846   5.872 -0.2114 -0.7017  0.7080
  866TIP3    H124013   1.694   5.844   5.899 -0.2687 -0.0879  0.5888
  866TIP3    H224014   1.825   5.768   5.911 -0.6591 -0.6679  1.2265
  867TIP3   OH224015   1.039   5.815   3.402  0.0782 -0.1777 -0.0930
  867TIP3    H124016   1.110   5.879   3.400  0.3836 -0.4202  1.6025
  867TIP3    H224017   0.959   5.868   3.393  0.3196  0.4960  1.4327
  868TIP3   OH224018   3.302   1.766  12.384 -0.3379  0.0503 -0.0059
  868TIP3    H124019   3.234   1.739  12.446 -1.5557 -1.7707 -1.9782
  868TIP3    H224020   3.376   1.708  12.403 -1.2777 -1.6287 -1.1742
  869TIP3   OH224021   5.376   1.792   1.098 -0.6047 -0.3365  0.5636
  869TIP3    H124022   5.442   1.861   1.087 -2.6098  1.5024 -0.7270
  869TIP3    H224023   5.396   1.753   1.184  1.9094  0.3214  0.3730
  870TIP3   OH224024   3.491   3.053  13.615  0.0028 -0.3503  0.2503
  870TIP3    H124025   3.497   2.991  13.543  0.6593  0.5192 -0.4564
  870TIP3    H224026   3.558   3.023  13.678  0.7143 -0.0349 -0.3464
  871TIP3   OH224027   4.114   6.224  16.075  0.3021 -0.4188 -0.3306
  871TIP3    H124028   4.050   6.207  16.145  0.8142 -0.5311  0.1211
  871TIP3    H224029   4.178   6.153  16.084  1.2938  0.5106  0.1834
  872TIP3   OH224030   5.575   5.850   5.374  0.5607 -0.3233 -0.5542
  872TIP3    H124031   5.598   5.896   5.454  1.1061  0.3661 -1.1003
  872TIP3    H224032   5.610   5.762   5.386 -2.3595 -1.4007  1.4342
  873TIP3   OH224033   1.702   0.113   5.611  0.1150 -0.8150  0.4363
  873TIP3    H124034   1.743   0.196   5.635 -0.7488 -0.1420 -0.3311
  873TIP3    H224035   1.614   0.137   5.582 -0.1974 -2.0190  0.3263
  874TIP3   OH224036   4.685   6.638  15.358  0.5727  0.0771 -0.1897
  874TIP3    H124037   4.661   6.666  15.447 -0.8726 -3.3636  0.6488
  874TIP3    H224038   4.761   6.582  15.370  0.1091 -0.7686 -1.0384
  875TIP3   OH224039   4.854   2.803   1.941 -0.1456 -0.5867  0.8250
  875TIP3    H124040   4.943   2.788   1.975  1.0038  1.5477 -0.9996
  875TIP3    H224041   4.867   2.826   1.850 -2.7130 -1.1131  0.2497
  876TIP3   OH224042   0.069   0.758  10.940  0.1510  0.3271  0.3144
  876TIP3    H124043   0.066   0.696  10.867 -2.3421  2.0751 -1.2081
  876TIP3    H224044   0.013   0.719  11.007 -0.4701  0.3774 -0.1672
  877TIP3   OH224045   5.733   5.962  16.949 -0.5544 -0.1805  0.3072
  877TIP3    H124046   5.739   5.940  17.042  2.5706  0.9011  0.4614
  877TIP3    H224047   5.801   5.909  16.907 -1.2201  0.1296 -1.2427
  878TIP3   OH224048   5.086   3.605  13.735 -0.1500 -0.9076 -0.2784
  878TIP3    H124049   5.108   3.520  13.698  1.4383 -1.1671  1.1141
  878TIP3    H224050   5.102   3.595  13.829 -1.5747  0.4413  0.1518
  879TIP3   OH224051   4.047   2.807  15.055 -0.3168 -0.6845 -0.0591
  879TIP3    H124052   4.122   2.798  15.113  0.3902 -0.9805 -1.0006
  879TIP3    H224053   4.050   2.729  14.999 -0.9644 -0.3894 -0.5193
  880TIP3   OH224054   5.750   4.871  12.307  0.3998  0.4993  0.4442
  880TIP3    H124055   5.735   4.899  12.216  1.0619 -0.3843  0.0464
  880TIP3    H224056   5.714   4.942  12.360  1.0989  1.6123 -0.5109
  881TIP3   OH224057   5.922   5.009  16.143 -0.4453 -0.0601  0.7444
  881TIP3    H124058   5.958   5.034  16.228 -0.0759  1.3669  0.2012
  881TIP3    H224059   5.881   4.924  16.158 -0.9364  0.4445  2.5001
  882TIP3   OH224060   4.712   2.188   4.180  0.0665 -0.2247 -1.1493
  882TIP3    H124061   4.750   2.144   4.104 -0.9923 -0.5756 -1.4944
  882TIP3    H224062   4.672   2.116   4.231 -1.2996  0.2665 -1.4913
  883TIP3   OH224063   3.247   5.542  11.008 -0.0891  0.3295  0.4111
  883TIP3    H124064   3.268   5.572  11.097  1.6880 -0.5589  0.3325
  883TIP3    H224065   3.211   5.454  11.021  2.6949 -0.9660  0.1846
  884TIP3   OH224066   2.495   3.788  10.537  0.0103 -0.0549 -0.3681
  884TIP3    H124067   2.520   3.877  10.515 -0.4808 -0.0511 -0.9651
  884TIP3    H224068   2.500   3.783  10.632  0.6354  0.4230 -0.3721
  885TIP3   OH224069   1.837   4.667  17.032  0.1177 -0.0349 -0.2841
  885TIP3    H124070   1.766   4.673  17.095  0.9328 -2.1783  0.9212
  885TIP3    H224071   1.868   4.757  17.022  0.8028  0.2662  3.3906
  886TIP3   OH224072   3.430   2.859   1.349 -0.7506  0.4502  0.0414
  886TIP3    H124073   3.512   2.851   1.398 -1.1260  1.9431  0.9657
  886TIP3    H224074   3.450   2.821   1.263  1.2594  1.8001 -0.1446
  887TIP3   OH224075   2.847   5.675  12.160 -0.0084  0.0965  0.5760
  887TIP3    H124076   2.810   5.730  12.230  0.6573 -0.0599  1.0564
  887TIP3    H224077   2.938   5.662  12.185 -0.2381 -1.5374  0.6748
  888TIP3   OH224078   3.146   4.827  16.253 -0.6680  1.2248 -0.3622
  888TIP3    H124079   3.218   4.796  16.309  0.9058 -0.2442 -3.0092
  888TIP3    H224080   3.070   4.778  16.282  0.1617  0.2910  0.3073
  889TIP3   OH224081   5.125   2.174  13.690  0.6577 -0.6495 -0.7980
  889TIP3    H124082   5.198   2.237  13.689 -0.3974  0.6563  0.2021
  889TIP3    H224083   5.052   2.221  13.650  0.2778 -1.8526 -1.5680
  890TIP3   OH224084   4.501   4.073   1.955 -0.1486 -0.2522  0.0046
  890TIP3    H124085   4.408   4.097   1.961 -0.2787 -0.9104  0.9085
  890TIP3    H224086   4.544   4.126   2.022  0.5307  1.7313 -1.9099
  891TIP3   OH224087   0.515   6.239  16.180 -0.5488  0.4171 -0.1916
  891TIP3    H124088   0.490   6.151  16.209 -0.9921  0.3312 -0.8222
  891TIP3    H224089   0.433   6.280  16.154 -0.5098  1.4366  1.1758
  892TIP3   OH224090   5.505   1.129   3.341  0.1306 -0.2064 -0.0674
  892TIP3    H124091   5.525   1.106   3.250 -2.6487 -0.5339 -0.6690
  892TIP3    H224092   5.479   1.045   3.381  0.1507  0.1409  0.6873
  893TIP3   OH224093   0.482   0.014   3.758  0.0808  0.1473  0.3120
  893TIP3    H124094   0.577   0.026   3.756 -0.0519  1.5466  1.0231
  893TIP3    H224095   0.459  -0.010   3.669  1.2683 -1.8054  0.4806
  894TIP3   OH224096   5.097   5.566   6.137 -0.6148 -0.3168  0.4509
  894TIP3    H124097   5.045   5.523   6.205 -0.3852  0.8577  1.4075
  894TIP3    H224098   5.066   5.656   6.137  0.8060  0.1935  0.4415
  895TIP3   OH224099   3.009   0.823  13.364  0.0805  0.4061  0.3330
  895TIP3    H124100   3.055   0.861  13.289  2.6313 -0.8790  1.1324
  895TIP3    H224101   2.957   0.895  13.399  0.2186  1.5178 -1.5719
  896TIP3   OH224102   6.563   1.540   4.801 -0.8540 -0.1459 -0.7746
  896TIP3    H124103   6.474   1.507   4.790 -0.6652 -1.0753  0.2718
  896TIP3    H224104   6.588   1.514   4.890 -0.4549  2.3745 -0.0776
  897TIP3   OH224105   1.442   4.910  16.489  0.2422  0.0281  0.2213
  897TIP3    H124106   1.463   4.833  16.542 -1.1700 -0.9125 -0.5109
  897TIP3    H224107   1.404   4.972  16.551  0.1457 -0.3990  0.5946
  898TIP3   OH224108   0.879   3.261   4.835 -0.0217  0.0847 -0.1509
  898TIP3    H124109   0.821   3.250   4.910 -0.2899 -0.5125 -0.4407
  898TIP3    H224110   0.833   3.323   4.778 -0.9588 -1.2819 -0.9378
  899TIP3   OH224111   2.011   1.496   0.174  0.0721  0.1730 -0.6650
  899TIP3    H124112   1.957   1.573   0.155 -0.0838  0.6085  1.3477
  899TIP3    H224113   2.084   1.531   0.225 -0.7729 -1.1688  1.5840
  900TIP3   OH224114   4.085   1.186   5.154  0.0326  0.5216 -0.3059
  900TIP3    H124115   4.117   1.165   5.067 -0.7585  1.5575 -0.8704
  900TIP3    H224116   4.073   1.281   5.153 -2.6979  0.2418 -0.0178
  901TIP3   OH224117   5.908   0.163   1.398  0.0582 -0.2139 -0.0455
  901TIP3    H124118   5.962   0.209   1.333  0.4583 -0.8667 -0.1887
  901TIP3    H224119   5.878   0.231   1.458  0.0262  0.3396 -0.6809
  902TIP3   OH224120   0.719   3.728   1.795 -0.2454  0.0625 -0.3219
  902TIP3    H124121   0.690   3.765   1.878  1.2202  2.4641 -0.7600
  902TIP3    H224122   0.652   3.753   1.732  0.1714  1.0479 -0.3964
  903TIP3   OH224123   3.078   5.867  17.175 -0.0963 -0.0024 -0.3002
  903TIP3    H124124   3.131   5.913  17.240 -1.6596 -0.0288  1.0586
  903TIP3    H224125   3.062   5.932  17.106 -0.6910  0.9297  0.6816
  904TIP3   OH224126   3.897   4.382  15.663 -0.5807 -0.2417  0.2464
  904TIP3    H124127   3.837   4.308  15.659  0.5558 -1.2060  0.4169
  904TIP3    H224128   3.950   4.365  15.741 -0.8268  1.1841  0.7539
  905TIP3   OH224129   4.329   2.576   0.405  0.7060  0.3444  0.1196
  905TIP3    H124130   4.346   2.665   0.433  1.7359  0.2758 -0.2749
  905TIP3    H224131   4.352   2.522   0.481  1.6082  0.3053 -0.1721
  906TIP3   OH224132   3.224   1.511  16.198  0.2934  0.2389 -0.1969
  906TIP3    H124133   3.242   1.582  16.260 -1.3257  1.6352 -1.2381
  906TIP3    H224134   3.131   1.492  16.209  0.7917 -2.1231  0.4057
  907TIP3   OH224135   5.515   2.519   2.615 -0.2802  0.6307 -0.1779
  907TIP3    H124136   5.610   2.522   2.625 -0.5502  2.5113  2.8568
  907TIP3    H224137   5.496   2.586   2.549  0.4211  1.0961  0.0827
  908TIP3   OH224138   0.383   3.979   4.208  0.3554 -0.3196 -0.5975
  908TIP3    H124139   0.418   3.914   4.147 -1.7774 -0.9237 -1.2863
  908TIP3    H224140   0.382   4.061   4.157 -0.6069 -0.6359 -1.1148
  909TIP3   OH224141   0.695   2.526   3.597  0.1362 -0.6273  0.4376
  909TIP3    H124142   0.662   2.437   3.605  1.5761 -1.2627 -0.3902
  909TIP3    H224143   0.723   2.534   3.506 -0.3210  0.8164  0.3960
  910TIP3   OH224144   4.177   5.868   1.545 -0.2358 -0.9610 -0.9290
  910TIP3    H124145   4.248   5.862   1.609 -1.0418 -0.4886  0.0319
  910TIP3    H224146   4.122   5.792   1.563 -2.4402  1.0219  1.4352
  911TIP3   OH224147   6.248   1.878  16.421  0.1493  0.4820  0.5652
  911TIP3    H124148   6.177   1.822  16.390 -0.2418  0.8769  0.7243
  911TIP3    H224149   6.227   1.965  16.385  1.1615  0.3692 -0.3243
  912TIP3   OH224150   4.569   2.955  15.605  0.0003 -0.2397  0.4057
  912TIP3    H124151   4.483   2.994  15.620  0.0188  0.1704 -0.5127
  912TIP3    H224152   4.624   2.994  15.673 -0.6192 -0.8049  1.2520
  913TIP3   OH224153   6.661   3.722   5.997 -0.1841 -0.0277 -0.8057
  913TIP3    H124154   6.617   3.637   5.993 -0.3174 -0.0537  0.6338
  913TIP3    H224155   6.754   3.701   5.999 -0.2399 -0.2001  0.4428
  914TIP3   OH224156   2.121   0.914  13.812  0.2023 -0.6178 -0.3101
  914TIP3    H124157   2.149   0.845  13.872  0.8426  0.6148  0.8674
  914TIP3    H224158   2.187   0.982  13.821  0.7111 -0.6464 -2.9792
  915TIP3   OH224159   3.622   1.533  14.114 -0.2260 -0.3363  0.4059
  915TIP3    H124160   3.714   1.551  14.133 -0.8322  0.6844  2.6546
  915TIP3    H224161   3.614   1.438  14.125  0.5503 -0.4604  0.0319
  916TIP3   OH224162   0.956   4.363   0.809 -0.4616 -0.5495 -0.2953
  916TIP3    H124163   0.896   4.364   0.883 -0.9823  0.6379 -0.7014
  916TIP3    H224164   0.903   4.395   0.735  0.3426 -0.6667 -0.9366
  917TIP3   OH224165   2.014   2.329   2.926  0.4806  0.0616  0.4632
  917TIP3    H124166   2.097   2.322   2.972  0.6567  0.5820  0.2388
  917TIP3    H224167   1.954   2.367   2.991  0.3180 -0.6532  0.7375
  918TIP3   OH224168   3.801   5.731   3.091  0.1575 -0.0730  0.1924
  918TIP3    H124169   3.738   5.662   3.071  0.7542 -0.9695  1.3102
  918TIP3    H224170   3.854   5.739   3.012 -0.3023 -0.4654 -0.1608
  919TIP3   OH224171   4.737   4.268   4.641 -0.1227  0.4301  0.0508
  919TIP3    H124172   4.718   4.178   4.616 -1.1208  0.6383  0.0188
  919TIP3    H224173   4.694   4.279   4.726 -1.8015  1.4689 -0.8699
  920TIP3   OH224174   5.111   0.805  15.298 -0.2575  0.4206  0.3135
  920TIP3    H124175   5.179   0.811  15.365  1.7808  0.9861 -1.7288
  920TIP3    H224176   5.067   0.890  15.301  0.4749  0.8078  0.2646
  921TIP3   OH224177   3.305   5.467  17.197 -0.0863  0.2518  0.1934
  921TIP3    H124178   3.308   5.563  17.199 -1.4197  0.3372 -0.8494
  921TIP3    H224179   3.257   5.443  17.276  2.2530  0.2759  1.7180
  922TIP3   OH224180   0.008   5.334  12.511  0.4884  0.9437  0.2017
  922TIP3    H124181   0.077   5.295  12.564  0.9835  0.1487 -0.9777
  922TIP3    H224182   0.012   5.287  12.428 -1.0780  1.2936 -0.1128
  923TIP3   OH224183   4.314   0.812   5.518 -0.1222  0.3347 -0.1484
  923TIP3    H124184   4.342   0.721   5.521  0.0142  0.3782 -0.0930
  923TIP3    H224185   4.331   0.846   5.606  1.9363  1.0339 -0.7514
  924TIP3   OH224186   3.314   6.110  15.417 -0.2271 -0.2637  0.7357
  924TIP3    H124187   3.354   6.135  15.334 -1.0765  0.0911  0.4249
  924TIP3    H224188   3.250   6.179  15.435 -0.6463 -0.7772  1.2547
  925TIP3   OH224189   5.557   4.531   0.345  0.0844  0.4403  0.5918
  925TIP3    H124190   5.627   4.479   0.307 -0.3103  0.9473 -0.9483
  925TIP3    H224191   5.551   4.504   0.436  2.8001  0.9476  0.9841
  926TIP3   OH224192   6.434   3.185  13.936 -0.2577 -0.6423  0.4569
  926TIP3    H124193   6.482   3.268  13.939 -0.6500 -0.3705 -0.6283
  926TIP3    H224194   6.477   3.131  14.003  0.4796  0.1692  0.6608
  927TIP3   OH224195   4.519   0.941   5.400 -0.0172 -0.0090  0.1047
  927TIP3    H124196   4.445   0.893   5.437  1.4916 -2.0026  0.7303
  927TIP3    H224197   4.499   1.033   5.417 -1.4036 -0.6088  2.0675
  928TIP3   OH224198   6.328   4.577   0.008  0.0531 -0.5895  0.8796
  928TIP3    H124199   6.385   4.553   0.081 -1.4028  1.2077  2.7371
  928TIP3    H224200   6.240   4.558   0.039 -0.6488  0.8205 -0.1589
  929TIP3   OH224201   5.068   6.730  10.701  0.1968  0.1768  0.1527
  929TIP3    H124202   5.045   6.820  10.680 -1.3824  0.0804  1.2896
  929TIP3    H224203   5.049   6.721  10.794 -0.0627 -1.4489 -0.0231
  930TIP3   OH224204   4.768   3.137  12.765  0.1377 -1.0731  0.1029
  930TIP3    H124205   4.734   3.177  12.845  0.1370 -1.1395  0.1358
  930TIP3    H224206   4.783   3.045  12.789 -0.8305 -1.3326 -0.2685
  931TIP3   OH224207   6.140   3.822   1.646 -0.0103  0.1722 -0.3467
  931TIP3    H124208   6.131   3.790   1.556 -0.1937  0.3957 -0.4097
  931TIP3    H224209   6.052   3.852   1.669  0.5323  2.4665 -0.9813
  932TIP3   OH224210   5.278   6.754   3.967 -0.0131 -0.0702 -0.3644
  932TIP3    H124211   5.358   6.705   3.946  0.4547  1.3633 -2.1702
  932TIP3    H224212   5.310   6.832   4.013 -0.3788  0.4274 -0.9461
  933TIP3   OH224213   5.726   5.476   4.668 -0.3591 -0.2631  0.9538
  933TIP3    H124214   5.703   5.536   4.597 -0.1789 -0.4354  0.7466
  933TIP3    H224215   5.645   5.429   4.687 -0.2766 -0.6208  0.4655
  934TIP3   OH224216   4.855   0.559  12.091  0.2336  0.2244 -0.3776
  934TIP3    H124217   4.876   0.600  12.008  2.4077  1.0806  0.5245
  934TIP3    H224218   4.880   0.467  12.079  1.7113  0.5873 -0.3398
  935TIP3   OH224219   2.132   6.598   4.428 -0.2478  0.3816  0.4610
  935TIP3    H124220   2.163   6.619   4.340  0.7183  0.7071  0.8659
  935TIP3    H224221   2.190   6.647   4.487 -1.3285  0.7268  1.2604
  936TIP3   OH224222   2.225   0.974   3.249 -0.4639  0.5324  0.5903
  936TIP3    H124223   2.221   0.980   3.153  1.2385 -0.7113  0.4104
  936TIP3    H224224   2.284   1.045   3.275  0.6832 -0.3650  0.5131
  937TIP3   OH224225   6.292   4.974  11.241 -0.5131 -0.1896  0.2492
  937TIP3    H124226   6.243   5.016  11.311 -1.6599 -0.5888 -0.2858
  937TIP3    H224227   6.243   4.894  11.222  0.6376 -0.8622  0.0346
  938TIP3   OH224228   4.193   0.505  15.617 -0.4424  0.5177 -0.3919
  938TIP3    H124229   4.259   0.458  15.566 -0.0619  0.2599  0.3215
  938TIP3    H224230   4.110   0.465  15.592 -0.2197  0.1291 -0.5181
  939TIP3   OH224231   5.314   2.816   4.126 -0.3563 -0.5388  0.1115
  939TIP3    H124232   5.376   2.786   4.060 -2.3099 -2.2821 -1.0522
  939TIP3    H224233   5.308   2.743   4.188 -0.5788 -0.0254  0.7014
  940TIP3   OH224234   5.685   5.983  13.533 -0.7189  0.0701 -0.4545
  940TIP3    H124235   5.593   6.004  13.549 -1.6447 -1.8159 -2.6914
  940TIP3    H224236   5.684   5.893  13.500  2.0271 -0.2597  0.0842
  941TIP3   OH224237   0.729   3.383   5.841 -0.3568 -0.1269  0.5537
  941TIP3    H124238   0.669   3.324   5.887 -1.2796  2.0339  2.3284
  941TIP3    H224239   0.677   3.462   5.823  1.2055  0.7475 -0.3671
  942TIP3   OH224240   6.620   0.510   3.601  0.0094 -0.1032  0.2553
  942TIP3    H124241   6.655   0.519   3.689  1.7159 -0.7510 -0.3168
  942TIP3    H224242   6.697   0.500   3.545 -1.0735 -0.9471 -1.1620
  943TIP3   OH224243   0.135   0.767  11.361  1.0465  0.2333 -0.1345
  943TIP3    H124244   0.092   0.806  11.437  0.0926  0.2328 -0.6600
  943TIP3    H224245   0.176   0.841  11.315  2.3204  0.1338  0.7951
  944TIP3   OH224246   4.679   6.653   4.655  0.5060 -0.5300  0.1783
  944TIP3    H124247   4.770   6.680   4.658  0.7136 -1.1522 -0.2461
  944TIP3    H224248   4.680   6.563   4.688  0.3102 -1.1683 -1.4407
  945TIP3   OH224249   1.875   5.235  16.746  0.7921  0.4286 -0.5740
  945TIP3    H124250   1.866   5.253  16.652 -0.0769 -0.5912 -0.7032
  945TIP3    H224251   1.968   5.214  16.757  0.6032 -1.0185 -1.5102
  946TIP3   OH224252   0.475   0.258  11.347  0.0292 -0.0657 -0.3050
  946TIP3    H124253   0.541   0.239  11.281 -0.1851  1.6478 -1.0686
  946TIP3    H224254   0.473   0.179  11.402  2.8083 -0.1264 -0.1314
  947TIP3   OH224255   2.724   4.324  16.910  0.3710  0.3883  0.2842
  947TIP3    H124256   2.641   4.364  16.885  1.0745  0.5062 -2.0697
  947TIP3    H224257   2.699   4.236  16.940 -0.6391  0.5119 -0.1397
  948TIP3   OH224258   0.698   4.798  15.188 -0.5210  0.2199 -0.0535
  948TIP3    H124259   0.740   4.820  15.105 -0.8967  0.5379 -0.1661
  948TIP3    H224260   0.722   4.869  15.247 -0.2900  0.0163  0.0964
  949TIP3   OH224261   6.321   4.728  12.526  0.1834  0.2245  0.4750
  949TIP3    H124262   6.368   4.669  12.585  0.4218 -0.9460 -0.8308
  949TIP3    H224263   6.384   4.751  12.458 -0.6126 -0.0388 -0.3888
  950TIP3   OH224264   2.201   3.822   4.982  1.3044 -0.2406 -0.0685
  950TIP3    H124265   2.117   3.834   5.025  1.2083  0.3430 -0.4064
  950TIP3    H224266   2.184   3.840   4.890  1.9500  0.6189 -0.0356
  951TIP3   OH224267   3.970   5.119  12.708  0.2074 -0.2872  0.4015
  951TIP3    H124268   3.906   5.186  12.732  0.9277  1.2147 -1.5585
  951TIP3    H224269   4.025   5.109  12.785  0.4644  1.8953  0.5641
  952TIP3   OH224270   2.232   6.387   3.975  0.9184  0.4695  0.2326
  952TIP3    H124271   2.298   6.450   4.003  2.5044 -0.6292 -0.8607
  952TIP3    H224272   2.258   6.305   4.018 -0.5522  0.3068  0.8740
  953TIP3   OH224273   5.659   0.202  16.512  0.3663  0.3302 -0.2821
  953TIP3    H124274   5.578   0.252  16.498 -0.0497 -0.0816  0.5656
  953TIP3    H224275   5.633   0.111  16.499  1.1481  0.3137 -1.9252
  954TIP3   OH224276   4.581   6.619   3.010 -0.0426 -0.1776  0.4214
  954TIP3    H124277   4.553   6.623   3.102 -1.3447  0.5421  0.0134
  954TIP3    H224278   4.667   6.660   3.009 -0.1902  0.1729  1.2668
  955TIP3   OH224279   4.174   1.116   5.478  0.0671  1.0105 -0.1141
  955TIP3    H124280   4.229   1.194   5.485  0.7774  0.5146 -0.0210
  955TIP3    H224281   4.156   1.107   5.385  1.3424  0.3866 -0.3260
  956TIP3   OH224282   4.863   4.925  13.363 -0.3485 -0.9497 -0.5642
  956TIP3    H124283   4.835   4.833  13.356 -1.1502 -0.8959  1.3182
  956TIP3    H224284   4.876   4.939  13.456 -1.9693  1.3408 -0.5996
  957TIP3   OH224285   3.787   1.639  17.054  1.2248 -0.0326  0.5160
  957TIP3    H124286   3.770   1.651  16.961  1.5496 -0.7667  0.3562
  957TIP3    H224287   3.858   1.575  17.057  0.9046 -0.3580  1.2818
  958TIP3   OH224288   1.015   5.220  10.900 -0.1880 -0.1355  0.4095
  958TIP3    H124289   1.033   5.228  10.806 -1.0406 -1.0718  0.1536
  958TIP3    H224290   0.942   5.159  10.905  0.1086 -0.4036  1.7144
  959TIP3   OH224291   3.978   0.507  15.973 -0.1157 -0.3210  0.1508
  959TIP3    H124292   4.005   0.478  15.886  1.8164  0.1210  0.5682
  959TIP3    H224293   4.059   0.514  16.022 -0.9426  1.6159  1.3393
  960TIP3   OH224294   0.448   2.344   5.750 -0.3235 -0.1447  0.0629
  960TIP3    H124295   0.384   2.399   5.795 -0.5014 -0.2452 -0.0667
  960TIP3    H224296   0.517   2.405   5.723 -0.3803 -0.0314  0.1744
  961TIP3   OH224297   1.939   2.054  13.545 -0.7835 -0.4531 -0.0184
  961TIP3    H124298   1.936   2.149  13.535  1.4370 -0.3366 -0.1678
  961TIP3    H224299   1.985   2.041  13.628 -0.9143 -1.3863 -0.0886
  962TIP3   OH224300   3.770   0.069  13.596  0.5505  0.0216  0.1338
  962TIP3    H124301   3.755  -0.025  13.590  0.5582  0.1116 -2.3484
  962TIP3    H224302   3.830   0.089  13.524 -0.3285  2.0828 -0.1139
  963TIP3   OH224303   4.466   1.795  11.092  0.4276 -0.3171  0.5751
  963TIP3    H124304   4.444   1.713  11.049 -1.9683  0.3521  0.4018
  963TIP3    H224305   4.400   1.857  11.063  2.9417  2.1293 -0.4082
  964TIP3   OH224306   6.101   6.260  11.291 -0.2647  0.1325  0.1876
  964TIP3    H124307   6.102   6.344  11.245  1.3242 -0.2416 -0.5497
  964TIP3    H224308   6.097   6.282  11.384  1.9332  1.1261  0.0981
  965TIP3   OH224309   1.963   1.755  14.895 -0.3980 -0.5521 -0.1829
  965TIP3    H124310   2.033   1.761  14.960  0.8098  2.2729 -1.5673
  965TIP3    H224311   1.895   1.815  14.926 -0.1825  0.1636 -1.0353
  966TIP3   OH224312   6.185   6.129  13.624 -0.2920  0.1319  0.2248
  966TIP3    H124313   6.247   6.058  13.605  0.2117  0.3032  1.1412
  966TIP3    H224314   6.099   6.088  13.618 -0.0165 -0.5081  0.5368
  967TIP3   OH224315   6.034   0.046   3.006  0.0196 -0.3249  0.8231
  967TIP3    H124316   6.073   0.059   2.920 -0.6696  0.3020  0.5960
  967TIP3    H224317   6.073  -0.036   3.038 -0.1988 -0.8990 -0.3394
  968TIP3   OH224318   5.568   0.004  12.062 -0.2855  0.0378  0.4331
  968TIP3    H124319   5.552   0.046  12.147  1.4292 -1.1854  1.4287
  968TIP3    H224320   5.556   0.073  11.998 -0.3738  1.3143  1.7793
  969TIP3   OH224321   3.625   2.804   0.776 -0.0812 -0.1114 -0.1093
  969TIP3    H124322   3.602   2.876   0.835  1.1447 -0.2689  0.5800
  969TIP3    H224323   3.593   2.726   0.819  0.5296 -0.1925  0.2131
  970TIP3   OH224324   1.971   0.074  14.859 -0.1692  0.0085  0.0045
  970TIP3    H124325   2.001   0.084  14.949 -0.7163 -0.2240  0.2163
  970TIP3    H224326   1.990   0.158  14.817 -1.0374  0.5545  0.6721
  971TIP3   OH224327   5.000   4.051   3.997  0.1476  0.4030 -0.1614
  971TIP3    H124328   4.968   4.012   4.079  1.0125 -0.7247 -0.3259
  971TIP3    H224329   4.922   4.079   3.951 -0.4987 -0.7980  0.1642
  972TIP3   OH224330   1.149   2.395   1.147 -0.4958  0.2006 -0.3966
  972TIP3    H124331   1.135   2.405   1.242  0.6408  0.3032 -0.2152
  972TIP3    H224332   1.244   2.383   1.139 -0.5168  0.6903 -1.5642
  973TIP3   OH224333   3.552   1.397   4.236  0.0778  0.0641 -0.7663
  973TIP3    H124334   3.510   1.336   4.175 -3.1435  1.4885 -0.1504
  973TIP3    H224335   3.602   1.456   4.179 -0.5561 -0.3297 -1.7601
  974TIP3   OH224336   0.962   2.704   4.434  0.0544  0.2288  0.4863
  974TIP3    H124337   0.878   2.662   4.413 -1.1022  1.3497  2.5389
  974TIP3    H224338   0.961   2.787   4.388  1.6796 -1.1677 -2.3382
  975TIP3   OH224339   5.296   0.310  14.873 -0.1020  0.3191 -0.3923
  975TIP3    H124340   5.337   0.366  14.939  0.4675 -0.8393  0.2858
  975TIP3    H224341   5.362   0.303  14.804  1.1822 -1.9425  0.9200
  976TIP3   OH224342   1.450   4.611  13.282  0.0796 -0.3176  0.4225
  976TIP3    H124343   1.534   4.610  13.237 -0.6341 -2.4228 -0.9899
  976TIP3    H224344   1.465   4.565  13.364  0.8664  1.6265  1.4374
  977TIP3   OH224345   0.447   6.072   4.068 -0.5641 -0.6593  0.2427
  977TIP3    H124346   0.399   6.110   3.994 -0.7805 -0.1494  0.6399
  977TIP3    H224347   0.481   6.147   4.116  0.7465 -1.0202 -0.0893
  978TIP3   OH224348   1.227   4.880  15.019 -0.2101 -0.2485  0.5396
  978TIP3    H124349   1.156   4.902  15.080  0.6010 -0.3181  1.5252
  978TIP3    H224350   1.249   4.964  14.978 -0.3289 -0.0805  0.8114
  979TIP3   OH224351   6.535   4.562   0.816  0.4110  0.8219 -0.4619
  979TIP3    H124352   6.471   4.631   0.836  1.0268  1.6342 -1.2080
  979TIP3    H224353   6.550   4.571   0.722  1.9697  0.9561 -0.2138
  980TIP3   OH224354   0.988   4.415  15.862  0.2713  0.5593 -0.4023
  980TIP3    H124355   1.023   4.379  15.943  0.1591  1.3047 -0.0079
  980TIP3    H224356   0.894   4.398  15.867  0.3708 -0.1651 -0.7920
  981TIP3   OH224357   6.262   5.468   4.382  0.0507 -1.4352  0.7119
  981TIP3    H124358   6.340   5.517   4.405 -0.6954  0.0214  0.2887
  981TIP3    H224359   6.239   5.420   4.462 -1.5097  2.1423  2.6271
  982TIP3   OH224360   0.585   6.594   6.316 -0.6658 -0.5669  0.1595
  982TIP3    H124361   0.521   6.531   6.282 -1.3797  0.3453 -0.2139
  982TIP3    H224362   0.538   6.643   6.383 -0.4555  0.2864 -0.2955
  983TIP3   OH224363   0.316   3.219  12.523  0.1665  0.4303 -0.3267
  983TIP3    H124364   0.329   3.276  12.447  0.0789  0.2581 -0.4705
  983TIP3    H224365   0.347   3.271  12.597 -2.0326  1.5653 -0.1373
  984TIP3   OH224366   5.024   3.785  16.161 -0.2786  0.3094 -0.3022
  984TIP3    H124367   5.087   3.767  16.091 -1.1113 -1.0841 -0.7290
  984TIP3    H224368   5.072   3.842  16.221  1.8302 -1.6087  0.0066
  985TIP3   OH224369   4.226   5.165  16.043 -0.4195 -0.0609 -0.6286
  985TIP3    H124370   4.195   5.131  15.959  1.1157 -0.5188 -1.0235
  985TIP3    H224371   4.236   5.087  16.099 -1.0561  0.2023 -0.1286
  986TIP3   OH224372   4.384   2.895   3.390 -0.2117  0.4832 -0.4330
  986TIP3    H124373   4.315   2.911   3.325 -0.6113 -0.8064 -0.3502
  986TIP3    H224374   4.355   2.944   3.467 -1.5128 -0.7234 -0.1116
  987TIP3   OH224375   4.558   4.797   2.652 -0.0810  0.5513 -0.2128
  987TIP3    H124376   4.623   4.791   2.722 -1.3969  0.2875  1.0351
  987TIP3    H224377   4.579   4.878   2.606  0.2329  1.2542  1.1130
  988TIP3   OH224378   5.089   2.636  11.778  0.1462  0.8264 -0.6080
  988TIP3    H124379   5.123   2.584  11.851 -1.6012  1.3247  0.6357
  988TIP3    H224380   5.109   2.726  11.802 -1.9528  1.1403  0.1894
  989TIP3   OH224381   2.860   6.674  11.616  0.2909 -0.1419 -0.0581
  989TIP3    H124382   2.949   6.682  11.583 -0.0125 -1.3760 -1.2439
  989TIP3    H224383   2.870   6.672  11.711  1.6667 -1.5538 -0.1975
  990TIP3   OH224384   5.393   6.143  10.528 -0.2083 -0.3219  0.3007
  990TIP3    H124385   5.327   6.208  10.550  0.4775  0.1892  0.8802
  990TIP3    H224386   5.472   6.193  10.509  0.2307 -0.9651  0.3705
  991TIP3   OH224387   4.392   6.375  13.932  0.1229 -0.3778  0.4129
  991TIP3    H124388   4.299   6.399  13.940 -0.5641 -2.9292  0.7472
  991TIP3    H224389   4.418   6.409  13.846 -1.4727 -0.6462 -0.2066
  992TIP3   OH224390   3.642   4.161  14.095  0.0375 -0.1813 -0.3587
  992TIP3    H124391   3.593   4.095  14.046 -0.6526  1.7003 -2.3292
  992TIP3    H224392   3.625   4.243  14.050 -0.3243  1.6710  2.8287
  993TIP3   OH224393   2.839   0.797   3.095 -0.1523  0.5252  0.1244
  993TIP3    H124394   2.880   0.814   3.010  0.2583  1.0372  0.4233
  993TIP3    H224395   2.747   0.820   3.082  0.0102  1.0961 -0.0381
  994TIP3   OH224396   5.207   4.410  12.605 -0.0794  0.0396 -0.1201
  994TIP3    H124397   5.220   4.408  12.700 -1.0784  1.1564  0.0559
  994TIP3    H224398   5.165   4.326  12.585 -0.6521  0.1598  0.5525
  995TIP3   OH224399   1.528   5.748   5.977  0.2934 -0.0693 -0.4272
  995TIP3    H124400   1.555   5.756   6.068 -1.2313 -0.3306  0.0778
  995TIP3    H224401   1.559   5.662   5.950  2.4207  0.7528 -0.7864
  996TIP3   OH224402   1.946   2.040   2.871 -0.1441  0.0975  0.1784
  996TIP3    H124403   1.962   2.004   2.783 -1.1819 -1.3344  0.5429
  996TIP3    H224404   1.920   2.131   2.855 -2.8511 -0.8200 -1.2551
  997TIP3   OH224405   0.639   1.588  17.190  0.1075 -0.3236  0.1544
  997TIP3    H124406   0.631   1.602  17.285  0.1691 -0.6970  0.2137
  997TIP3    H224407   0.581   1.654  17.152 -0.3116 -0.5038  0.4704
  998TIP3   OH224408   4.332   4.620  13.228 -0.4373  0.6454 -0.5680
  998TIP3    H124409   4.314   4.576  13.310 -0.7773  0.2213 -0.8655
  998TIP3    H224410   4.419   4.659  13.240 -0.1423 -0.0837 -0.2896
  999TIP3   OH224411   2.849   6.511   1.899 -0.0582  0.6313 -0.2086
  999TIP3    H124412   2.895   6.437   1.859 -3.0044 -1.2096 -0.5228
  999TIP3    H224413   2.832   6.571   1.826 -0.1913  0.1758 -0.5590
 1000TIP3   OH224414   5.563   2.298  13.638 -0.3271 -0.0164  0.1449
 1000TIP3    H124415   5.634   2.302  13.574 -0.0364  0.9567  0.4948
 1000TIP3    H224416   5.556   2.206  13.661  1.3911 -0.0547  0.6868
 1001TIP3   OH224417   1.746   1.481  14.899  0.2452  0.6113  0.0622
 1001TIP3    H124418   1.840   1.463  14.889 -0.0801 -1.4234  0.2033
 1001TIP3    H224419   1.737   1.517  14.987  0.8543  0.3798  0.2259
 1002TIP3   OH224420   4.839   2.186  15.772  0.4541  0.4251  0.1207
 1002TIP3    H124421   4.757   2.222  15.807  1.1230  0.8940  1.2508
 1002TIP3    H224422   4.811   2.112  15.718 -0.7700  1.0830 -0.1997
 1003TIP3   OH224423   5.402   4.395   1.540 -0.0580  0.0265 -0.5520
 1003TIP3    H124424   5.433   4.338   1.610  0.4012  0.4188 -0.4303
 1003TIP3    H224425   5.366   4.336   1.474  0.5383 -0.4082 -0.4884
 1004TIP3   OH224426   0.620   0.965   4.423 -0.1669 -0.4620 -0.4301
 1004TIP3    H124427   0.714   0.984   4.433  0.1845 -1.6182 -1.3116
 1004TIP3    H224428   0.593   1.019   4.349 -0.2603  0.0323 -0.0431
 1005TIP3   OH224429   1.718   0.965   2.064  0.6805 -0.4211 -0.4166
 1005TIP3    H124430   1.796   0.948   2.012  1.2589  0.9519 -0.0516
 1005TIP3    H224431   1.666   1.024   2.010  1.9932  2.2809  1.0487
 1006TIP3   OH224432   4.557   0.860  12.306 -0.0732  0.8885  0.1085
 1006TIP3    H124433   4.543   0.949  12.338 -0.4949  0.7863  0.2178
 1006TIP3    H224434   4.582   0.872  12.214 -0.7462  1.0922 -0.0530
 1007TIP3   OH224435   0.458   5.128  14.827 -0.2555  0.8739 -0.5901
 1007TIP3    H124436   0.451   5.097  14.917 -0.5327 -3.2214 -1.8131
 1007TIP3    H224437   0.553   5.134  14.811 -0.2010  0.9106 -0.2600
 1008TIP3   OH224438   6.430   6.591   3.355 -0.1357 -0.3115  0.2945
 1008TIP3    H124439   6.336   6.600   3.373 -0.0680  1.3905 -0.0404
 1008TIP3    H224440   6.471   6.590   3.441 -0.3009  1.3137  0.4147
 1009TIP3   OH224441   0.552   5.576  15.329 -0.0011  0.1350 -1.1600
 1009TIP3    H124442   0.495   5.626  15.387 -0.2094 -1.9909  0.6086
 1009TIP3    H224443   0.513   5.585  15.242 -1.6126  0.6956 -0.4103
 1010TIP3   OH224444   1.565   6.461   4.629 -0.4463  0.1760  0.5744
 1010TIP3    H124445   1.545   6.482   4.538  0.3614 -0.7118  0.1820
 1010TIP3    H224446   1.644   6.512   4.648 -0.1315 -0.2801  0.5085
 1011TIP3   OH224447   3.950   3.181  16.998  0.5583 -0.1785 -0.2964
 1011TIP3    H124448   3.868   3.169  17.046 -0.1425 -0.1189 -1.4353
 1011TIP3    H224449   3.947   3.115  16.928  1.4199 -0.0876 -0.4322
 1012TIP3   OH224450   4.083   1.117  16.635  0.1244 -0.2239 -0.1233
 1012TIP3    H124451   4.037   1.037  16.610  0.4420 -0.9468  1.5121
 1012TIP3    H224452   4.169   1.110  16.593  0.1381 -0.7261 -0.0163
 1013TIP3   OH224453   3.192   6.267   3.896  0.6554  0.6316 -0.3058
 1013TIP3    H124454   3.207   6.357   3.868 -1.7922  0.9913 -0.6606
 1013TIP3    H224455   3.116   6.272   3.954  0.0408 -1.2774 -0.8687
 1014TIP3   OH224456   0.962   4.561  15.580  0.2339  0.1105  0.2819
 1014TIP3    H124457   0.902   4.527  15.514  1.8958  0.4040 -1.4889
 1014TIP3    H224458   1.003   4.484  15.618 -0.2296 -0.0416  0.4743
 1015TIP3   OH224459   1.519   1.393  14.767  0.1597 -0.0774  0.9993
 1015TIP3    H124460   1.591   1.434  14.814  1.1886  1.4105 -1.6579
 1015TIP3    H224461   1.544   1.400  14.675 -2.2872 -1.7056  0.1285
 1016TIP3   OH224462   4.136   2.893   1.371 -0.2100  0.1522  0.1218
 1016TIP3    H124463   4.158   2.835   1.444 -0.5386  0.6525  0.6264
 1016TIP3    H224464   4.214   2.946   1.357 -0.3616  0.4857  0.5281
 1017TIP3   OH224465   0.354   3.719   5.646 -0.2209 -0.5730  0.3936
 1017TIP3    H124466   0.262   3.730   5.667  0.2272  0.9025  1.7990
 1017TIP3    H224467   0.394   3.804   5.665  0.9947 -0.2841 -2.7770
 1018TIP3   OH224468   6.009   2.416   4.027  0.4031 -0.5918 -0.0566
 1018TIP3    H124469   6.083   2.357   4.013  1.5313  0.8495 -0.4355
 1018TIP3    H224470   6.048   2.496   4.062 -1.0084  0.1345 -0.0438
 1019TIP3   OH224471   5.861   3.450  13.219  0.2366 -0.2486 -0.5395
 1019TIP3    H124472   5.900   3.373  13.178 -1.2511 -1.5507  0.3834
 1019TIP3    H224473   5.935   3.496  13.258  1.1436 -1.3029 -0.9673
 1020TIP3   OH224474   0.833   3.706  12.027 -0.8129  0.4200 -0.6887
 1020TIP3    H124475   0.747   3.748  12.034 -0.3866  1.1381  0.4005
 1020TIP3    H224476   0.846   3.663  12.111  1.7450  3.9806  0.9701
 1021TIP3   OH224477   2.871   1.959   2.716  0.3313 -0.3402  0.5644
 1021TIP3    H124478   2.898   2.029   2.657  0.4827  0.7936  1.9179
 1021TIP3    H224479   2.871   1.880   2.662  2.8783  0.2097 -0.3785
 1022TIP3   OH224480   2.940   4.720   3.032  0.0296 -0.1927 -0.8237
 1022TIP3    H124481   2.981   4.796   2.990 -1.7710  0.4377 -1.5335
 1022TIP3    H224482   2.933   4.655   2.962 -2.4669  0.6581 -1.4700
 1023TIP3   OH224483   0.279   3.413   4.256  0.0152  0.6968  0.1539
 1023TIP3    H124484   0.232   3.448   4.331 -0.6850  0.9330 -0.3857
 1023TIP3    H224485   0.371   3.412   4.283 -0.3819 -0.6712  1.5837
 1024TIP3   OH224486   4.186   5.342   6.488  0.2364 -0.0587  0.4608
 1024TIP3    H124487   4.103   5.377   6.521 -0.1334  0.7470 -1.2170
 1024TIP3    H224488   4.253   5.387   6.540 -0.3421  0.5545  0.6948
 1025TIP3   OH224489   1.939   2.617  15.289 -0.2549  0.8413  0.3252
 1025TIP3    H124490   1.908   2.608  15.199  0.5479  0.1200  0.1133
 1025TIP3    H224491   1.931   2.711  15.308 -1.0453  0.9011 -0.2607
 1026TIP3   OH224492   5.503   2.851  16.453  0.3071 -0.0597 -0.3615
 1026TIP3    H124493   5.464   2.880  16.536 -1.3223 -0.1280 -1.0492
 1026TIP3    H224494   5.596   2.844  16.471 -0.2979 -3.7431  2.6384
 1027TIP3   OH224495   0.432   0.783   1.652 -0.0528 -0.0252 -0.0444
 1027TIP3    H124496   0.513   0.834   1.657 -0.1256 -0.0155  2.7241
 1027TIP3    H224497   0.368   0.844   1.616  0.6631  0.6752 -0.1843
 1028TIP3   OH224498   6.547   2.523  15.170 -0.1412  0.1238 -0.1223
 1028TIP3    H124499   6.563   2.478  15.252  1.4997 -0.6729 -0.8329
 1028TIP3    H224500   6.514   2.455  15.111  0.1871  0.3393 -0.5622
 1029TIP3   OH224501   2.663   5.571  14.817 -0.5896  0.3093 -0.0587
 1029TIP3    H124502   2.650   5.496  14.875 -0.6415  0.0067 -0.4500
 1029TIP3    H224503   2.580   5.579  14.770 -0.3996  0.2700 -0.4052
 1030TIP3   OH224504   2.165   6.493  16.188 -0.6040 -0.3359 -0.3841
 1030TIP3    H124505   2.256   6.489  16.159 -0.1098 -1.5473  1.1760
 1030TIP3    H224506   2.170   6.535  16.274 -1.4647 -0.8051 -0.1009
 1031TIP3   OH224507   0.171   2.221  12.961  0.4517  0.2913  0.8437
 1031TIP3    H124508   0.103   2.165  12.923  0.6225  0.9284 -0.4682
 1031TIP3    H224509   0.194   2.178  13.043 -0.5885 -0.6569  0.6729
 1032TIP3   OH224510   5.933   2.898  12.371 -0.0803 -0.1381  0.3151
 1032TIP3    H124511   5.915   2.985  12.333 -1.7162  0.1955  1.7255
 1032TIP3    H224512   6.011   2.912  12.425 -0.8094  0.7037  1.1989
 1033TIP3   OH224513   0.191   2.226  14.045  0.3088  0.2635  0.0081
 1033TIP3    H124514   0.146   2.145  14.019  0.1809 -0.2767  1.7503
 1033TIP3    H224515   0.234   2.203  14.128  1.4249  1.5948 -0.1824
 1034TIP3   OH224516   5.010   1.588   5.035  0.3105 -0.5555  0.3860
 1034TIP3    H124517   4.949   1.586   4.961 -1.2203 -1.0239  1.6008
 1034TIP3    H224518   5.070   1.660   5.015 -1.3272  0.6686 -0.3534
 1035TIP3   OH224519   3.100   4.989  12.994 -0.2145  0.3746 -0.4167
 1035TIP3    H124520   3.158   5.010  12.921  1.7993 -3.4674 -0.1914
 1035TIP3    H224521   3.029   4.939  12.954  1.1315 -2.1420  0.1280
 1036TIP3   OH224522   5.772   5.506  13.463 -0.0498 -0.1053 -0.4474
 1036TIP3    H124523   5.827   5.447  13.412  0.4572 -0.7448  0.7852
 1036TIP3    H224524   5.704   5.450  13.500  0.1971  0.1368  0.4043
 1037TIP3   OH224525   3.492   1.636  11.912 -0.1868 -0.5702  0.2551
 1037TIP3    H124526   3.492   1.654  11.818 -1.5645  0.0843  0.3569
 1037TIP3    H224527   3.544   1.555  11.920 -0.5591 -0.9872 -1.1268
 1038TIP3   OH224528   0.452   2.350  13.169 -0.4247  0.2850  0.0947
 1038TIP3    H124529   0.399   2.429  13.170 -0.4576  0.2598  0.6066
 1038TIP3    H224530   0.490   2.347  13.081 -0.8445  0.5860 -0.0985
 1039TIP3   OH224531   4.994   6.617  11.371  0.3181 -0.2004 -0.3009
 1039TIP3    H124532   4.935   6.618  11.296  2.2109 -0.3083 -1.8455
 1039TIP3    H224533   5.044   6.698  11.365  1.5812 -0.9292 -0.0847
 1040TIP3   OH224534   0.813   0.471   1.161  0.7941 -0.4167 -0.0994
 1040TIP3    H124535   0.856   0.497   1.080  0.3522 -0.3535 -0.3179
 1040TIP3    H224536   0.815   0.376   1.160  0.0056 -0.4343 -0.6182
 1041TIP3   OH224537   4.540   3.692  15.992 -0.2277 -0.2161 -0.1856
 1041TIP3    H124538   4.451   3.683  15.958 -0.6306  0.1226  0.7404
 1041TIP3    H224539   4.548   3.786  16.011 -0.1916 -0.4532  1.0697
 1042TIP3   OH224540   3.247   4.905  15.720 -0.6254  0.4395 -0.2058
 1042TIP3    H124541   3.296   4.950  15.788 -4.0045  1.5189  1.7481
 1042TIP3    H224542   3.169   4.959  15.706 -1.8263 -1.6170 -2.3490
 1043TIP3   OH224543   5.430   3.473   5.823 -0.0590  0.1269  0.0838
 1043TIP3    H124544   5.415   3.401   5.761 -3.2038  1.2143 -0.6107
 1043TIP3    H224545   5.431   3.430   5.908 -0.6298 -0.9000 -0.4011
 1044TIP3   OH224546   2.207   3.066  14.589 -0.1420 -0.1687 -0.3167
 1044TIP3    H124547   2.192   2.972  14.591 -0.9758 -0.0283  0.4306
 1044TIP3    H224548   2.132   3.102  14.541 -0.7600  0.2697  0.9454
 1045TIP3   OH224549   1.313   0.946  12.107  0.1907 -0.0796  0.2876
 1045TIP3    H124550   1.317   0.961  12.013  0.3371 -1.9552 -0.0305
 1045TIP3    H224551   1.308   1.034  12.145  0.3506  0.7083 -1.4431
 1046TIP3   OH224552   5.391   0.363  13.170 -0.1691 -0.5330  0.7880
 1046TIP3    H124553   5.433   0.276  13.172  0.5556 -0.2018  0.5226
 1046TIP3    H224554   5.355   0.374  13.257  1.2979 -0.3665  1.4008
 1047TIP3   OH224555   5.250   0.433  14.147  0.1661 -0.2133  0.1567
 1047TIP3    H124556   5.302   0.391  14.078  0.4521  1.5633 -0.7585
 1047TIP3    H224557   5.259   0.527  14.130 -3.1387  0.1955  0.1118
 1048TIP3   OH224558   5.069   5.559  15.080 -0.0882 -0.3705 -0.0067
 1048TIP3    H124559   5.138   5.566  15.014  0.7049  0.0505  0.8361
 1048TIP3    H224560   5.075   5.641  15.130 -1.6406 -0.0442 -0.3201
 1049TIP3   OH224561   3.088   1.028  10.806  0.0035 -0.4554  0.1962
 1049TIP3    H124562   3.145   1.010  10.732 -0.3412  0.4944 -0.3132
 1049TIP3    H224563   3.023   1.090  10.773 -0.2525 -0.1333  1.2425
 1050TIP3   OH224564   2.342   2.736  13.530 -0.1489 -0.2740  0.2423
 1050TIP3    H124565   2.435   2.729  13.510 -0.1363  1.4623 -0.4934
 1050TIP3    H224566   2.308   2.647  13.519  1.8543 -1.5457  3.0922
 1051TIP3   OH224567   0.261   2.736   3.587 -0.2026  0.1332  0.0715
 1051TIP3    H124568   0.236   2.820   3.626  0.0607  0.7187 -0.9594
 1051TIP3    H224569   0.357   2.739   3.586 -0.0809 -1.3381  2.4243
 1052TIP3   OH224570   3.478   4.476  14.325  0.0209  0.0533 -0.9640
 1052TIP3    H124571   3.568   4.456  14.302 -0.4676 -0.5373 -2.5041
 1052TIP3    H224572   3.466   4.568  14.300 -0.1700 -0.2503 -2.0185
 1053TIP3   OH224573   5.809   4.139   1.175  0.5745 -0.5966  0.4252
 1053TIP3    H124574   5.834   4.181   1.092 -1.1087  0.6228  0.4911
 1053TIP3    H224575   5.758   4.063   1.148  1.5521 -1.2503  0.3489
 1054TIP3   OH224576   1.318   0.224   0.377  0.4554  0.5962 -0.1816
 1054TIP3    H124577   1.389   0.288   0.374 -0.1332  1.2213 -1.1192
 1054TIP3    H224578   1.312   0.199   0.470  3.3803 -1.1814 -0.3440
 1055TIP3   OH224579   6.589   1.837  13.745 -0.3601 -0.2603  0.3215
 1055TIP3    H124580   6.514   1.876  13.789 -0.5216  1.4600 -1.3359
 1055TIP3    H224581   6.550   1.785  13.674 -0.0337  0.5379 -0.4665
 1056TIP3   OH224582   6.272   0.341   6.314  0.4329 -0.2461  0.1724
 1056TIP3    H124583   6.254   0.389   6.233  0.4740 -1.7508 -0.7576
 1056TIP3    H224584   6.316   0.405   6.370  0.7510  0.7303 -1.1392
 1057TIP3   OH224585   4.517   2.078   3.966  0.2172  0.1641 -0.0210
 1057TIP3    H124586   4.539   2.037   4.050 -1.1294 -0.6601 -0.0321
 1057TIP3    H224587   4.469   2.157   3.990 -0.6595 -0.3621  0.0071
 1058TIP3   OH224588   1.827   3.567  16.827 -0.1141 -0.3931 -0.4937
 1058TIP3    H124589   1.894   3.597  16.889 -0.5988  1.3023 -0.7389
 1058TIP3    H224590   1.877   3.539  16.750  0.3698  0.3841 -0.4829
 1059TIP3   OH224591   0.460   6.215   1.821  0.5450 -0.1150  0.0786
 1059TIP3    H124592   0.424   6.303   1.829  0.3800 -0.2338  0.7261
 1059TIP3    H224593   0.483   6.206   1.729  0.2072  0.4673 -0.0640
 1060TIP3   OH224594   3.235   3.920   1.877  0.3187 -0.3336 -0.8802
 1060TIP3    H124595   3.234   4.014   1.891 -0.7753 -0.3236 -0.9227
 1060TIP3    H224596   3.190   3.884   1.954 -0.1328 -0.7391 -1.3276
 1061TIP3   OH224597   1.823   0.021  12.981 -0.6475 -0.2743  0.1528
 1061TIP3    H124598   1.732  -0.005  12.997  0.3104 -3.3637  1.2212
 1061TIP3    H224599   1.872  -0.018  13.053  1.4797  2.1033  0.1322
 1062TIP3   OH224600   1.251   0.514   6.780 -0.0425  0.2931 -0.7473
 1062TIP3    H124601   1.290   0.526   6.867  1.0143  0.0888 -1.1772
 1062TIP3    H224602   1.325   0.519   6.720 -0.3465 -2.1987 -1.4448
 1063TIP3   OH224603   0.356   1.552   2.170  0.1530  0.1060 -0.2797
 1063TIP3    H124604   0.404   1.634   2.175  0.1840  0.0565  0.3292
 1063TIP3    H224605   0.266   1.577   2.153  0.2643  0.2304 -0.7173
 1064TIP3   OH224606   5.868   5.719  15.321  0.2202 -0.6770  0.3146
 1064TIP3    H124607   5.799   5.766  15.368  1.7639  0.8996  1.1230
 1064TIP3    H224608   5.834   5.709  15.232 -1.8272 -1.7040  1.1330
 1065TIP3   OH224609   0.267   5.285   4.702 -0.9586  0.1236  0.2803
 1065TIP3    H124610   0.347   5.329   4.733  0.4293 -3.6276  2.6360
 1065TIP3    H224611   0.297   5.227   4.633 -1.9863 -0.1381  0.0429
 1066TIP3   OH224612   4.687   6.371   2.117 -0.2108  0.3952  0.8681
 1066TIP3    H124613   4.756   6.316   2.079 -1.4406  0.1179 -1.1021
 1066TIP3    H224614   4.606   6.333   2.085 -1.2162  1.8063  1.6420
 1067TIP3   OH224615   4.031   3.483   4.674  0.8004  0.0998 -0.0893
 1067TIP3    H124616   3.984   3.470   4.757  0.5812  0.4240 -0.1614
 1067TIP3    H224617   4.117   3.443   4.689  0.4411 -0.6617 -0.0147
 1068TIP3   OH224618   1.751   1.393   1.658  0.2479  0.0092  0.0333
 1068TIP3    H124619   1.775   1.438   1.577 -1.7520  0.4314 -0.3736
 1068TIP3    H224620   1.769   1.301   1.641  0.2355  0.1463 -0.7266
 1069TIP3   OH224621   2.567   2.048  12.716  0.2055  0.6203 -0.4713
 1069TIP3    H124622   2.472   2.043  12.728  0.2986 -0.5551 -0.1321
 1069TIP3    H224623   2.603   1.998  12.789  1.0932  1.0463 -0.6064
 1070TIP3   OH224624   6.024   4.786  14.676  0.3219 -0.6033 -0.1128
 1070TIP3    H124625   5.993   4.801  14.587 -0.5508  0.6141  0.3638
 1070TIP3    H224626   6.120   4.791  14.670  0.2387  0.4671 -0.8340
 1071TIP3   OH224627   4.945   5.973  10.538 -0.3652 -0.0762  0.2845
 1071TIP3    H124628   4.947   5.890  10.586 -0.0414 -0.2291  0.0130
 1071TIP3    H224629   4.928   6.039  10.605  0.8761 -0.1923  0.7563
 1072TIP3   OH224630   6.315   5.139   2.020  0.0161 -0.1945  0.4265
 1072TIP3    H124631   6.317   5.045   2.040 -2.4944 -0.6757 -1.0842
 1072TIP3    H224632   6.236   5.171   2.063  0.0879  0.9095 -0.2286
 1073TIP3   OH224633   0.314   2.739  16.842  0.0744  0.0514 -0.1243
 1073TIP3    H124634   0.407   2.741  16.820  0.1249 -1.5437 -0.1238
 1073TIP3    H224635   0.307   2.794  16.920  1.0829 -0.2058  0.1645
 1074TIP3   OH224636   4.255   4.797   0.965  0.1504 -0.2759 -0.2189
 1074TIP3    H124637   4.175   4.845   0.942 -0.4129 -0.7612  0.6912
 1074TIP3    H224638   4.325   4.860   0.950 -0.4233  0.2488 -0.7709
 1075TIP3   OH224639   4.310   3.103   1.048  0.0814 -0.4426 -0.5403
 1075TIP3    H124640   4.233   3.159   1.040  2.5964  3.1605 -2.9012
 1075TIP3    H224641   4.332   3.106   1.141 -1.1362  0.6603 -0.2565
 1076TIP3   OH224642   2.297   5.826   3.535  0.0951  0.3282  0.3005
 1076TIP3    H124643   2.378   5.789   3.569  1.7272  3.3938  0.0921
 1076TIP3    H224644   2.246   5.848   3.613 -0.5103 -1.4507  0.4365
 1077TIP3   OH224645   6.630   3.996  13.444 -0.2942  0.3904 -0.0588
 1077TIP3    H124646   6.604   3.906  13.423  0.2494  0.3148 -0.4391
 1077TIP3    H224647   6.726   3.994  13.441 -0.1556  0.3726  2.4953
 1078TIP3   OH224648   3.539   2.636  12.580  0.3484  0.0673 -0.5934
 1078TIP3    H124649   3.589   2.586  12.645  0.1672 -1.1708 -1.3613
 1078TIP3    H224650   3.604   2.664  12.516  0.1063 -1.6237 -1.6420
 1079TIP3   OH224651   1.443   3.943  12.985  0.6213 -0.0861 -0.0581
 1079TIP3    H124652   1.355   3.905  12.987  0.8654 -0.8264 -1.7888
 1079TIP3    H224653   1.433   4.027  13.029 -0.4399 -1.1263  1.8267
 1080TIP3   OH224654   2.419   5.180  14.047 -0.4591 -0.2647  0.5764
 1080TIP3    H124655   2.475   5.173  14.124 -0.6040  2.0144  0.9794
 1080TIP3    H224656   2.480   5.201  13.975 -0.4873 -0.7938  0.3976
 1081TIP3   OH224657   0.512   0.021  13.715  0.3176 -0.4064 -0.3727
 1081TIP3    H124658   0.506  -0.025  13.799 -3.3001  0.5923  0.0968
 1081TIP3    H224659   0.540   0.110  13.739 -0.4388 -0.1991 -0.2514
 1082TIP3   OH224660   4.840   4.392  10.476 -0.2206  0.0228 -0.0360
 1082TIP3    H124661   4.753   4.411  10.513 -0.3436 -0.1064 -0.2559
 1082TIP3    H224662   4.882   4.478  10.469  0.0376 -0.0076  0.9736
 1083TIP3   OH224663   1.121   1.404  10.962 -0.7162  0.0542 -0.3996
 1083TIP3    H124664   1.071   1.480  10.992 -0.2926  0.3570 -0.4470
 1083TIP3    H224665   1.056   1.335  10.951 -0.8899 -0.0940  1.3103
 1084TIP3   OH224666   2.036   3.722  15.302  0.1226  0.3625  0.2184
 1084TIP3    H124667   2.038   3.811  15.336 -1.3193  0.4848  0.0197
 1084TIP3    H224668   2.123   3.687  15.322  0.3710  1.4726  1.1796
 1085TIP3   OH224669   3.405   4.102  12.904  0.0325  0.1482  0.0400
 1085TIP3    H124670   3.440   4.152  12.830  1.0997 -1.7381 -0.8198
 1085TIP3    H224671   3.380   4.168  12.969  1.8682  1.7626 -0.7930
 1086TIP3   OH224672   3.873   2.240   0.953  0.4084 -0.2930  0.5009
 1086TIP3    H124673   3.823   2.200   0.882  0.4863  0.8584 -0.2316
 1086TIP3    H224674   3.936   2.297   0.909  1.4791 -0.6901  1.4529
 1087TIP3   OH224675   0.805   1.072   5.424  0.0784  0.5330 -0.0116
 1087TIP3    H124676   0.774   1.046   5.511 -0.8903  0.5739 -0.3361
 1087TIP3    H224677   0.798   0.994   5.371 -0.2395  0.7527 -0.2951
 1088TIP3   OH224678   2.340   2.960  15.211  0.2195 -0.5543 -0.4572
 1088TIP3    H124679   2.292   3.005  15.281  1.6732  1.5252 -0.6905
 1088TIP3    H224680   2.420   2.929  15.254 -0.1003 -1.6509 -0.6351
 1089TIP3   OH224681   0.568   5.915   5.381 -0.1831  0.0118  0.4080
 1089TIP3    H124682   0.589   5.967   5.303  0.2090 -1.2132 -0.3282
 1089TIP3    H224683   0.482   5.947   5.409 -0.5043  0.2140 -0.7631
 1090TIP3   OH224684   3.413   1.685   5.315 -0.3740  0.2018 -0.8089
 1090TIP3    H124685   3.331   1.701   5.269  0.0667  1.3740 -1.2246
 1090TIP3    H224686   3.404   1.597   5.350 -2.7725  1.0853  1.1471
 1091TIP3   OH224687   4.432   0.369  17.118  0.8825  0.0309 -0.1920
 1091TIP3    H124688   4.394   0.457  17.116  1.0299  0.0823 -0.8413
 1091TIP3    H224689   4.361   0.311  17.092  1.0975  0.0722 -0.8746
 1092TIP3   OH224690   3.355   0.626  12.566 -0.0677  0.4324 -0.5111
 1092TIP3    H124691   3.270   0.643  12.607  0.9506  1.7982  1.1677
 1092TIP3    H224692   3.374   0.535  12.588 -0.1597  0.7481  0.9385
 1093TIP3   OH224693   3.993   2.959  16.843 -0.0623 -0.4018  0.3650
 1093TIP3    H124694   4.069   2.924  16.796 -0.1710  1.3437 -1.2261
 1093TIP3    H224695   3.941   2.881  16.865 -0.1423 -1.3857 -2.7270
 1094TIP3   OH224696   1.823   2.206   1.804 -0.2386  0.0741  0.2536
 1094TIP3    H124697   1.782   2.292   1.818 -0.7394 -0.0644 -0.3375
 1094TIP3    H224698   1.834   2.170   1.892  1.4428  1.4015  0.6492
 1095TIP3   OH224699   3.068   2.984  14.618 -0.3718 -0.2992 -0.2422
 1095TIP3    H124700   3.018   3.039  14.558 -0.5946 -1.3724 -1.0779
 1095TIP3    H224701   3.002   2.936  14.668 -0.1830  0.0627  0.3632
 1096TIP3   OH224702   4.101   5.649  15.949  0.5247 -0.0157 -0.5825
 1096TIP3    H124703   4.068   5.583  15.888 -0.6950  0.9625 -1.0176
 1096TIP3    H224704   4.099   5.731  15.899 -0.8991  0.8949  0.8880
 1097TIP3   OH224705   5.011   6.642   5.188  0.1370  0.2233  0.2557
 1097TIP3    H124706   5.051   6.723   5.219  0.2048  0.4847 -0.4880
 1097TIP3    H224707   5.057   6.573   5.235  0.6736  0.5770  0.2552
 1098TIP3   OH224708   0.634   6.547   3.834  0.2347 -0.0478  0.0596
 1098TIP3    H124709   0.596   6.616   3.779 -3.8140 -0.8643  1.4451
 1098TIP3    H224710   0.725   6.574   3.847 -0.0752  2.8819 -2.6812
 1099TIP3   OH224711   4.294   1.825  14.874  0.3002 -0.0502  0.1689
 1099TIP3    H124712   4.258   1.762  14.936 -0.5783 -1.3700 -1.6008
 1099TIP3    H224713   4.388   1.827  14.893  0.2661 -1.5479  0.5987
 1100TIP3   OH224714   5.063   0.376  12.884 -1.1162  0.7647 -0.1572
 1100TIP3    H124715   5.149   0.334  12.888 -2.5419 -2.4725 -0.2913
 1100TIP3    H224716   5.079   0.461  12.844  1.9755  0.1424 -0.4468
 1101TIP3   OH224717   2.273   0.384  12.367  0.3654 -0.5610 -0.3589
 1101TIP3    H124718   2.273   0.450  12.297 -1.7117 -0.3768 -0.2670
 1101TIP3    H224719   2.285   0.301  12.322  2.8437 -0.1875 -0.4941
 1102TIP3   OH224720   2.145   1.367  14.223  0.5779  0.2723 -0.0212
 1102TIP3    H124721   2.055   1.395  14.241  0.3789 -0.8347  0.8834
 1102TIP3    H224722   2.181   1.349  14.310  0.9627 -1.3294 -0.4854
 1103TIP3   OH224723   6.558   3.255   0.493 -0.0607  0.0547  0.1360
 1103TIP3    H124724   6.470   3.233   0.523 -0.5477  1.1667 -0.4036
 1103TIP3    H224725   6.544   3.320   0.425  1.1874  0.2281  0.0239
 1104TIP3   OH224726   0.070   1.337  15.527 -0.1351  0.4144 -0.3151
 1104TIP3    H124727  -0.008   1.325  15.473 -0.2130  0.4538 -0.2120
 1104TIP3    H224728   0.078   1.432  15.538 -0.4968  0.3828  0.2854
 1105TIP3   OH224729   1.891   0.951  14.176 -0.8079  0.0688 -0.2593
 1105TIP3    H124730   1.866   1.021  14.116  1.9453  0.4335 -1.1118
 1105TIP3    H224731   1.880   0.988  14.263 -0.5608  1.1238 -0.6664
 1106TIP3   OH224732   3.006   1.544   3.664  0.0719  0.6835  0.4405
 1106TIP3    H124733   3.067   1.563   3.592  0.2755  0.0990  0.4532
 1106TIP3    H224734   2.928   1.594   3.642 -0.1124  0.0117 -0.5485
 1107TIP3   OH224735   2.872   4.028  13.560  0.1789 -0.7830  0.5146
 1107TIP3    H124736   2.799   3.986  13.607 -0.5469  0.8917  0.9495
 1107TIP3    H224737   2.942   4.034  13.626 -0.9849  1.9608  1.6678
 1108TIP3   OH224738   6.583   3.385  16.095  0.8076  0.0305  0.5713
 1108TIP3    H124739   6.646   3.354  16.160  0.0744  1.2944  1.9432
 1108TIP3    H224740   6.630   3.451  16.045  1.4923 -1.2104 -0.4888
 1109TIP3   OH224741   2.915   0.854  15.751  0.5445  0.3808 -0.0659
 1109TIP3    H124742   2.827   0.826  15.777  1.4885 -0.1375  3.0428
 1109TIP3    H224743   2.930   0.812  15.667 -2.1663  0.5377 -0.7169
 1110TIP3   OH224744   0.669   5.984   3.155  0.2279  0.6017  0.4001
 1110TIP3    H124745   0.578   5.958   3.169  0.0464  0.8562 -0.2976
 1110TIP3    H224746   0.689   6.039   3.231 -0.4188  1.0941  0.2269
 1111TIP3   OH224747   6.078   6.763  14.977 -0.1826  0.1508  0.0452
 1111TIP3    H124748   6.002   6.759  14.919 -0.7012  0.2426  0.7031
 1111TIP3    H224749   6.112   6.851  14.966  0.9038 -0.4203 -1.5643
 1112TIP3   OH224750   4.902   4.076  15.224 -0.4007  0.0260  0.5704
 1112TIP3    H124751   4.823   4.087  15.276 -0.6549  2.1104 -0.1563
 1112TIP3    H224752   4.946   4.161  15.229 -0.0555  0.0600 -1.9515
 1113TIP3   OH224753   4.470   0.160   2.338 -0.0757 -0.1606 -0.1685
 1113TIP3    H124754   4.504   0.131   2.423  1.3227  1.2256 -0.2195
 1113TIP3    H224755   4.467   0.081   2.285  0.4373 -0.7888  0.7126
 1114TIP3   OH224756   4.489   2.648   4.184  0.5578 -0.5542  0.0917
 1114TIP3    H124757   4.533   2.609   4.259  1.0796 -0.3754 -0.1168
 1114TIP3    H224758   4.468   2.737   4.212 -2.9062 -1.6636  1.5042
 1115TIP3   OH224759   2.501   3.926  15.771 -0.1579 -0.2937 -0.7959
 1115TIP3    H124760   2.478   3.844  15.815 -0.8012  0.8869  1.2305
 1115TIP3    H224761   2.477   3.912  15.679 -2.5015 -1.5789 -0.0672
 1116TIP3   OH224762   4.111   5.068   5.702  0.3070  0.3472  0.3684
 1116TIP3    H124763   4.181   5.082   5.638 -0.3285  0.7130 -0.2537
 1116TIP3    H224764   4.088   4.976   5.691  1.2962 -0.0197  1.2079
 1117TIP3   OH224765   3.469   3.296  15.350  0.5084  0.0813 -0.6887
 1117TIP3    H124766   3.530   3.363  15.319  0.2243 -0.8779 -3.5506
 1117TIP3    H224767   3.387   3.316  15.304 -0.5283 -0.3798  0.8803
 1118TIP3   OH224768   5.773   3.438  15.600  0.4512 -0.2268  0.0728
 1118TIP3    H124769   5.781   3.520  15.551 -0.7975 -0.3528 -0.3791
 1118TIP3    H224770   5.822   3.453  15.680  1.1510  0.5750 -0.4810
 1119TIP3   OH224771   5.209   0.869  13.048  0.7060  0.1429 -0.2975
 1119TIP3    H124772   5.277   0.916  13.097  0.0592  1.5112 -0.6513
 1119TIP3    H224773   5.220   0.900  12.958 -0.2953  0.2830 -0.3807
 1120TIP3   OH224774   3.599   0.141   5.479 -0.1519  0.3872 -0.1452
 1120TIP3    H124775   3.547   0.196   5.420 -2.0088 -1.1032 -0.0094
 1120TIP3    H224776   3.685   0.182   5.481 -0.7724  1.9069 -1.8998
 1121TIP3   OH224777   3.494   4.118   5.205  0.1807  0.1977 -0.3063
 1121TIP3    H124778   3.439   4.059   5.154  0.3719  0.6687 -1.0743
 1121TIP3    H224779   3.444   4.134   5.285  0.1114 -0.9667 -0.1053
 1122TIP3   OH224780   4.930   6.175  12.079 -0.5154  0.7688 -0.5799
 1122TIP3    H124781   4.991   6.104  12.061  2.0564  2.1427  1.9293
 1122TIP3    H224782   4.973   6.253  12.044 -0.6022  1.8376  1.5674
 1123TIP3   OH224783   1.922   4.395  17.119 -0.2670  0.4883  0.1882
 1123TIP3    H124784   1.905   4.480  17.079  2.8465  1.1001 -0.0938
 1123TIP3    H224785   1.970   4.416  17.199  2.6859 -0.9594 -1.0567
 1124TIP3   OH224786   0.769   0.707  13.540 -0.0102  0.2497  0.4297
 1124TIP3    H124787   0.736   0.622  13.511  0.2479  0.6415 -1.1125
 1124TIP3    H224788   0.862   0.706  13.517  0.0187  0.9050  0.4934
 1125TIP3   OH224789   4.163   6.506   1.553 -0.5636  0.2608  0.1880
 1125TIP3    H124790   4.155   6.594   1.591  0.1578  0.8196 -0.9036
 1125TIP3    H224791   4.163   6.521   1.459 -3.4896 -1.1903 -0.1491
 1126TIP3   OH224792   4.788   6.091  12.549 -0.3150  0.2893  0.2525
 1126TIP3    H124793   4.814   6.071  12.639  0.5774 -1.6108 -0.3690
 1126TIP3    H224794   4.787   6.006  12.505 -0.1641  1.2262 -1.6820
 1127TIP3   OH224795   3.285   2.817   5.220  0.0337  0.2109  0.3623
 1127TIP3    H124796   3.323   2.886   5.166  1.7711 -1.2359 -0.3959
 1127TIP3    H224797   3.240   2.863   5.290 -1.4990  2.1777 -1.7363
 1128TIP3   OH224798   2.214   0.517  12.604  0.3444 -0.1382  0.6054
 1128TIP3    H124799   2.228   0.482  12.516 -1.3512 -0.3337  0.3835
 1128TIP3    H224800   2.163   0.597  12.591  0.4053  0.0362  1.3913
 1129TIP3   OH224801   2.579   0.268   5.945  0.0873  0.3455  0.0064
 1129TIP3    H124802   2.561   0.217   6.024 -0.5670  0.0075 -0.3507
 1129TIP3    H224803   2.595   0.357   5.976 -0.7305  0.3340  0.4730
 1130TIP3   OH224804   6.329   4.038   1.076 -0.6007  0.5360  0.2063
 1130TIP3    H124805   6.412   3.998   1.099 -0.2302  0.0710 -1.7988
 1130TIP3    H224806   6.341   4.131   1.096 -0.2849  0.2129  1.6638
 1131TIP3   OH224807   6.126   3.002  15.378  0.2457 -0.2400  0.1901
 1131TIP3    H124808   6.105   3.036  15.290 -0.5309 -1.9130 -0.3156
 1131TIP3    H224809   6.220   3.018  15.388  0.7007 -1.5006 -1.6516
 1132TIP3   OH224810   2.563   2.479  13.132 -0.0244  0.0996 -0.5053
 1132TIP3    H124811   2.490   2.500  13.074 -0.2650 -0.5896 -0.4670
 1132TIP3    H224812   2.641   2.492  13.078 -0.2912 -1.6456 -1.3807
 1133TIP3   OH224813   4.386   3.581  13.964  0.3397  0.4783 -0.4159
 1133TIP3    H124814   4.382   3.590  14.059 -2.2012  1.8724 -0.5638
 1133TIP3    H224815   4.417   3.666  13.933 -0.2042  0.5054 -0.8884
 1134TIP3   OH224816   1.026   6.089  16.939  0.0970  0.7073  0.7934
 1134TIP3    H124817   0.932   6.085  16.923  0.0623  1.7809  0.6399
 1134TIP3    H224818   1.049   6.180  16.921  1.7069 -0.1623 -2.2224
 1135TIP3   OH224819   2.496   4.676  16.800 -0.5439  0.7997 -0.2245
 1135TIP3    H124820   2.530   4.630  16.723 -1.6821 -0.7131  0.1270
 1135TIP3    H224821   2.410   4.708  16.773 -0.9544  0.2497  0.4168
 1136TIP3   OH224822   3.829   6.238   5.789 -0.1266 -0.2195 -0.1306
 1136TIP3    H124823   3.855   6.319   5.832  0.3546 -1.0198  1.1424
 1136TIP3    H224824   3.733   6.239   5.792 -0.1356  0.5005 -0.5185
 1137TIP3   OH224825   5.383   0.938   2.798  0.3629  0.1235 -0.1190
 1137TIP3    H124826   5.370   0.866   2.736  1.1311 -0.7364  0.6978
 1137TIP3    H224827   5.475   0.932   2.824  0.1055  0.5819  0.9626
 1138TIP3   OH224828   4.223   2.435  15.225 -0.5798  0.2380 -0.1488
 1138TIP3    H124829   4.281   2.413  15.297 -1.4466 -0.4132  0.3582
 1138TIP3    H224830   4.135   2.415  15.257 -1.0596  0.8168 -1.0516
 1139TIP3   OH224831   5.719   2.104  15.506  0.6382 -0.0132 -0.5039
 1139TIP3    H124832   5.738   2.139  15.593 -0.3271  0.8075 -0.6021
 1139TIP3    H224833   5.802   2.070  15.475  1.2698  0.8172  0.2299
 1140TIP3   OH224834   6.593   3.403   1.636 -0.0839  0.3807 -0.5920
 1140TIP3    H124835   6.518   3.460   1.615 -0.8849 -0.4126  0.0344
 1140TIP3    H224836   6.558   3.340   1.699  1.2119  0.1879 -0.0482
 1141TIP3   OH224837   3.872   5.134  15.289 -0.7380 -0.4986 -0.5417
 1141TIP3    H124838   3.886   5.048  15.250 -1.1241  0.0972 -2.0671
 1141TIP3    H224839   3.849   5.190  15.215  0.0399  1.0418  0.3420
 1142TIP3   OH224840   1.989   1.085   5.578  0.2577  0.0040 -0.2500
 1142TIP3    H124841   2.047   1.154   5.546 -1.0391  1.3002  0.0555
 1142TIP3    H224842   1.976   1.027   5.504  1.8338 -0.2559 -0.3479
 1143TIP3   OH224843   4.197   4.939  16.489 -0.3332 -0.4960 -0.1884
 1143TIP3    H124844   4.111   4.966  16.521 -0.1297 -1.3470  1.1560
 1143TIP3    H224845   4.253   5.015  16.504 -0.3703 -0.6862  1.0057
 1144TIP3   OH224846   3.182   0.547   1.059 -0.0659  0.0362 -0.1986
 1144TIP3    H124847   3.246   0.618   1.065 -1.4281  1.3537 -0.7150
 1144TIP3    H224848   3.227   0.479   1.010  1.2873  0.5246  0.3178
 1145TIP3   OH224849   2.264   3.245   1.288  0.3453 -0.2255  0.1128
 1145TIP3    H124850   2.312   3.305   1.345  1.0515 -1.1367  0.5051
 1145TIP3    H224851   2.271   3.160   1.332 -0.3371 -0.6691 -0.6086
 1146TIP3   OH224852   3.165   0.711  16.013 -0.4940 -0.0395 -0.1864
 1146TIP3    H124853   3.075   0.708  16.046 -0.5583  1.9454 -0.0394
 1146TIP3    H224854   3.193   0.620  16.011 -2.0611 -0.5923  0.9951
 1147TIP3   OH224855   1.603   0.564   1.458 -0.4896  0.0417 -0.4005
 1147TIP3    H124856   1.586   0.496   1.523 -2.5741  1.3396  0.5266
 1147TIP3    H224857   1.655   0.521   1.390 -1.5252 -2.3896  0.2627
 1148TIP3   OH224858   2.116   0.460   2.037 -0.1627  0.1045  0.9044
 1148TIP3    H124859   2.193   0.408   2.059  0.9200  1.0164 -0.5264
 1148TIP3    H224860   2.134   0.546   2.075 -0.6867  0.2037  0.9343
 1149TIP3   OH224861   6.490   1.086   1.725  0.0747 -0.3689 -0.3657
 1149TIP3    H124862   6.556   1.053   1.786  1.3944  0.0658 -1.5157
 1149TIP3    H224863   6.532   1.080   1.639 -0.9060  1.1349 -0.9812
 1150TIP3   OH224864   0.891   6.253   0.810 -0.6764 -0.2735 -0.5606
 1150TIP3    H124865   0.964   6.203   0.772 -0.8394 -0.7535 -0.2572
 1150TIP3    H224866   0.815   6.226   0.759 -0.6872  0.0169 -0.6961
 1151TIP3   OH224867   4.371   0.734   6.446  0.4764  0.0910 -0.0766
 1151TIP3    H124868   4.424   0.810   6.422  0.2632 -0.0953 -1.2099
 1151TIP3    H224869   4.427   0.659   6.425 -0.4312 -0.1268 -1.9147
 1152TIP3   OH224870   4.893   4.307   1.417  0.3748 -0.7512  0.0339
 1152TIP3    H124871   4.982   4.333   1.393  0.7110 -1.8118  0.0557
 1152TIP3    H224872   4.890   4.316   1.512  0.7028 -1.4041  0.1112
 1153TIP3   OH224873   4.966   5.253   0.898 -0.2905  0.2355  0.1896
 1153TIP3    H124874   4.968   5.178   0.957 -1.5160  1.0151  1.2811
 1153TIP3    H224875   5.005   5.325   0.949 -0.3027  0.6486 -0.3720
 1154TIP3   OH224876   1.852   2.697   2.728  0.0177 -0.0085  0.2980
 1154TIP3    H124877   1.809   2.650   2.800  1.8329 -2.4384 -0.0753
 1154TIP3    H224878   1.916   2.754   2.772 -1.5142  1.5194  0.6995
 1155TIP3   OH224879   5.821   3.165  11.563  0.0499 -0.0199  0.0937
 1155TIP3    H124880   5.829   3.217  11.643  1.7306 -0.1975  0.0835
 1155TIP3    H224881   5.853   3.079  11.587  1.2445  0.1090 -0.9087
 1156TIP3   OH224882   3.041   3.882  16.058 -0.3441 -0.7651 -0.2641
 1156TIP3    H124883   3.042   3.958  16.000 -0.1455 -1.5913 -1.3738
 1156TIP3    H224884   3.106   3.823  16.021 -0.5316 -1.5048  0.5543
 1157TIP3   OH224885   2.368   3.767   4.191  0.0312 -0.1692  0.5481
 1157TIP3    H124886   2.418   3.842   4.221  1.0728 -0.2807 -0.8169
 1157TIP3    H224887   2.317   3.739   4.268 -0.1763  1.7419  1.1467
 1158TIP3   OH224888   5.173   0.211  10.537  0.0107  0.1509  0.3559
 1158TIP3    H124889   5.081   0.195  10.559 -0.8199  1.0580 -2.0941
 1158TIP3    H224890   5.186   0.304  10.558 -0.2131  0.5042 -0.9948
 1159TIP3   OH224891   6.607   3.714   2.622  0.4089  0.0139  1.2205
 1159TIP3    H124892   6.533   3.699   2.681 -0.9432  1.6545  0.0552
 1159TIP3    H224893   6.588   3.660   2.546  1.0580 -0.4900  1.4095
 1160TIP3   OH224894   0.890   0.002   1.380  0.0955 -0.3275  0.8314
 1160TIP3    H124895   0.890  -0.092   1.364  0.3560 -0.2295  0.2222
 1160TIP3    H224896   0.806   0.020   1.421 -0.0721 -0.7850  0.6881
 1161TIP3   OH224897   6.076   4.161   3.939 -0.0672  0.2803 -0.0474
 1161TIP3    H124898   6.033   4.166   4.024 -2.3992 -0.3870 -1.1043
 1161TIP3    H224899   6.030   4.226   3.886  0.6683 -0.0314 -1.0959
 1162TIP3   OH224900   5.444   3.923   2.136  0.5307 -0.1335  0.4502
 1162TIP3    H124901   5.482   3.975   2.207 -1.2618 -2.0383  2.9964
 1162TIP3    H224902   5.504   3.850   2.125 -0.5147 -1.2981  2.0418
 1163TIP3   OH224903   3.154   3.785   0.194  0.4338  0.1119  0.3362
 1163TIP3    H124904   3.125   3.703   0.233  1.4946 -0.2668  0.3531
 1163TIP3    H224905   3.109   3.789   0.110  2.4983 -1.9005 -0.9692
 1164TIP3   OH224906   1.920   1.204  13.263 -0.1215 -0.1719 -0.1045
 1164TIP3    H124907   1.860   1.251  13.320  0.8163  0.1541  0.6395
 1164TIP3    H224908   1.959   1.271  13.207  1.4679  0.0243  1.1842
 1165TIP3   OH224909   3.831   6.148   5.534 -0.7111  0.0292 -0.0666
 1165TIP3    H124910   3.849   6.178   5.623 -2.2819  3.9699 -0.8832
 1165TIP3    H224911   3.737   6.165   5.521 -0.9357 -2.1075 -1.9786
 1166TIP3   OH224912   6.410   5.225   0.606  0.1020  0.0612  0.0412
 1166TIP3    H124913   6.387   5.149   0.552  0.6276 -1.0675  1.3351
 1166TIP3    H224914   6.394   5.196   0.696  1.4085  1.0927  0.6441
 1167TIP3   OH224915   0.513   5.688  17.169 -0.4655  0.1234 -0.2307
 1167TIP3    H124916   0.473   5.692  17.255  0.8830 -3.2149  0.6914
 1167TIP3    H224917   0.457   5.628  17.119 -0.0252  0.2984 -0.9567
 1168TIP3   OH224918   2.263   0.708   2.139 -0.0837 -0.7090  0.1245
 1168TIP3    H124919   2.316   0.762   2.081  0.9774  0.6462  2.2106
 1168TIP3    H224920   2.312   0.705   2.221 -0.7971 -3.7543  0.5676
 1169TIP3   OH224921   1.489   3.185  11.516 -0.3685 -0.0964  0.0504
 1169TIP3    H124922   1.496   3.254  11.450 -1.6563 -0.6433 -0.7137
 1169TIP3    H224923   1.548   3.116  11.484  0.8233  0.5760  0.7483
 1170TIP3   OH224924   4.493   3.576   2.593  0.3238 -0.2032 -0.7619
 1170TIP3    H124925   4.583   3.606   2.576  1.2236 -2.4613 -0.3914
 1170TIP3    H224926   4.442   3.610   2.520  1.0762  2.5672 -0.1303
 1171TIP3   OH224927   0.940   0.626   0.838  0.3739  0.1885 -0.5067
 1171TIP3    H124928   0.994   0.698   0.807  0.0700  0.9996  0.7638
 1171TIP3    H224929   0.897   0.593   0.759 -0.4000  2.1884 -0.9891
 1172TIP3   OH224930   5.011   6.002   0.184 -0.2928  0.2951  0.1389
 1172TIP3    H124931   5.033   6.089   0.149 -0.0102  0.7798  1.4586
 1172TIP3    H224932   5.082   5.982   0.245 -0.8661 -0.4252  0.5830
 1173TIP3   OH224933   0.788   1.510   5.572 -0.3706  0.1522 -0.2579
 1173TIP3    H124934   0.838   1.510   5.653 -2.7494  1.6394  1.3294
 1173TIP3    H224935   0.809   1.594   5.531  1.5803 -0.9804 -1.8307
 1174TIP3   OH224936   1.816   6.029  11.635 -0.4576 -0.5048 -0.4927
 1174TIP3    H124937   1.772   6.019  11.719 -0.7638 -3.4509 -0.8886
 1174TIP3    H224938   1.909   6.020  11.656 -0.3660  0.7762 -0.2672
 1175TIP3   OH224939   1.069   5.366  14.295 -0.3575 -0.3910  0.2493
 1175TIP3    H124940   1.154   5.362  14.339 -1.2302 -3.5139  1.9765
 1175TIP3    H224941   1.089   5.350  14.203  0.9162 -1.2996  0.6519
 1176TIP3   OH224942   1.684   0.722  13.431 -0.3973 -0.5459  0.6050
 1176TIP3    H124943   1.766   0.757  13.465 -1.3799  2.6190  0.0673
 1176TIP3    H224944   1.626   0.798  13.425 -2.0326 -1.8378 -2.9524
 1177TIP3   OH224945   2.457   1.681   4.097 -0.2126  0.4494  0.2432
 1177TIP3    H124946   2.507   1.600   4.099 -1.5023 -0.3499  1.7646
 1177TIP3    H224947   2.401   1.673   4.019  0.4614  0.4081 -0.2486
 1178TIP3   OH224948   4.740   5.310  16.205 -0.2074  0.4249 -0.4786
 1178TIP3    H124949   4.744   5.314  16.110 -1.5371  1.0609 -0.5313
 1178TIP3    H224950   4.791   5.385  16.235  0.7735 -0.1498 -0.6441
 1179TIP3   OH224951   5.942   1.041   2.440 -0.3690  0.5596 -0.7103
 1179TIP3    H124952   5.951   1.131   2.471 -1.5183 -0.0456  1.5985
 1179TIP3    H224953   5.850   1.019   2.456 -0.3450 -0.7168 -2.1398
 1180TIP3   OH224954   4.846   0.610   2.628  0.0668  0.3767 -0.3289
 1180TIP3    H124955   4.900   0.531   2.633  1.5188  1.2590 -1.1842
 1180TIP3    H224956   4.781   0.590   2.560 -0.1688 -0.4056  0.1174
 1181TIP3   OH224957   2.353   4.834   5.248 -0.0111  0.2628  0.4111
 1181TIP3    H124958   2.338   4.754   5.196 -2.3897  1.4266 -0.8777
 1181TIP3    H224959   2.344   4.905   5.184  1.9077  1.6160  1.5537
 1182TIP3   OH224960   4.823   3.969   0.739 -0.4014  0.8136  0.6969
 1182TIP3    H124961   4.740   3.998   0.777 -0.9071  0.6282 -0.2456
 1182TIP3    H224962   4.850   4.041   0.682 -1.9354 -0.6568 -2.0740
 1183TIP3   OH224963   5.592   5.916  15.626 -0.1151 -0.2407 -0.4346
 1183TIP3    H124964   5.644   5.995  15.642  0.6007 -0.4401 -1.6443
 1183TIP3    H224965   5.650   5.844  15.648 -0.3424 -0.4530 -0.5233
 1184TIP3   OH224966   2.506   4.392  13.545  0.2260 -0.4538 -0.4308
 1184TIP3    H124967   2.468   4.480  13.544 -0.8220 -0.8914 -0.4330
 1184TIP3    H224968   2.523   4.375  13.637 -2.2272 -1.3171 -0.0552
 1185TIP3   OH224969   2.316   1.260  15.135  0.1538  0.0512 -0.0687
 1185TIP3    H124970   2.240   1.317  15.119  0.7949  0.9989  0.2043
 1185TIP3    H224971   2.300   1.184  15.079 -0.9503  0.2763 -0.0900
 1186TIP3   OH224972   6.323   2.047   4.812  0.2821  0.4029 -0.2778
 1186TIP3    H124973   6.410   2.078   4.788  0.3583  1.4605  1.2399
 1186TIP3    H224974   6.280   2.032   4.728  1.0197  2.5399 -1.1266
 1187TIP3   OH224975   0.862   0.392  16.700  0.4891 -0.3973  0.5014
 1187TIP3    H124976   0.949   0.424  16.726  0.1564 -0.0188  1.1610
 1187TIP3    H224977   0.873   0.297  16.695  0.6515 -0.4609  1.7504
 1188TIP3   OH224978   2.594   4.069  16.821 -0.0084  0.5995  0.2962
 1188TIP3    H124979   2.527   4.090  16.886  1.0025  2.4184  0.8518
 1188TIP3    H224980   2.672   4.049  16.873  0.1474 -0.5227 -0.3448
 1189TIP3   OH224981   0.222   0.441   5.333  0.3097  0.1446 -0.7113
 1189TIP3    H124982   0.223   0.535   5.355 -0.6479  0.6151 -2.4994
 1189TIP3    H224983   0.135   0.411   5.360  0.2525  0.0116 -1.0434
 1190TIP3   OH224984   3.563   1.330  13.083  0.6068  0.3879  0.0347
 1190TIP3    H124985   3.545   1.241  13.112  0.5928  0.7945  1.3454
 1190TIP3    H224986   3.488   1.353  13.029 -0.1811  0.1601  1.0000
 1191TIP3   OH224987   2.674   0.717   2.509 -0.2187 -0.6374 -0.0554
 1191TIP3    H124988   2.669   0.809   2.486  0.1756 -0.2161  1.4816
 1191TIP3    H224989   2.583   0.686   2.505 -0.4116 -0.0692 -0.0895
 1192TIP3   OH224990   4.848   0.065   2.212 -0.1613 -0.0415 -0.6543
 1192TIP3    H124991   4.850  -0.024   2.177 -0.5224 -0.1262 -0.4708
 1192TIP3    H224992   4.785   0.061   2.284  1.3939 -0.1282  0.7499
 1193TIP3   OH224993   6.000   3.300   3.198  0.1663 -0.5207  0.0505
 1193TIP3    H124994   5.954   3.231   3.247 -0.3631 -1.8585 -2.1868
 1193TIP3    H224995   5.932   3.362   3.173  0.5150  0.4287  1.3614
 1194TIP3   OH224996   0.544   4.899   2.518  0.0863  0.1679  0.1539
 1194TIP3    H124997   0.508   4.903   2.607  2.4901 -1.4020  1.3102
 1194TIP3    H224998   0.619   4.959   2.520 -1.2768  2.0503 -1.6488
 1195TIP3   OH224999   5.764   4.486   2.501  0.1595  1.0622  0.0366
 1195TIP3    H125000   5.685   4.433   2.492 -0.2483  1.6158  0.3089
 1195TIP3    H225001   5.763   4.516   2.592  3.4563 -3.2801  1.8323
 1196TIP3   OH225002   5.477   4.961   0.507 -0.0854  0.1340  0.4154
 1196TIP3    H125003   5.390   5.000   0.515 -0.9588 -1.7570  0.7142
 1196TIP3    H225004   5.498   4.933   0.596  0.1501 -0.7801  0.0795
 1197TIP3   OH225005   6.737   6.632   1.950  0.0989  0.0111  0.2849
 1197TIP3    H125006   6.705   6.551   1.989  0.4838 -0.5947 -0.6224
 1197TIP3    H225007   6.782   6.604   1.870  3.8286  0.6661  1.9448
 1198TIP3   OH225008   4.475   3.521  12.623  0.2456 -0.6221  0.6492
 1198TIP3    H125009   4.395   3.537  12.673 -0.7549 -1.1828 -0.7260
 1198TIP3    H225010   4.492   3.428  12.633 -1.2903 -1.2637 -1.8527
 1199TIP3   OH225011   6.126   5.915   0.212  0.0619  1.2195 -0.1675
 1199TIP3    H125012   6.141   5.832   0.257  1.3344  1.1369 -0.6722
 1199TIP3    H225013   6.033   5.932   0.221 -0.1919 -0.2055  0.0595
 1200TIP3   OH225014   5.499   3.967  15.805  0.0073 -0.0179 -0.2468
 1200TIP3    H125015   5.577   3.921  15.835  0.2406 -0.1366 -1.0044
 1200TIP3    H225016   5.449   3.901  15.758  1.3126  0.8673 -3.1334
 1201TIP3   OH225017   2.069   3.668   2.464  0.2239 -0.3528  0.5242
 1201TIP3    H125018   2.108   3.630   2.543  2.0203  0.5341  0.1166
 1201TIP3    H225019   2.050   3.759   2.487  3.6120  0.8732 -0.8261
 1202TIP3   OH225020   5.432   2.930   4.528 -0.3533  0.2797  0.2331
 1202TIP3    H125021   5.511   2.877   4.521 -0.7956 -0.4062  0.2927
 1202TIP3    H225022   5.428   2.957   4.619  0.2006  0.9400  0.0666
 1203TIP3   OH225023   6.346   2.700   0.676  0.0550  0.1664 -0.0241
 1203TIP3    H125024   6.335   2.676   0.768  0.0316  0.1576 -0.0292
 1203TIP3    H225025   6.434   2.737   0.671  0.8203 -1.6190 -0.3809
 1204TIP3   OH225026   6.543   2.049   3.019  0.1862 -0.5212 -0.1039
 1204TIP3    H125027   6.540   2.015   2.930 -0.3300 -0.9560  0.0717
 1204TIP3    H225028   6.590   1.982   3.069 -0.2283 -0.6614  0.1057
 1205TIP3   OH225029   4.035   4.439  15.241  0.4902  0.2336 -0.0338
 1205TIP3    H125030   4.059   4.438  15.334  1.4700 -3.4985 -0.1620
 1205TIP3    H225031   4.052   4.529  15.213 -0.1607  1.6153  3.4045
 1206TIP3   OH225032   2.930   5.575   5.423  0.5510  0.3567 -0.6293
 1206TIP3    H125033   2.958   5.501   5.477  1.0391  2.5858  2.4370
 1206TIP3    H225034   3.002   5.638   5.429 -0.4381  1.6959 -1.9199
 1207TIP3   OH225035   5.425   4.646  14.023  0.1583 -0.1775 -0.1124
 1207TIP3    H125036   5.349   4.589  14.022  0.3284 -0.3913 -0.9028
 1207TIP3    H225037   5.434   4.677  13.933  0.0383  1.1356  0.3056
 1208TIP3   OH225038   4.352   3.821   2.036  0.4368 -0.5493  0.1706
 1208TIP3    H125039   4.343   3.910   2.002 -2.2816 -1.0382 -0.5742
 1208TIP3    H225040   4.400   3.774   1.968 -0.0650 -0.1832 -0.4389
 1209TIP3   OH225041   2.906   2.095   5.948 -0.9014  0.0825 -0.2623
 1209TIP3    H125042   2.975   2.148   5.988  0.7384 -2.4944  0.6101
 1209TIP3    H225043   2.852   2.066   6.022  0.6846 -2.6735 -0.0076
 1210TIP3   OH225044   5.861   3.218  17.091 -0.5570 -0.0448  0.5065
 1210TIP3    H125045   5.950   3.232  17.125  0.1553 -0.2902 -1.1345
 1210TIP3    H225046   5.870   3.229  16.996 -2.2390 -0.3860  0.2745
 1211TIP3   OH225047   0.679   5.252   5.136  0.4706 -0.3616 -0.2199
 1211TIP3    H125048   0.728   5.198   5.199  0.5332 -0.8067 -0.6427
 1211TIP3    H225049   0.609   5.195   5.104  0.3321 -0.0806 -0.4250
 1212TIP3   OH225050   5.447   2.275  11.454  0.1570 -0.4711  0.1902
 1212TIP3    H125051   5.450   2.191  11.408 -0.0789 -0.1660 -0.4004
 1212TIP3    H225052   5.526   2.321  11.425 -1.4911  0.9641 -2.4025
 1213TIP3   OH225053   5.580   2.024   1.723  0.0508  0.3032  0.5881
 1213TIP3    H125054   5.494   2.017   1.682 -0.1713  0.6651  0.9867
 1213TIP3    H225055   5.567   1.994   1.813  0.3723  0.2303  0.6129
 1214TIP3   OH225056   5.587   3.419   0.030 -0.8172  0.3249  0.9523
 1214TIP3    H125057   5.583   3.334   0.075  1.2471 -0.6278 -0.5096
 1214TIP3    H225058   5.680   3.431   0.011 -1.3475  1.7543 -1.0292
 1215TIP3   OH225059   5.842   3.493   3.105  0.2545  0.0772  0.2019
 1215TIP3    H125060   5.750   3.512   3.123  0.4700  1.7584 -0.3000
 1215TIP3    H225061   5.840   3.435   3.029 -0.3935  2.6600 -1.9019
 1216TIP3   OH225062   0.821   1.719   6.104 -0.3311 -0.3678 -0.0849
 1216TIP3    H125063   0.891   1.660   6.076 -0.4042 -0.9707  0.9495
 1216TIP3    H225064   0.862   1.774   6.170 -0.9947 -1.2357  1.0952
 1217TIP3   OH225065   5.943   2.553  16.157  0.5578  0.0208 -0.0453
 1217TIP3    H125066   5.968   2.631  16.108  0.3470  0.7564  0.9801
 1217TIP3    H225067   5.853   2.569  16.184  0.2707 -0.8932 -0.3991
 1218TIP3   OH225068   0.395   2.926   3.073 -0.0954 -0.3141 -0.4123
 1218TIP3    H125069   0.473   2.914   3.126  0.2669  0.2028 -0.8112
 1218TIP3    H225070   0.352   2.840   3.071  0.3867 -0.5618 -0.0765
 1219TIP3   OH225071   1.227   1.987  13.744 -0.3572  0.4204  0.1640
 1219TIP3    H125072   1.150   2.044  13.748 -0.1514  0.6630  0.6761
 1219TIP3    H225073   1.228   1.956  13.653 -3.0052 -2.2892  0.8850
 1220TIP3   OH225074   2.986   1.285   1.502  0.3586  0.3849  0.1289
 1220TIP3    H125075   2.994   1.376   1.529 -0.1187  0.0581  1.4679
 1220TIP3    H225076   2.928   1.287   1.426  1.6026  1.3285 -0.8423
 1221TIP3   OH225077   0.908   3.246   0.672  0.5368  0.3224 -0.4405
 1221TIP3    H125078   0.899   3.339   0.695 -0.7366  0.0188  0.4500
 1221TIP3    H225079   0.826   3.225   0.628  0.0321 -0.7734  0.9301
 1222TIP3   OH225080   1.993   1.747   5.078 -0.1325  0.0518 -0.7578
 1222TIP3    H125081   2.013   1.808   5.148  0.7343 -2.0055  0.8811
 1222TIP3    H225082   1.930   1.794   5.022 -1.7421  1.3837  1.9755
 1223TIP3   OH225083   6.391   5.554  16.130 -0.2199  0.0709 -0.3253
 1223TIP3    H125084   6.396   5.573  16.224 -1.6640 -0.7384 -0.0555
 1223TIP3    H225085   6.458   5.610  16.091 -0.2109  1.1102  1.0868
 1224TIP3   OH225086   5.894   6.186   4.339 -0.2775 -0.0704  0.0080
 1224TIP3    H125087   5.848   6.232   4.268 -0.0846  1.4528  0.8398
 1224TIP3    H225088   5.966   6.244   4.363  0.0310 -0.8559  1.0419
 1225TIP3   OH225089   4.931   0.442  10.231 -0.2084 -0.3201  0.2020
 1225TIP3    H125090   5.016   0.409  10.259 -0.5541 -0.0685  1.6257
 1225TIP3    H225091   4.887   0.467  10.312 -0.9064  1.3488 -0.6413
 1226TIP3   OH225092   2.903   2.397  14.798  0.1913 -0.1091  0.0048
 1226TIP3    H125093   2.963   2.470  14.785  0.1578 -0.0539  0.1657
 1226TIP3    H225094   2.924   2.336  14.727  0.4045 -0.0671  0.0304
 1227TIP3   OH225095   2.531   3.432  13.794 -0.0506 -0.3340  0.7413
 1227TIP3    H125096   2.502   3.479  13.872 -1.2124 -1.6551  1.1649
 1227TIP3    H225097   2.481   3.471  13.722 -2.6226 -2.1668  1.3757
 1228TIP3   OH225098   1.278   2.967  14.929 -0.3064  0.2873  0.4251
 1228TIP3    H125099   1.366   2.930  14.917 -0.5028 -1.1259  2.7870
 1228TIP3    H225100   1.279   3.002  15.019 -2.4898 -0.7994  0.9154
 1229TIP3   OH225101   1.857   5.940   0.083  0.5396 -0.1755 -0.3163
 1229TIP3    H125102   1.825   5.925   0.173  0.2764 -1.6045 -0.6152
 1229TIP3    H225103   1.950   5.916   0.087  0.7573  0.6546 -0.2298
 1230TIP3   OH225104   2.073   6.571   2.191  0.4411  0.0309  0.3375
 1230TIP3    H125105   2.038   6.493   2.147  0.3347 -0.0826  0.6209
 1230TIP3    H225106   2.078   6.546   2.283 -1.3371  0.9534  0.7364
 1231TIP3   OH225107   5.992   5.563   4.827  0.0307  0.1397  0.6667
 1231TIP3    H125108   6.026   5.639   4.780 -0.3672  0.3423  0.6945
 1231TIP3    H225109   5.901   5.557   4.799 -0.2499  0.3336  1.4951
 1232TIP3   OH225110   2.673   3.565   2.631  0.2601  0.3273 -0.1139
 1232TIP3    H125111   2.649   3.559   2.539  1.7585 -0.0018 -0.5096
 1232TIP3    H225112   2.769   3.568   2.631  0.3175 -0.3686  1.4562
 1233TIP3   OH225113   4.584   4.390   2.853  0.1761  0.4646 -0.2369
 1233TIP3    H125114   4.536   4.436   2.922 -0.2892  0.0059 -0.2516
 1233TIP3    H225115   4.676   4.393   2.882 -0.2025 -1.3081  1.3488
 1234TIP3   OH225116   6.787   0.818  12.441 -0.2108 -0.3280  0.3637
 1234TIP3    H125117   6.827   0.893  12.397  0.7027 -0.4488  0.9685
 1234TIP3    H225118   6.764   0.758  12.370 -1.8487  0.9073 -0.2301
 1235TIP3   OH225119   6.226   2.792   2.201  0.0015 -0.2849 -0.1771
 1235TIP3    H125120   6.217   2.839   2.118 -2.9239  2.6688  1.5306
 1235TIP3    H225121   6.293   2.841   2.248 -0.7178  0.2009  0.3750
 1236TIP3   OH225122   4.106   0.764   4.927 -0.4339 -0.1290  0.4958
 1236TIP3    H125123   4.129   0.717   5.007  0.7590  0.7879  0.7197
 1236TIP3    H225124   4.187   0.767   4.876  0.3177  3.7980  1.5970
 1237TIP3   OH225125   6.630   4.023  16.606  0.9744  0.2134 -0.2500
 1237TIP3    H125126   6.711   3.972  16.613 -0.7439 -2.5671  1.3366
 1237TIP3    H225127   6.611   4.024  16.512  0.0573 -4.1718 -0.3243
 1238TIP3   OH225128   2.675   1.111   3.496  0.2327  0.0540  0.3712
 1238TIP3    H125129   2.611   1.103   3.425  1.3670 -0.3083 -0.6320
 1238TIP3    H225130   2.751   1.062   3.466  1.3806  1.3036  1.0941
 1239TIP3   OH225131   2.752   4.637   4.936 -0.2794 -1.0523 -0.0193
 1239TIP3    H125132   2.678   4.696   4.947  0.4938  0.2196 -1.2818
 1239TIP3    H225133   2.826   4.684   4.973  0.0150 -2.0858  0.7484
 1240TIP3   OH225134   5.491   1.747  14.274 -0.7921  0.4030 -0.6429
 1240TIP3    H125135   5.559   1.790  14.326 -1.0925  0.7536 -0.5344
 1240TIP3    H225136   5.466   1.671  14.326 -1.1124  0.7702 -0.2507
 1241TIP3   OH225137   5.030   1.598  14.219 -0.0693  0.1855  0.1273
 1241TIP3    H125138   5.089   1.658  14.174 -1.2622  0.7969 -0.6638
 1241TIP3    H225139   5.027   1.521  14.163  1.7857 -0.8516  1.3466
 1242TIP3   OH225140   2.693   3.210   4.274  0.5549  0.0874 -0.1323
 1242TIP3    H125141   2.708   3.206   4.369  0.1176  1.9261  0.0582
 1242TIP3    H225142   2.723   3.126   4.241  0.0780 -0.8571  1.7288
 1243TIP3   OH225143   2.953   1.462   5.346  0.0633  0.2281 -0.0275
 1243TIP3    H125144   2.934   1.377   5.386  0.1540 -1.7354 -3.6692
 1243TIP3    H225145   3.047   1.462   5.332 -0.1716 -0.0650 -1.8686
 1244TIP3   OH225146   6.242   5.701  16.411  0.1242 -0.1173  0.2924
 1244TIP3    H125147   6.216   5.769  16.349 -0.4426  1.0425  1.7125
 1244TIP3    H225148   6.331   5.725  16.437  0.1545 -0.2683  0.3293
 1245TIP3   OH225149   0.565   2.225  13.501  0.0818 -0.5461  0.2768
 1245TIP3    H125150   0.579   2.171  13.423 -0.1898 -1.4420  0.8304
 1245TIP3    H225151   0.624   2.299  13.490  1.6399 -1.7464  0.2200
 1246TIP3   OH225152   1.228   0.793   5.076 -0.1608  0.4969 -0.5122
 1246TIP3    H125153   1.279   0.738   5.136 -0.9763  0.6645  0.3635
 1246TIP3    H225154   1.170   0.844   5.133 -0.2881  1.3735 -1.3856
 1247TIP3   OH225155   3.290   3.971   5.059  0.2917  0.5222 -0.1726
 1247TIP3    H125156   3.282   3.959   4.965 -0.1100 -1.8064  0.0891
 1247TIP3    H225157   3.212   4.020   5.084 -1.9192 -2.5281 -0.5707
 1248TIP3   OH225158   4.259   6.291  14.151  0.1410 -0.1867 -0.1857
 1248TIP3    H125159   4.345   6.327  14.170 -0.4763  0.5311  1.3884
 1248TIP3    H225160   4.221   6.351  14.087  0.9514 -0.7509 -1.2284
 1249TIP3   OH225161   4.856   6.400  16.952  0.4105  0.0213  0.3260
 1249TIP3    H125162   4.879   6.459  17.024  0.6033 -0.4497  0.6500
 1249TIP3    H225163   4.862   6.456  16.874 -0.0302  0.5926  0.6915
 1250TIP3   OH225164   0.916   3.786  14.270  0.4721 -0.4273  0.0279
 1250TIP3    H125165   0.918   3.843  14.347 -0.8173  0.4225 -0.5313
 1250TIP3    H225166   0.834   3.809  14.225  1.1187 -1.0036 -1.5185
 1251TIP3   OH225167   4.579   1.254   0.355 -0.1355 -0.3273 -0.3577
 1251TIP3    H125168   4.603   1.163   0.375  0.4638 -0.2347 -0.6134
 1251TIP3    H225169   4.484   1.253   0.349 -0.0791 -1.1900 -1.5403
 1252TIP3   OH225170   1.021   1.835  16.026  0.0170 -0.3076 -0.5365
 1252TIP3    H125171   0.925   1.834  16.016  0.1074  0.9980 -2.0629
 1252TIP3    H225172   1.044   1.744  16.047 -1.5807 -0.5569  0.2939
 1253TIP3   OH225173   3.662   4.036   1.811  0.4522  0.2897  0.2013
 1253TIP3    H125174   3.648   4.083   1.893 -0.1707 -1.0178  0.8731
 1253TIP3    H225175   3.719   3.963   1.834  1.0799  0.4669 -0.7417
 1254TIP3   OH225176   5.809   1.985  10.637  0.2073 -0.6026 -0.2528
 1254TIP3    H125177   5.864   2.018  10.708  0.0903 -0.4678 -0.2240
 1254TIP3    H225178   5.871   1.942  10.577  0.3044 -0.7286 -0.0651
 1255TIP3   OH225179   2.717   5.644   3.100 -0.5213  0.2969  0.0921
 1255TIP3    H125180   2.804   5.679   3.120 -1.0854  1.0399  1.4367
 1255TIP3    H225181   2.725   5.550   3.113  1.0359 -0.2254 -3.5863
 1256TIP3   OH225182   3.706   2.687   2.370  0.2041  0.1861  0.1241
 1256TIP3    H125183   3.708   2.760   2.431  1.1210  0.2371  0.0443
 1256TIP3    H225184   3.794   2.685   2.331  0.4522 -1.3955  0.6515
 1257TIP3   OH225185   0.147   3.656   2.668  1.2999 -0.1102  0.1192
 1257TIP3    H125186   0.061   3.615   2.665  1.0219  0.4859 -0.6039
 1257TIP3    H225187   0.171   3.658   2.760  0.2119  0.3600  0.4053
 1258TIP3   OH225188   0.005   3.531   5.306  0.0824  0.2430 -0.6620
 1258TIP3    H125189  -0.043   3.472   5.363  0.8366 -0.7205 -0.9854
 1258TIP3    H225190  -0.043   3.530   5.224  0.2089 -0.1115 -0.7359
 1259TIP3   OH225191   5.755   5.891  12.749  0.3982 -0.2599 -0.3141
 1259TIP3    H125192   5.809   5.858  12.821  0.5279 -2.0807 -1.1856
 1259TIP3    H225193   5.804   5.868  12.670 -0.5342  0.1956 -1.0407
 1260TIP3   OH225194   6.482   5.318   4.149 -0.3972 -0.2200  0.5033
 1260TIP3    H125195   6.401   5.267   4.143  0.0898 -1.1742  1.6042
 1260TIP3    H225196   6.461   5.389   4.209 -0.6744  0.0494  0.0871
 1261TIP3   OH225197   0.040   2.384   0.450  0.9750 -0.0903  0.0662
 1261TIP3    H125198   0.123   2.422   0.479  1.9587 -1.0229 -1.3821
 1261TIP3    H225199   0.013   2.437   0.375 -0.0564  0.5564  0.8739
 1262TIP3   OH225200   4.468   4.678  16.508 -0.5979 -0.2373  0.4440
 1262TIP3    H125201   4.550   4.629  16.504 -0.7553 -0.4914  0.2996
 1262TIP3    H225202   4.441   4.687  16.417 -0.2846  0.6088  0.4203
 1263TIP3   OH225203   4.982   4.645   6.589 -0.3505 -0.1868  0.7738
 1263TIP3    H125204   4.912   4.710   6.585 -1.7224 -1.6541  0.4547
 1263TIP3    H225205   4.947   4.568   6.544  1.7305 -0.7235 -0.0477
 1264TIP3   OH225206   6.019   0.893   5.985  0.5008  1.2905 -0.2132
 1264TIP3    H125207   5.924   0.891   5.994  0.4680  1.3250 -0.5598
 1264TIP3    H225208   6.047   0.802   5.998  0.3343  1.1124 -1.0863
 1265TIP3   OH225209   0.754   4.463   4.102  0.2457  0.1286  0.6066
 1265TIP3    H125210   0.840   4.485   4.064  0.0531  0.5554  0.4110
 1265TIP3    H225211   0.739   4.372   4.076  0.6030  0.0744  0.5770
 1266TIP3   OH225212   5.120   4.073   4.716  0.1637  0.2320 -0.2917
 1266TIP3    H125213   5.153   4.159   4.741 -1.4189  0.6361  0.5036
 1266TIP3    H225214   5.170   4.050   4.637  1.2574  1.4462  0.0124
 1267TIP3   OH225215   2.505   0.834   4.284 -0.2061 -0.3234  0.5311
 1267TIP3    H125216   2.496   0.741   4.305 -0.2631 -0.4377  0.0239
 1267TIP3    H225217   2.577   0.837   4.221  0.9906  0.1833  1.8668
 1268TIP3   OH225218   1.695   0.398  16.513 -0.2115 -0.4861  0.3518
 1268TIP3    H125219   1.718   0.429  16.600  0.1326  1.8255 -0.4801
 1268TIP3    H225220   1.764   0.433  16.456 -1.0520 -0.9373 -0.9861
 1269TIP3   OH225221   0.727   4.501  12.146  0.2954 -0.4087 -0.0960
 1269TIP3    H125222   0.808   4.550  12.132  0.7509 -1.2474 -0.4902
 1269TIP3    H225223   0.756   4.416  12.178 -0.4648 -0.5258  0.3063
 1270TIP3   OH225224   0.239   0.761   3.441  0.2321  0.0982  0.4987
 1270TIP3    H125225   0.311   0.817   3.410 -0.3631  0.3218 -0.5251
 1270TIP3    H225226   0.223   0.700   3.369 -0.0420 -0.5034  1.0589
 1271TIP3   OH225227   2.915   1.227   5.837  0.0238 -0.2238  0.1209
 1271TIP3    H125228   2.976   1.224   5.763 -1.1529 -1.3189 -0.8328
 1271TIP3    H225229   2.959   1.177   5.906 -0.7139 -3.0656 -1.3317
 1272TIP3   OH225230   4.616   0.470  16.094 -0.0537  0.1477  0.3908
 1272TIP3    H125231   4.647   0.408  16.028  0.0657  0.6377 -0.0178
 1272TIP3    H225232   4.539   0.428  16.132 -1.1945  0.5872 -1.2734
 1273TIP3   OH225233   1.576   4.170   6.059 -0.2486  0.0031  0.0781
 1273TIP3    H125234   1.566   4.108   6.131  1.2220  0.4017  0.6644
 1273TIP3    H225235   1.504   4.232   6.072 -0.0458  0.0388  1.1929
 1274TIP3   OH225236   6.346   2.893  16.031 -0.0289 -0.2329  0.0436
 1274TIP3    H125237   6.387   2.844  15.960 -1.8612 -2.4364  0.3772
 1274TIP3    H225238   6.306   2.826  16.086 -1.5540  1.6046  1.3042
 1275TIP3   OH225239   6.162   0.302   3.191 -0.1782  0.1661  0.6414
 1275TIP3    H125240   6.222   0.228   3.180  0.3879  0.8755 -1.5237
 1275TIP3    H225241   6.075   0.261   3.197  0.1965 -0.7144  0.2833
 1276TIP3   OH225242   6.576   4.504  13.897  0.3510 -0.0341 -0.2743
 1276TIP3    H125243   6.484   4.515  13.871  0.0107 -0.3664  0.7470
 1276TIP3    H225244   6.613   4.446  13.830 -0.6643 -1.3899  0.2898
 1277TIP3   OH225245   6.499   5.431  12.947 -0.3198  0.1599 -0.3509
 1277TIP3    H125246   6.467   5.380  13.021 -3.3457  0.1650 -1.4930
 1277TIP3    H225247   6.527   5.366  12.883  1.3725  0.1406  0.3582
 1278TIP3   OH225248   6.734   0.871  11.567  0.4629  0.4411  0.2833
 1278TIP3    H125249   6.658   0.919  11.534  1.0569  0.1583 -1.6281
 1278TIP3    H225250   6.702   0.783  11.584  0.3208  0.3522 -0.4133
 1279TIP3   OH225251   4.018   2.683  14.154  0.6421 -0.7091 -0.2038
 1279TIP3    H125252   4.106   2.654  14.175  0.6856 -0.6416 -0.2923
 1279TIP3    H225253   4.028   2.774  14.126  0.4117 -0.3348  0.8503
 1280TIP3   OH225254   6.147   6.525  13.238 -0.2641  0.2231 -0.0172
 1280TIP3    H125255   6.133   6.620  13.231 -1.1212  0.2011  1.0115
 1280TIP3    H225256   6.097   6.500  13.316 -0.7212 -1.2090 -0.7415
 1281TIP3   OH225257   1.008   1.392   0.790  0.1702 -0.0833 -0.5453
 1281TIP3    H125258   1.059   1.403   0.710 -1.8945 -0.9624 -2.0771
 1281TIP3    H225259   0.921   1.426   0.768 -0.2037  0.5379  1.6608
 1282TIP3   OH225260   1.274   5.735   2.159 -0.5779 -0.0116  0.2039
 1282TIP3    H125261   1.265   5.754   2.252 -0.0061 -1.5892  0.6149
 1282TIP3    H225262   1.353   5.681   2.153 -1.2536 -0.9189 -1.0280
 1283TIP3   OH225263   6.728   6.217   5.109  0.5743  0.4363  0.2191
 1283TIP3    H125264   6.654   6.229   5.049  1.3833  0.4407 -0.8036
 1283TIP3    H225265   6.798   6.269   5.071  0.9652  0.8205  1.4472
 1284TIP3   OH225266   2.349   0.721  12.218 -0.0397 -0.6753  0.4637
 1284TIP3    H125267   2.378   0.690  12.303 -0.8206 -2.7176  0.0569
 1284TIP3    H225268   2.414   0.688  12.156  1.1281  1.7253  0.3188
 1285TIP3   OH225269   0.815   5.161  13.353 -0.0707 -0.4293  0.1502
 1285TIP3    H125270   0.891   5.183  13.300  0.5290 -1.4013  0.5811
 1285TIP3    H225271   0.830   5.205  13.437  0.5806 -1.5198  0.6230
 1286TIP3   OH225272   5.603   1.618   1.992 -0.4390 -0.0012 -0.1238
 1286TIP3    H125273   5.596   1.580   1.904  0.8971  0.6840 -0.5552
 1286TIP3    H225274   5.695   1.641   2.001 -1.3234  5.0611 -0.7993
 1287TIP3   OH225275   3.732   0.402  11.164 -0.2367  0.1239 -0.4070
 1287TIP3    H125276   3.722   0.323  11.111  0.7624  0.4178 -1.0491
 1287TIP3    H225277   3.678   0.385  11.242 -0.8013 -0.7835 -0.9773
 1288TIP3   OH225278   2.603   6.747  11.996  0.0643 -0.4068 -0.0249
 1288TIP3    H125279   2.689   6.787  12.003  0.4405 -1.4295  2.1230
 1288TIP3    H225280   2.606   6.673  12.057 -1.4578 -2.1004 -1.8803
 1289TIP3   OH225281   6.296   0.103  14.697 -0.3251 -0.0157 -0.1235
 1289TIP3    H125282   6.328   0.124  14.610  1.9119  0.6418  0.7728
 1289TIP3    H225283   6.257   0.016  14.689  0.3067 -0.1829 -1.6618
 1290TIP3   OH225284   2.137   3.709   3.290 -0.0169 -0.1655 -0.2204
 1290TIP3    H125285   2.093   3.628   3.316  0.3267  0.0745  1.1944
 1290TIP3    H225286   2.230   3.686   3.286 -0.0456 -0.1654 -1.1854
 1291TIP3   OH225287   1.082   2.819  13.412 -0.2903 -0.4086 -0.0671
 1291TIP3    H125288   1.165   2.841  13.369  0.8547 -3.4942  0.3126
 1291TIP3    H225289   1.098   2.838  13.505 -1.1677  1.9028 -0.3263
 1292TIP3   OH225290   3.642   1.459   1.820 -0.1634 -0.7130  0.0800
 1292TIP3    H125291   3.609   1.528   1.762 -1.1725 -0.9571  0.3291
 1292TIP3    H225292   3.592   1.382   1.794  2.0869 -1.8041 -1.3040
 1293TIP3   OH225293   2.823   4.466  13.317  0.1286 -0.6352 -0.0576
 1293TIP3    H125294   2.787   4.379  13.335 -0.7235 -0.6513 -1.6521
 1293TIP3    H225295   2.786   4.522  13.385  1.2158 -1.6084  1.3982
 1294TIP3   OH225296   2.599   1.238   6.083 -0.0078  0.2823 -0.0435
 1294TIP3    H125297   2.579   1.326   6.112  1.0836  0.3697  0.5088
 1294TIP3    H225298   2.668   1.208   6.142  0.8565 -0.2887 -1.2872
 1295TIP3   OH225299   6.781   4.266  15.303  0.4493 -0.4978 -0.3102
 1295TIP3    H125300   6.763   4.188  15.251 -0.0589 -1.0378  0.6441
 1295TIP3    H225301   6.704   4.276  15.359  1.1049 -0.1196  0.5507
 1296TIP3   OH225302   1.711   4.255   0.601 -0.2094  0.1676 -0.1979
 1296TIP3    H125303   1.688   4.228   0.512 -1.0704  0.8670 -0.2040
 1296TIP3    H225304   1.701   4.350   0.601 -0.3336  0.1665  0.6681
 1297TIP3   OH225305   4.130   4.650  13.026  0.7485  0.8405  0.1985
 1297TIP3    H125306   4.196   4.631  13.093 -0.3996 -0.2974  1.0703
 1297TIP3    H225307   4.057   4.592  13.048 -0.0850  1.2153 -1.4301
 1298TIP3   OH225308   0.780   2.489   2.480  0.0185  0.1563 -0.3945
 1298TIP3    H125309   0.750   2.555   2.417 -0.5459  0.5266  0.2525
 1298TIP3    H225310   0.711   2.487   2.546 -0.2728 -1.5364 -0.7222
 1299TIP3   OH225311   4.226   1.578   1.761  0.8303  0.2132  0.0089
 1299TIP3    H125312   4.149   1.535   1.799  1.2188  0.3304  0.9554
 1299TIP3    H225313   4.236   1.658   1.813  2.0147 -0.1604  0.3645
 1300TIP3   OH225314   6.049   5.581   5.648 -0.1488 -0.2288 -0.1268
 1300TIP3    H125315   5.986   5.520   5.687  0.4237  0.0370  1.2689
 1300TIP3    H225316   6.095   5.619   5.723  2.6451 -1.4166 -1.0930
 1301TIP3   OH225317   4.468   0.267  10.149 -0.1867  0.4225  0.5058
 1301TIP3    H125318   4.552   0.292  10.112  0.2230  0.2952  1.3139
 1301TIP3    H225319   4.480   0.176  10.177 -1.1007 -0.1310 -0.8015
 1302TIP3   OH225320   3.699   5.875   1.818 -0.1352 -0.3896 -0.1963
 1302TIP3    H125321   3.607   5.890   1.840 -0.4794  0.7845 -2.2360
 1302TIP3    H225322   3.697   5.805   1.753  0.3076  0.2992 -0.9638
 1303TIP3   OH225323   3.829   1.972   3.777  0.4062  0.4177  0.2230
 1303TIP3    H125324   3.804   2.031   3.847  1.7967  1.6643 -0.2936
 1303TIP3    H225325   3.904   2.013   3.735 -0.8558  0.1490 -2.5516
 1304TIP3   OH225326   2.359   4.348  12.236  0.0221 -0.2628 -0.0387
 1304TIP3    H125327   2.278   4.353  12.185 -1.0368  1.3997  1.6851
 1304TIP3    H225328   2.357   4.425  12.293  2.1445 -0.9266  1.0635
 1305TIP3   OH225329   2.960   4.677  13.015  0.0385 -0.5386  0.6139
 1305TIP3    H125330   2.960   4.661  12.920 -0.6835 -1.4843  0.7545
 1305TIP3    H225331   2.882   4.730  13.031  0.9572  0.8711  0.5026
 1306TIP3   OH225332   3.313   2.162  11.459 -0.6211  0.6296  0.5024
 1306TIP3    H125333   3.295   2.098  11.528 -0.9347  1.3358  1.0843
 1306TIP3    H225334   3.407   2.156  11.444 -0.9443 -1.8283 -1.3064
 1307TIP3   OH225335   2.700   2.309  14.262  0.0535 -0.2961  0.2579
 1307TIP3    H125336   2.751   2.231  14.284  1.3257  0.5759  0.4885
 1307TIP3    H225337   2.682   2.300  14.169 -0.8931 -1.4576  0.5241
 1308TIP3   OH225338   5.783   1.675  16.076 -0.1486 -0.3448  0.0493
 1308TIP3    H125339   5.713   1.723  16.032 -0.3501  0.8382  1.5823
 1308TIP3    H225340   5.790   1.715  16.162  3.4306  0.6061 -0.5109
 1309TIP3   OH225341   4.893   2.556  15.450 -0.0282 -0.2142 -0.3405
 1309TIP3    H125342   4.835   2.615  15.402 -0.3828  0.4081  0.8062
 1309TIP3    H225343   4.834   2.493  15.492  0.2544 -0.5952 -0.5068
 1310TIP3   OH225344   2.989   1.926  15.245 -0.5498 -0.1835 -0.0988
 1310TIP3    H125345   3.011   1.856  15.306 -0.8030  0.0591  0.2709
 1310TIP3    H225346   2.904   1.957  15.273  0.7241  2.1452  1.4722
 1311TIP3   OH225347   2.102   0.286   0.613 -0.1727  0.1348  0.2841
 1311TIP3    H125348   2.165   0.243   0.556 -0.3996  1.1697 -0.7633
 1311TIP3    H225349   2.062   0.354   0.560 -0.4440  1.0961  1.6530
 1312TIP3   OH225350   0.962   1.550  13.580 -0.0138 -0.4106  0.0329
 1312TIP3    H125351   0.979   1.636  13.621  1.4815 -0.7813  0.2430
 1312TIP3    H225352   1.047   1.523  13.546 -1.0656 -0.4309 -2.8145
 1313TIP3   OH225353   6.044   1.683  12.783 -0.1295 -0.1255  0.3105
 1313TIP3    H125354   5.964   1.642  12.815  0.7938 -1.3884  1.1313
 1313TIP3    H225355   6.047   1.660  12.690 -0.7314 -0.0228  0.2611
 1314TIP3   OH225356   4.636   4.506  13.489  0.1463  0.5574  0.3825
 1314TIP3    H125357   4.547   4.502  13.454 -0.0692  0.3743  0.9327
 1314TIP3    H225358   4.643   4.430  13.546  0.0747  1.4628  1.6463
 1315TIP3   OH225359   2.245   1.863   4.891  0.0617  0.1025  0.0790
 1315TIP3    H125360   2.322   1.896   4.846 -0.1863  1.0246  0.3042
 1315TIP3    H225361   2.277   1.837   4.978  0.2275 -0.0699 -0.0347
 1316TIP3   OH225362   5.965   3.850  15.277 -0.0852  0.0577  0.3520
 1316TIP3    H125363   5.966   3.803  15.360  1.0694  0.5925  0.6627
 1316TIP3    H225364   5.903   3.801  15.222 -0.1415 -0.8543  1.2002
 1317TIP3   OH225365   0.567   1.509  15.468 -0.2702 -0.1934  0.4627
 1317TIP3    H125366   0.563   1.518  15.373 -1.4403 -0.1961  0.5081
 1317TIP3    H225367   0.659   1.487  15.485  0.2418  0.9999 -0.5567
 1318TIP3   OH225368   4.953   5.852  14.936  0.5854 -0.7247  0.1877
 1318TIP3    H125369   4.893   5.832  15.008 -0.5822  1.3015 -0.1401
 1318TIP3    H225370   4.896   5.878  14.864  1.8219  2.0164  0.0980
 1319TIP3   OH225371   2.099   0.393   1.440 -0.0787  0.1079  0.0155
 1319TIP3    H125372   2.054   0.358   1.517  0.3549 -0.8730 -0.1623
 1319TIP3    H225373   2.067   0.340   1.368  3.5876 -2.9050  0.2413
 1320TIP3   OH225374   5.975   4.125   5.207  0.2102  0.4174  0.6879
 1320TIP3    H125375   6.033   4.115   5.283 -1.2655 -0.3875  1.7625
 1320TIP3    H225376   5.976   4.039   5.165  0.4087  0.6303  0.2599
 1321TIP3   OH225377   2.385   5.623  12.186  0.0071  0.2796 -0.3510
 1321TIP3    H125378   2.476   5.646  12.200  0.3553 -1.8908  1.5248
 1321TIP3    H225379   2.342   5.639  12.270 -0.9588 -0.3230 -0.7014
 1322TIP3   OH225380   5.607   2.034  12.385  0.4442  0.0133 -0.4615
 1322TIP3    H125381   5.605   2.097  12.457  1.0566  0.0447 -0.4686
 1322TIP3    H225382   5.621   2.088  12.307  2.4384 -0.2288 -0.3172
 1323TIP3   OH225383   6.015   4.059  17.129 -0.3439  0.2756  0.0887
 1323TIP3    H125384   6.089   4.114  17.156 -0.2327  1.6099 -2.6481
 1323TIP3    H225385   6.052   3.971  17.125 -0.2064  0.0424  3.3421
 1324TIP3   OH225386   0.155   5.619  11.565 -0.6708 -0.1336 -0.5008
 1324TIP3    H125387   0.242   5.630  11.602  0.4275 -1.3275 -2.5567
 1324TIP3    H225388   0.162   5.652  11.475 -2.1760 -0.7682 -0.8828
 1325TIP3   OH225389   4.531   4.144  16.838 -0.2984 -0.1082 -0.1014
 1325TIP3    H125390   4.446   4.185  16.854  0.0281  1.0215 -1.1215
 1325TIP3    H225391   4.594   4.216  16.845  0.4688 -0.7477 -0.3238
 1326TIP3   OH225392   0.002   3.163  16.785  0.4224 -0.4619  0.1486
 1326TIP3    H125393  -0.011   3.238  16.843 -0.6301 -0.3180 -0.2462
 1326TIP3    H225394  -0.061   3.098  16.815  1.4803 -1.2955  0.6277
 1327TIP3   OH225395   2.763   3.510   4.371  0.5309 -0.0748  0.3661
 1327TIP3    H125396   2.739   3.417   4.375  0.0007  0.0804  0.8127
 1327TIP3    H225397   2.739   3.537   4.282 -0.8333  0.0378  0.7550
 1328TIP3   OH225398   5.221   5.675  16.283 -0.1334 -0.5226  0.2024
 1328TIP3    H125399   5.310   5.640  16.282 -0.2328 -0.9202  2.0373
 1328TIP3    H225400   5.202   5.694  16.191  2.5310  1.3338 -0.0881
 1329TIP3   OH225401   3.505   0.530   3.265 -0.9325  0.1144  0.1758
 1329TIP3    H125402   3.433   0.467   3.270 -0.7540 -0.4548 -2.7344
 1329TIP3    H225403   3.476   0.595   3.201  1.6710 -1.0661 -2.4475
 1330TIP3   OH225404   6.533   6.195  14.774 -0.3443 -0.5530  0.4326
 1330TIP3    H125405   6.599   6.255  14.740  1.4511 -0.3082  3.8448
 1330TIP3    H225406   6.577   6.111  14.780 -1.5926 -1.3316 -0.6250
 1331TIP3   OH225407   1.814   3.417   4.602 -0.0660 -0.4122 -0.5511
 1331TIP3    H125408   1.854   3.332   4.618  1.2155 -0.2618 -2.5335
 1331TIP3    H225409   1.759   3.434   4.678 -1.9650 -3.9284 -0.9510
 1332TIP3   OH225410   3.383   1.663   4.953  0.0852 -0.0833  0.5790
 1332TIP3    H125411   3.362   1.695   5.040 -1.0660  0.0216  0.2807
 1332TIP3    H225412   3.300   1.668   4.905  0.5956 -0.5707 -0.3837
 1333TIP3   OH225413   6.768   1.370   3.875  0.0575  0.4259  0.0032
 1333TIP3    H125414   6.677   1.365   3.903  0.0370 -0.0855 -0.1466
 1333TIP3    H225415   6.764   1.358   3.780  0.3679 -0.6239  0.1153
 1334TIP3   OH225416   1.230   0.411  13.019 -0.5366 -0.3871 -0.3874
 1334TIP3    H125417   1.186   0.332  13.049 -1.3790  0.6266  1.1976
 1334TIP3    H225418   1.242   0.398  12.925 -1.7542 -1.8598 -0.3713
 1335TIP3   OH225419   6.586   4.688  13.061  0.4064 -0.5239  0.4767
 1335TIP3    H125420   6.593   4.653  13.150  0.2020 -0.2189  0.6151
 1335TIP3    H225421   6.675   4.711  13.037  0.7719 -2.4224 -0.1500
 1336TIP3   OH225422   5.715   4.842  13.872 -0.9972  0.5351 -0.7791
 1336TIP3    H125423   5.744   4.788  13.945 -1.5929  0.4007 -0.6390
 1336TIP3    H225424   5.794   4.856  13.820 -0.7102  0.0573 -0.4780
 1337TIP3   OH225425   3.221   6.280   5.065 -0.0062  0.1876  0.0203
 1337TIP3    H125426   3.242   6.351   5.125  0.4618 -0.4076  0.5721
 1337TIP3    H225427   3.280   6.208   5.090 -1.2384 -0.7996  0.2202
 1338TIP3   OH225428   0.658   1.572  13.874 -0.5834  0.2433 -0.1772
 1338TIP3    H125429   0.698   1.495  13.914 -0.3985  1.3645  1.9096
 1338TIP3    H225430   0.566   1.568  13.899 -0.2002  1.6813  1.7019
 1339TIP3   OH225431   0.913   3.947   0.570  0.1046 -0.6897  0.3447
 1339TIP3    H125432   0.877   3.877   0.624 -1.5222 -0.4826 -0.3951
 1339TIP3    H225433   0.858   4.022   0.589  1.1199  0.0894  0.2776
 1340TIP3   OH225434   0.964   5.952  16.083  0.6931  0.1485 -0.1032
 1340TIP3    H125435   0.933   5.916  16.000 -2.5085  1.2535  0.4776
 1340TIP3    H225436   1.009   6.033  16.059  1.4147 -0.4533 -0.8459
 1341TIP3   OH225437   3.643   3.534  16.343 -0.1127  0.2512  0.3571
 1341TIP3    H125438   3.629   3.606  16.405 -1.1466  0.8920 -0.5976
 1341TIP3    H225439   3.576   3.546  16.277 -0.2013 -1.5259  0.0916
 1342TIP3   OH225440   2.923   4.234  15.669 -0.3929  0.0707  0.1056
 1342TIP3    H125441   2.864   4.165  15.639  0.7497 -1.4162  1.1168
 1342TIP3    H225442   3.008   4.212  15.631  0.1027  0.6197  0.8448
 1343TIP3   OH225443   2.963   3.633  15.341 -0.0182  0.2338 -0.1434
 1343TIP3    H125444   2.915   3.553  15.364  0.3983  0.0193 -0.0082
 1343TIP3    H225445   2.999   3.615  15.255  0.8239 -0.0780  0.2606
 1344TIP3   OH225446   2.443   4.778   0.209 -0.1395 -0.2581  0.1421
 1344TIP3    H125447   2.474   4.835   0.139 -0.3589 -1.4743 -0.9862
 1344TIP3    H225448   2.519   4.726   0.233 -0.3348 -0.5799  0.0678
 1345TIP3   OH225449   4.026   2.982  14.181  0.0815  0.1910  0.9774
 1345TIP3    H125450   3.983   3.067  14.192  1.3346  1.0239 -0.3783
 1345TIP3    H225451   3.997   2.932  14.258 -2.5535  0.9963  0.6297
 1346TIP3   OH225452   5.586   0.215  11.788  0.4353 -0.1733  0.5483
 1346TIP3    H125453   5.500   0.255  11.797  0.0745 -0.4876 -1.0921
 1346TIP3    H225454   5.648   0.287  11.804 -0.1404  0.2185  1.0380
 1347TIP3   OH225455   0.033   4.863   4.724 -0.4138 -0.5618  0.2816
 1347TIP3    H125456   0.058   4.777   4.690  2.5031  0.7894 -1.4173
 1347TIP3    H225457   0.104   4.886   4.783 -1.8545  0.1630  1.7818
 1348TIP3   OH225458   2.900   5.521   1.404 -0.6026  0.9488 -0.0642
 1348TIP3    H125459   2.842   5.456   1.365 -0.4190 -0.0079  1.1765
 1348TIP3    H225460   2.988   5.492   1.382 -0.5341  2.6122 -2.2726
 1349TIP3   OH225461   5.865   2.395  15.947 -1.1844 -0.4171 -0.6182
 1349TIP3    H125462   5.831   2.313  15.984 -2.6430  0.6565  0.5343
 1349TIP3    H225463   5.888   2.447  16.024  0.2767  0.0757 -1.3491
 1350TIP3   OH225464   3.521   3.296  15.656  0.0273 -0.4838  0.0036
 1350TIP3    H125465   3.528   3.326  15.566 -0.4025 -2.0270 -0.5692
 1350TIP3    H225466   3.430   3.268  15.665  0.2218 -0.9009  0.7310
 1351TIP3   OH225467   4.781   1.660  16.669  0.2768 -0.3968 -0.0566
 1351TIP3    H125468   4.752   1.646  16.579 -1.5089 -0.9743  0.5715
 1351TIP3    H225469   4.701   1.681  16.718  1.2970  0.5804  1.2773
 1352TIP3   OH225470   0.349   3.159   5.038 -0.7810 -0.0051 -0.2899
 1352TIP3    H125471   0.313   3.236   4.993 -1.1417 -0.4607 -0.8004
 1352TIP3    H225472   0.285   3.090   5.020  1.0357 -1.2352 -2.4387
 1353TIP3   OH225473   2.093   5.957  14.602 -0.0042  0.5576 -0.5325
 1353TIP3    H125474   2.034   5.882  14.597 -0.4006  0.8658 -0.4879
 1353TIP3    H225475   2.082   5.989  14.692  0.6838  0.2509 -0.3286
 1354TIP3   OH225476   2.883   3.662   2.948 -0.3355  0.3948  0.2436
 1354TIP3    H125477   2.922   3.604   3.013  1.9121  2.0461  0.4894
 1354TIP3    H225478   2.801   3.690   2.987  0.4928  0.5680  1.9381
 1355TIP3   OH225479   4.155   2.445   2.778 -0.2559  0.5190 -0.2130
 1355TIP3    H125480   4.241   2.485   2.764 -0.4249  0.7982 -0.4720
 1355TIP3    H225481   4.149   2.378   2.710 -1.0045  1.7556 -1.4320
 1356TIP3   OH225482   5.785   5.701   6.746 -0.2974  0.7217  0.4439
 1356TIP3    H125483   5.742   5.741   6.671 -1.8329 -0.7263  0.5092
 1356TIP3    H225484   5.878   5.723   6.735 -0.0570 -1.3470 -3.1532
 1357TIP3   OH225485   0.497   6.628  14.526  0.5627  0.6123 -0.2511
 1357TIP3    H125486   0.422   6.572  14.547  0.1176  2.0338  2.4055
 1357TIP3    H225487   0.486   6.649  14.433 -1.0752 -0.9815 -0.4837
 1358TIP3   OH225488   5.397   6.452  13.691  0.4886 -0.3560  0.1994
 1358TIP3    H125489   5.452   6.472  13.615  0.9030 -0.7800  0.3846
 1358TIP3    H225490   5.314   6.495  13.672  1.2449  1.2620  0.4396
 1359TIP3   OH225491   1.609   4.264   2.008  0.0273  0.4552  0.2714
 1359TIP3    H125492   1.548   4.285   1.938 -1.5268 -1.4963  0.9520
 1359TIP3    H225493   1.695   4.284   1.971 -0.8255  0.8306 -1.6462
 1360TIP3   OH225494   1.778   6.037   3.675 -0.1392 -0.3887  0.2207
 1360TIP3    H125495   1.763   5.975   3.747 -0.8093  1.1613  1.4847
 1360TIP3    H225496   1.873   6.047   3.671 -0.1359  0.9038  2.2106
 1361TIP3   OH225497   5.694   1.073  16.782  0.1787 -0.4959 -0.2110
 1361TIP3    H125498   5.657   1.026  16.858 -0.3051 -0.0348 -0.1565
 1361TIP3    H225499   5.623   1.074  16.718 -0.2492  1.2029  0.2428
 1362TIP3   OH225500   6.287   6.745  15.732  0.2073  0.0308 -0.2476
 1362TIP3    H125501   6.202   6.769  15.697  0.0167  1.8328  1.3022
 1362TIP3    H225502   6.273   6.733  15.826  1.5663 -0.1806 -0.0366
 1363TIP3   OH225503   1.374   3.996   5.088  0.8456 -0.1401  0.1348
 1363TIP3    H125504   1.373   3.921   5.147 -3.6951 -0.3217  0.1733
 1363TIP3    H225505   1.386   4.072   5.145  0.8784 -0.5783  0.7147
 1364TIP3   OH225506   6.003   0.574   2.401  0.3866 -0.0946 -0.2899
 1364TIP3    H125507   5.922   0.533   2.431 -0.1492 -0.0639 -1.6376
 1364TIP3    H225508   6.070   0.542   2.462 -0.6697  0.1051  1.0110
 1365TIP3   OH225509   2.881   3.247   1.608  0.4228 -0.4357 -0.2327
 1365TIP3    H125510   2.871   3.268   1.700 -0.0024  1.1069 -0.6037
 1365TIP3    H225511   2.807   3.290   1.565  1.3103 -0.0438 -1.4302
 1366TIP3   OH225512   2.137   4.850   2.871 -0.1164 -0.2965  0.1580
 1366TIP3    H125513   2.214   4.907   2.882 -1.3696  1.4018  0.4895
 1366TIP3    H225514   2.075   4.880   2.938 -0.9227 -1.9427  0.2004
 1367TIP3   OH225515   1.277   6.575   5.912 -0.1441 -0.1139 -0.3235
 1367TIP3    H125516   1.224   6.591   5.990 -0.7621 -2.0565 -0.2960
 1367TIP3    H225517   1.368   6.574   5.944 -0.3124  0.1361  0.1683
 1368TIP3   OH225518   1.017   0.980  11.983 -0.0731  0.1896  0.0678
 1368TIP3    H125519   1.016   0.996  11.888 -0.1687 -0.2257 -0.0036
 1368TIP3    H225520   1.108   0.991  12.008  0.0817 -0.4218 -0.2034
 1369TIP3   OH225521   3.529   4.419  13.328  0.4525 -0.3859 -0.9246
 1369TIP3    H125522   3.480   4.478  13.271 -0.3709  0.1182  0.2626
 1369TIP3    H225523   3.495   4.437  13.416  1.4358 -1.3867 -0.3146
 1370TIP3   OH225524   0.781   5.365   3.651  0.0431 -0.5618  0.0209
 1370TIP3    H125525   0.868   5.334   3.673 -0.2783 -1.4380  0.1047
 1370TIP3    H225526   0.740   5.291   3.605 -0.0353  0.4605 -1.6600
 1371TIP3   OH225527   5.241   2.626   0.039 -0.0307 -0.4718 -0.5300
 1371TIP3    H125528   5.206   2.649   0.125  0.3199  0.5440 -0.6405
 1371TIP3    H225529   5.334   2.612   0.054 -0.0959 -0.9971 -0.6201
 1372TIP3   OH225530   5.604   5.995  15.131  0.3791  0.4382 -0.1389
 1372TIP3    H125531   5.617   5.928  15.198 -0.9153 -1.6832 -1.8727
 1372TIP3    H225532   5.528   6.044  15.161 -1.3343 -1.6481 -0.7648
 1373TIP3   OH225533   4.142   4.355  12.974 -0.4566  0.5315 -0.6822
 1373TIP3    H125534   4.170   4.425  12.914 -0.6039  0.5558 -0.7223
 1373TIP3    H225535   4.115   4.284  12.915 -1.3183  0.8284 -0.6576
 1374TIP3   OH225536   3.036   1.067  11.070  0.1970 -0.1042 -0.1642
 1374TIP3    H125537   3.052   1.063  10.976 -0.6511 -1.2154 -0.2754
 1374TIP3    H225538   3.057   0.980  11.102  0.7686  0.3494  0.7372
 1375TIP3   OH225539   0.734   2.053   1.578  0.1651  0.2125  0.1734
 1375TIP3    H125540   0.668   1.991   1.546  1.2303 -0.9782  0.2156
 1375TIP3    H225541   0.738   2.037   1.672 -0.9094  1.7107  0.5086
 1376TIP3   OH225542   5.873   0.915  10.572  0.7372 -0.2300 -0.1178
 1376TIP3    H125543   5.786   0.945  10.545  0.2038 -0.8142  0.8876
 1376TIP3    H225544   5.911   0.878  10.492 -0.1877 -0.5157 -0.4402
 1377TIP3   OH225545   1.220   2.625  14.560 -0.0613  0.1460  0.3375
 1377TIP3    H125546   1.142   2.575  14.535 -1.3507  2.5270 -0.7171
 1377TIP3    H225547   1.200   2.659  14.647  0.7988 -1.0521  1.0362
 1378TIP3   OH225548   4.532   5.117  12.700 -0.0535 -0.0832 -0.3457
 1378TIP3    H125549   4.440   5.140  12.708 -0.0503 -0.2334  0.1654
 1378TIP3    H225550   4.552   5.067  12.780  0.4267 -0.1894 -0.5247
 1379TIP3   OH225551   3.254   4.524   1.548 -0.2254  0.9070 -0.1635
 1379TIP3    H125552   3.275   4.570   1.630  0.4913  0.6164 -0.1747
 1379TIP3    H225553   3.339   4.510   1.506 -0.3878 -0.6470 -0.0381
 1380TIP3   OH225554   4.452   0.216   5.276  0.1867 -0.0029 -0.5707
 1380TIP3    H125555   4.415   0.172   5.200  0.5117 -1.0619 -0.1313
 1380TIP3    H225556   4.534   0.171   5.293 -0.1590 -0.1903  0.7538
 1381TIP3   OH225557   3.424   4.765  14.669 -0.1375  0.2301  0.1209
 1381TIP3    H125558   3.506   4.767  14.620 -0.5308  0.4216 -0.5429
 1381TIP3    H225559   3.398   4.673  14.669 -0.5035  0.3290 -0.6612
 1382TIP3   OH225560   4.263   5.387   3.663  0.2256 -0.0793  0.3512
 1382TIP3    H125561   4.189   5.418   3.716  0.5976 -1.2042  1.5631
 1382TIP3    H225562   4.339   5.397   3.720  0.7783 -0.4779 -0.3057
 1383TIP3   OH225563   0.638   2.413  17.167  0.1731 -0.0612 -0.0003
 1383TIP3    H125564   0.571   2.350  17.193 -0.4835  0.4505 -0.4372
 1383TIP3    H225565   0.594   2.471  17.105  1.4831 -0.8011 -1.7200
 1384TIP3   OH225566   4.920   0.781   0.657  0.0761 -0.7330  0.0552
 1384TIP3    H125567   4.933   0.876   0.660  0.5617 -0.7442 -1.1816
 1384TIP3    H225568   4.857   0.763   0.727 -2.1701  0.8726 -1.4405
 1385TIP3   OH225569   3.669   4.766  14.522 -0.4686  0.1921  0.3947
 1385TIP3    H125570   3.732   4.708  14.565 -0.8720  0.2052  1.0195
 1385TIP3    H225571   3.655   4.726  14.436  1.6274  1.0697 -0.4287
 1386TIP3   OH225572   4.641   0.665  14.121 -0.4240 -0.2248 -0.1739
 1386TIP3    H125573   4.678   0.679  14.209 -0.3080  0.3023 -0.3026
 1386TIP3    H225574   4.578   0.594  14.133  0.8412 -1.3666 -0.0151
 1387TIP3   OH225575   3.762   2.469  14.382  0.3224  0.7835  0.6557
 1387TIP3    H125576   3.794   2.380  14.399  1.2023  1.2456  1.6008
 1387TIP3    H225577   3.731   2.500  14.467 -2.0515  0.6206 -0.1016
 1388TIP3   OH225578   4.341   0.356  15.404  0.0273 -0.6704 -1.1077
 1388TIP3    H125579   4.323   0.274  15.449 -0.7091  0.0208 -0.0836
 1388TIP3    H225580   4.436   0.359  15.397  0.0977 -1.2877 -0.5240
 1389TIP3   OH225581   5.440   4.432   4.640 -0.1099 -0.1135 -0.4995
 1389TIP3    H125582   5.383   4.454   4.714 -0.4100  0.4719 -0.8933
 1389TIP3    H225583   5.528   4.451   4.671 -0.2683  0.5237 -0.4168
 1390TIP3   OH225584   5.286   3.799   1.480 -0.4878 -0.4471 -0.3699
 1390TIP3    H125585   5.369   3.812   1.435  1.8421 -1.5410  3.1287
 1390TIP3    H225586   5.269   3.705   1.473 -0.7743 -0.4197 -0.0908
 1391TIP3   OH225587   6.427   6.005   5.253  0.1585  0.1565  0.1601
 1391TIP3    H125588   6.443   5.980   5.344  1.2333 -1.1699 -0.3449
 1391TIP3    H225589   6.428   6.101   5.253 -0.0217  0.1771  1.5558
 1392TIP3   OH225590   5.093   4.131  14.457  0.4669  0.8132 -0.3373
 1392TIP3    H125591   5.017   4.165  14.410 -0.3099 -0.1234  0.1933
 1392TIP3    H225592   5.125   4.205  14.508 -1.5247  0.6872  1.2264
 1393TIP3   OH225593   6.561   0.037  15.160 -0.0151  0.0789  0.4804
 1393TIP3    H125594   6.537   0.104  15.096 -3.2783 -2.2197 -1.0028
 1393TIP3    H225595   6.578  -0.041  15.108  1.3293 -0.9052  2.2738
 1394TIP3   OH225596   6.581   4.162  16.843 -0.6588 -0.1319  0.5520
 1394TIP3    H125597   6.590   4.248  16.801 -2.3913 -0.6127 -0.9348
 1394TIP3    H225598   6.620   4.100  16.782  1.9204 -0.3338  2.2816
 1395TIP3   OH225599   4.892   3.195   5.137 -0.2773 -0.2228  0.4616
 1395TIP3    H125600   4.979   3.229   5.117 -0.2446 -0.1017  0.8024
 1395TIP3    H225601   4.904   3.145   5.218 -0.3965 -0.7477  0.1656
 1396TIP3   OH225602   2.464   3.258   2.564 -0.8251  0.0308  0.3273
 1396TIP3    H125603   2.484   3.271   2.656  0.8234 -0.2754  0.0401
 1396TIP3    H225604   2.545   3.281   2.518 -0.8693 -1.9562 -0.8615
 1397TIP3   OH225605   4.515   4.966  14.215  0.3129  0.9451  0.6982
 1397TIP3    H125606   4.580   4.918  14.265  0.1438  1.3460  1.3122
 1397TIP3    H225607   4.565   5.013  14.148  0.3121 -1.9018 -1.4973
 1398TIP3   OH225608   6.281   4.254   5.311  0.6368  0.0338 -0.1182
 1398TIP3    H125609   6.349   4.212   5.259  0.6955 -1.0941  0.8123
 1398TIP3    H225610   6.235   4.181   5.353 -0.5498  0.8273 -0.0063
 1399TIP3   OH225611   3.588   4.512   1.754  0.0416  0.1938  0.1857
 1399TIP3    H125612   3.599   4.601   1.720 -0.1291  0.8328  1.7516
 1399TIP3    H225613   3.653   4.460   1.706 -0.5427  0.9412 -1.4778
 1400TIP3   OH225614   2.105   5.311   2.192 -1.3303 -0.5696 -0.0823
 1400TIP3    H125615   2.064   5.359   2.263  1.9742 -0.3710  1.8897
 1400TIP3    H225616   2.115   5.222   2.225  1.5284 -0.1537  0.4720
 1401TIP3   OH225617   3.558   1.741  12.567  0.2854  0.0610  0.3410
 1401TIP3    H125618   3.510   1.824  12.577 -1.1788 -0.3582 -2.2170
 1401TIP3    H225619   3.512   1.680  12.625 -0.5453  0.3544  0.0171
 1402TIP3   OH225620   2.743   2.856  13.622  0.2744  0.3453 -0.5565
 1402TIP3    H125621   2.827   2.893  13.650  0.0628  0.2935  0.1675
 1402TIP3    H225622   2.757   2.761  13.622 -0.3586  0.1841  1.6243
 1403TIP3   OH225623   5.613   1.891  13.091 -0.1331  0.5515 -0.2606
 1403TIP3    H125624   5.544   1.895  13.024  0.0707 -0.5106 -0.5641
 1403TIP3    H225625   5.662   1.811  13.070 -0.7276 -0.4183  1.8128
 1404TIP3   OH225626   0.629   5.139  16.538  0.1376  0.3186 -0.1779
 1404TIP3    H125627   0.666   5.176  16.458 -0.9159 -0.5661 -1.1196
 1404TIP3    H225628   0.683   5.062  16.557 -0.2825 -0.1113 -0.6926
 1405TIP3   OH225629   3.858   4.410  13.979  0.3441 -0.0612 -0.1018
 1405TIP3    H125630   3.832   4.336  13.925  1.6168 -0.4632 -0.1934
 1405TIP3    H225631   3.917   4.461  13.923 -0.4579  1.0096 -0.0254
 1406TIP3   OH225632   4.520   6.502  12.632 -0.3481  0.7370 -0.0922
 1406TIP3    H125633   4.493   6.453  12.554 -0.2961  1.0024 -0.2808
 1406TIP3    H225634   4.471   6.462  12.704  1.1498 -0.8708  0.0787
 1407TIP3   OH225635   0.198   2.181  12.228  0.3611  0.3741 -0.1905
 1407TIP3    H125636   0.178   2.093  12.261 -0.7167  0.3240 -0.9116
 1407TIP3    H225637   0.275   2.169  12.172  1.7004  0.3230  1.5741
 1408TIP3   OH225638   2.903   3.126   6.034  0.4055  0.1787 -0.7990
 1408TIP3    H125639   2.856   3.192   6.086 -0.3915  0.3152 -1.6656
 1408TIP3    H225640   2.906   3.163   5.946  2.0136  0.0896 -0.8156
 1409TIP3   OH225641   4.701   3.301  14.849 -0.3167 -0.0508  0.0298
 1409TIP3    H125642   4.654   3.340  14.775 -0.4183  1.3836  0.8044
 1409TIP3    H225643   4.635   3.292  14.918  0.2766  0.9713  0.7668
 1410TIP3   OH225644   6.561   6.052  16.019  0.4819  0.0075 -0.0636
 1410TIP3    H125645   6.615   6.122  15.982  0.7893 -0.2915 -0.1861
 1410TIP3    H225646   6.574   6.058  16.113 -1.1212  1.4487  0.1152
 1411TIP3   OH225647   5.698   2.227   2.418  0.6536  0.1543  0.2778
 1411TIP3    H125648   5.694   2.148   2.472  0.4950 -0.7911 -1.0759
 1411TIP3    H225649   5.780   2.269   2.443  0.7546 -0.4393  0.9909
 1412TIP3   OH225650   2.286   3.397  12.180 -0.1530  0.5766 -0.3396
 1412TIP3    H125651   2.356   3.346  12.141  1.1389  0.1100  2.3427
 1412TIP3    H225652   2.231   3.332  12.224 -1.4155  1.0886 -1.1068
 1413TIP3   OH225653   5.322   0.494   4.483  0.0202  0.6873 -0.6893
 1413TIP3    H125654   5.299   0.544   4.561  1.6260  1.2424 -0.5377
 1413TIP3    H225655   5.294   0.405   4.503 -0.0279  0.9189  0.3284
 1414TIP3   OH225656   3.865   2.379  14.651  0.0360  0.1990 -0.0125
 1414TIP3    H125657   3.941   2.418  14.694  0.4101 -0.0362 -0.4474
 1414TIP3    H225658   3.891   2.289  14.634 -0.1954  0.2223 -0.5022
 1415TIP3   OH225659   2.208   5.330  15.080 -0.3256 -0.8732  0.7446
 1415TIP3    H125660   2.238   5.240  15.065 -1.5700 -0.9961 -1.3112
 1415TIP3    H225661   2.268   5.384  15.028 -1.3249 -0.8056 -0.3801
 1416TIP3   OH225662   0.498   5.879  15.987  0.5220  0.0359 -0.0520
 1416TIP3    H125663   0.550   5.803  15.959 -1.5123 -1.1720 -0.7439
 1416TIP3    H225664   0.416   5.841  16.019  0.0932  1.8700  1.1632
 1417TIP3   OH225665   2.810   4.620  14.857 -0.2621 -0.0174  0.3550
 1417TIP3    H125666   2.787   4.609  14.949  0.6231 -0.9245  0.4928
 1417TIP3    H225667   2.888   4.676  14.858 -0.2963  0.0349  0.1541
 1418TIP3   OH225668   6.564   4.767   1.152 -0.2730  0.1543  0.0326
 1418TIP3    H125669   6.636   4.829   1.163  0.3281 -0.6297  0.6410
 1418TIP3    H225670   6.490   4.809   1.195  0.0899  0.5189  0.3126
 1419TIP3   OH225671   6.370   4.118   1.951 -0.5357 -0.1331  0.4285
 1419TIP3    H125672   6.369   4.038   1.898 -2.7729 -0.1095  0.3378
 1419TIP3    H225673   6.406   4.090   2.035 -2.8105 -1.7395  0.9792
 1420TIP3   OH225674   5.696   2.653   3.849  0.3080 -0.2191  0.4380
 1420TIP3    H125675   5.745   2.571   3.861 -0.2683 -0.5640  0.5016
 1420TIP3    H225676   5.705   2.673   3.756  0.3898 -0.3962  0.4068
 1421TIP3   OH225677   0.789   3.095   0.942 -0.4917 -0.5664 -0.1150
 1421TIP3    H125678   0.716   3.143   0.982  0.4063  0.4443  0.3426
 1421TIP3    H225679   0.748   3.045   0.871 -1.3169  1.6666 -1.2937
 1422TIP3   OH225680   2.572   0.396  13.711 -0.0396  0.3112 -0.4982
 1422TIP3    H125681   2.633   0.436  13.648  0.3106  1.4296  0.5114
 1422TIP3    H225682   2.496   0.454  13.710  0.2075  0.6766  0.5174
 1423TIP3   OH225683   0.316   0.286   2.260 -0.2699 -0.1818  0.1938
 1423TIP3    H125684   0.324   0.367   2.310 -0.5225 -0.4390  0.6563
 1423TIP3    H225685   0.314   0.315   2.169 -1.2813  0.4143  0.3855
 1424TIP3   OH225686   4.596   3.846  15.071 -0.4476 -0.0148  0.7229
 1424TIP3    H125687   4.658   3.775  15.088  0.6185  0.5562 -0.5094
 1424TIP3    H225688   4.638   3.924  15.107 -0.9711  0.2063  0.8626
 1425TIP3   OH225689   6.578   2.375   0.524  0.4859  0.6602  0.8073
 1425TIP3    H125690   6.664   2.377   0.483  1.0452  1.8149  1.9495
 1425TIP3    H225691   6.520   2.417   0.460  0.6822 -0.3877 -0.0882
 1426TIP3   OH225692   3.878   2.645  16.681  0.2213  0.1070 -0.5298
 1426TIP3    H125693   3.903   2.569  16.629  2.2477  1.5612 -1.8032
 1426TIP3    H225694   3.808   2.686  16.630 -1.3072 -1.1559  0.4599
 1427TIP3   OH225695   5.453   0.111  13.910  0.0852  0.3584 -0.0393
 1427TIP3    H125696   5.441   0.168  13.833  0.0235  0.6218  0.1621
 1427TIP3    H225697   5.364   0.091  13.938  0.0835 -0.8290 -0.8207
 1428TIP3   OH225698   5.762   3.438   2.383 -0.6236 -0.5207  0.2088
 1428TIP3    H125699   5.679   3.394   2.370 -1.0619  0.1128  0.7564
 1428TIP3    H225700   5.824   3.368   2.404 -0.6697 -1.1582 -1.6318
 1429TIP3   OH225701   1.354   1.405  15.369  0.0175  0.6881  0.1430
 1429TIP3    H125702   1.446   1.380  15.358  0.5058  0.8250  3.0810
 1429TIP3    H225703   1.310   1.325  15.396 -0.9899  0.4156 -2.1005
 1430TIP3   OH225704   0.826   0.116  16.696 -0.1160 -0.1304  0.1654
 1430TIP3    H125705   0.807   0.098  16.788  1.0072 -0.2874  0.3900
 1430TIP3    H225706   0.819   0.031  16.652 -1.8218  0.1352 -0.1440
 1431TIP3   OH225707   5.825   5.401   4.361  0.4375 -0.2929 -0.1238
 1431TIP3    H125708   5.743   5.356   4.382  0.5022 -0.1222  0.5148
 1431TIP3    H225709   5.861   5.352   4.287  1.1720 -2.1668  1.3555
 1432TIP3   OH225710   5.454   5.334   5.995 -0.1249 -0.4057 -0.2835
 1432TIP3    H125711   5.412   5.273   5.935  0.8570 -0.8909 -0.5027
 1432TIP3    H225712   5.460   5.287   6.078  1.7468 -1.1305 -0.7722
 1433TIP3   OH225713   6.444   4.703   2.935 -0.6482  0.1549 -0.6940
 1433TIP3    H125714   6.521   4.648   2.923  0.1683  1.0443  0.3665
 1433TIP3    H225715   6.471   4.770   2.997 -1.4411  2.1132 -2.3631
 1434TIP3   OH225716   2.329   6.166   3.240 -0.6248  0.0515  0.4456
 1434TIP3    H125717   2.403   6.194   3.294 -0.0438 -1.0769  0.2858
 1434TIP3    H225718   2.259   6.228   3.259  0.8288  2.1283 -0.5516
 1435TIP3   OH225719   0.433   6.384   2.171  0.0237  0.7082 -0.7127
 1435TIP3    H125720   0.472   6.316   2.226 -0.3215 -1.0949 -2.5582
 1435TIP3    H225721   0.506   6.440   2.147  0.7327 -0.2095 -0.7856
 1436TIP3   OH225722   1.602   4.356  14.381  0.0487  0.6249  0.2135
 1436TIP3    H125723   1.559   4.299  14.317 -0.7711  2.3427 -0.8372
 1436TIP3    H225724   1.693   4.326  14.382 -0.0720  0.1193 -1.2810
 1437TIP3   OH225725   5.390   0.261   3.801 -0.6423 -0.6774 -0.7715
 1437TIP3    H125726   5.336   0.320   3.853  1.0061  0.5960 -0.4345
 1437TIP3    H225727   5.328   0.196   3.766 -2.2645  0.3507  0.0886
 1438TIP3   OH225728   6.198   1.377   6.286  0.1090 -0.2690 -0.4150
 1438TIP3    H125729   6.139   1.440   6.326 -0.9567 -0.0735 -2.1769
 1438TIP3    H225730   6.203   1.304   6.348  1.4697  1.5355  1.7202
 1439TIP3   OH225731   5.597   5.457   3.300  0.1949 -0.4794  0.1305
 1439TIP3    H125732   5.553   5.477   3.382  0.3938  1.7416 -0.2129
 1439TIP3    H225733   5.560   5.520   3.238 -0.0952 -2.2238 -1.5456
 1440TIP3   OH225734   1.964   3.150  14.825  0.2669 -0.6095 -0.1404
 1440TIP3    H125735   1.947   3.077  14.766  0.1670  0.5957 -1.6728
 1440TIP3    H225736   1.938   3.228  14.775 -0.4611  0.4243  1.7507
 1441TIP3   OH225737   1.870   3.644  11.241  0.2963 -0.4787  0.1469
 1441TIP3    H125738   1.965   3.645  11.243  0.4384  0.1472 -2.9403
 1441TIP3    H225739   1.843   3.723  11.288  1.4553  0.9585 -1.5092
 1442TIP3   OH225740   4.710   3.049  13.976 -0.1990 -0.1911  0.1741
 1442TIP3    H125741   4.751   3.075  13.893 -0.3113  1.7103  0.6719
 1442TIP3    H225742   4.762   2.974  14.006  0.7815  0.0391 -0.8860
 1443TIP3   OH225743   5.936   3.425   5.581  0.0503  0.3391  0.3120
 1443TIP3    H125744   5.914   3.445   5.490  1.0644  0.3259  0.0571
 1443TIP3    H225745   5.899   3.498   5.631  0.8961  1.2003 -0.2832
 1444TIP3   OH225746   3.634   5.239  14.110 -0.3277  0.4406 -0.3329
 1444TIP3    H125747   3.554   5.289  14.128 -0.2885 -0.2768  2.3997
 1444TIP3    H225748   3.704   5.305  14.108 -0.7284  0.8574 -0.5906
 1445TIP3   OH225749   3.288   5.676   1.367  0.2808 -0.5692  0.2564
 1445TIP3    H125750   3.346   5.682   1.444  0.5534  1.9206 -0.0436
 1445TIP3    H225751   3.341   5.710   1.295 -0.7527 -0.5923 -0.5344
 1446TIP3   OH225752   0.419   6.602  12.610  0.2460  0.1015 -0.1987
 1446TIP3    H125753   0.395   6.510  12.617 -2.1272  0.7589  1.6796
 1446TIP3    H225754   0.465   6.622  12.692 -0.6227  0.9195  0.1080
 1447TIP3   OH225755   4.597   6.439  17.038  0.3190  0.0184 -0.3524
 1447TIP3    H125756   4.556   6.354  17.053 -0.9040  0.4857 -0.8871
 1447TIP3    H225757   4.682   6.419  17.000  1.6968 -1.0797  2.8961
 1448TIP3   OH225758   4.794   6.220   1.230 -0.4586 -0.0387 -0.3063
 1448TIP3    H125759   4.789   6.193   1.322  0.5199  1.2825  0.1720
 1448TIP3    H225760   4.708   6.198   1.194  0.0129 -3.0603  0.1865
 1449TIP3   OH225761   1.959   4.201   2.669 -0.4829  0.2834  0.1826
 1449TIP3    H125762   1.945   4.148   2.590  1.7111  0.3181 -0.2881
 1449TIP3    H225763   1.890   4.174   2.729 -0.2351 -2.1547 -0.5413
 1450TIP3   OH225764   5.063   4.686   1.573  0.1387  0.2688 -0.1871
 1450TIP3    H125765   5.129   4.752   1.552  1.9152 -1.3931 -0.0571
 1450TIP3    H225766   5.031   4.710   1.660  2.4507 -0.2621  0.8959
 1451TIP3   OH225767   2.164   5.530   4.793 -0.4495 -0.0575  0.0097
 1451TIP3    H125768   2.223   5.517   4.867 -0.1521 -0.0120 -0.2215
 1451TIP3    H225769   2.076   5.527   4.832 -0.3158 -0.5865  0.2848
 1452TIP3   OH225770   2.720   3.554   0.197  0.2994  0.5862 -0.2626
 1452TIP3    H125771   2.768   3.489   0.248 -0.0277 -0.3890 -1.1566
 1452TIP3    H225772   2.722   3.521   0.107 -1.3393  0.9216 -0.4672
 1453TIP3   OH225773   3.641   2.689   1.474 -0.2501  0.0065 -0.5674
 1453TIP3    H125774   3.611   2.656   1.558  1.3382  1.0972  0.4837
 1453TIP3    H225775   3.636   2.614   1.415  0.7663 -1.4284  1.0848
 1454TIP3   OH225776   5.355   5.777   1.569 -0.1465 -0.1203 -0.5561
 1454TIP3    H125777   5.418   5.737   1.508  1.4745 -0.9908  1.5443
 1454TIP3    H225778   5.390   5.865   1.585 -1.0259  0.4123 -1.4637
 1455TIP3   OH225779   4.628   4.852  13.583 -0.3446 -0.3569 -0.3965
 1455TIP3    H125780   4.714   4.874  13.619  0.2487 -1.5952 -0.9660
 1455TIP3    H225781   4.618   4.759  13.602 -1.3508 -0.3338 -0.7626
 1456TIP3   OH225782   4.056   1.833   5.325  0.4299 -0.1129 -0.8210
 1456TIP3    H125783   4.150   1.845   5.311  0.2471  0.0320 -1.9918
 1456TIP3    H225784   4.045   1.843   5.420  1.6181 -0.3548 -0.6386
 1457TIP3   OH225785   2.184   0.784   1.114 -0.4111 -0.4473 -0.5279
 1457TIP3    H125786   2.144   0.869   1.130 -0.9217 -0.2941 -2.3640
 1457TIP3    H225787   2.266   0.786   1.162 -1.1927  0.4059  0.8339
 1458TIP3   OH225788   6.044   4.944   1.297  0.4295  0.0569 -0.7736
 1458TIP3    H125789   6.060   4.987   1.380  0.6773  3.4592 -2.4355
 1458TIP3    H225790   5.952   4.962   1.278 -0.4238 -2.9936 -0.1405
 1459TIP3   OH225791   3.881   1.268  15.095  0.1697 -0.0898 -0.3198
 1459TIP3    H125792   3.786   1.264  15.108  0.1018 -0.0799 -0.7720
 1459TIP3    H225793   3.891   1.320  15.015  0.5276 -0.5973 -0.6090
 1460TIP3   OH225794   3.623   1.978  13.436  0.1559  0.0090 -0.1958
 1460TIP3    H125795   3.551   2.038  13.417 -0.7117 -0.9655 -0.0828
 1460TIP3    H225796   3.637   1.930  13.355  0.6087  0.1185 -0.1844
 1461TIP3   OH225797   6.676   5.641   3.821  0.2736 -0.2153 -0.1829
 1461TIP3    H125798   6.707   5.691   3.745 -1.3303  1.2927  0.0991
 1461TIP3    H225799   6.667   5.706   3.891 -1.0588 -1.0505  0.4646
 1462TIP3   OH225800   3.666   4.764   4.323 -0.9057  0.7242  0.1069
 1462TIP3    H125801   3.668   4.802   4.236 -1.0494  0.9545  0.2032
 1462TIP3    H225802   3.726   4.690   4.319 -0.8231  0.8069 -0.1538
 1463TIP3   OH225803   4.219   2.713  13.422  0.1522 -0.0418 -0.4013
 1463TIP3    H125804   4.142   2.663  13.449  1.6806 -0.8968  2.7740
 1463TIP3    H225805   4.214   2.794  13.472  1.0130  0.1400 -0.5896
 1464TIP3   OH225806   2.771   5.556  14.213 -0.2677 -0.4455  0.0503
 1464TIP3    H125807   2.750   5.476  14.164  0.5447 -1.1590  0.8377
 1464TIP3    H225808   2.867   5.558  14.215 -0.2872  0.3685  0.3403
 1465TIP3   OH225809   5.015   5.646   4.324  0.3553  0.8843 -0.1260
 1465TIP3    H125810   4.947   5.711   4.310  1.9261  2.7506  0.4482
 1465TIP3    H225811   5.013   5.590   4.246 -1.7349  0.9224 -0.1412
 1466TIP3   OH225812   3.785   5.507  14.052 -0.0874 -0.8067  0.4097
 1466TIP3    H125813   3.811   5.541  13.966 -1.2946 -2.2726 -0.6078
 1466TIP3    H225814   3.852   5.539  14.112 -0.6119  2.5370 -0.5498
 1467TIP3   OH225815   6.023   5.549  15.094 -0.6971 -0.0220 -0.5542
 1467TIP3    H125816   5.974   5.471  15.121 -0.9269  0.8944  1.9205
 1467TIP3    H225817   5.957   5.607  15.055 -0.5876 -0.8637 -2.0712
 1468TIP3   OH225818   4.674   6.581  11.480  0.0752  0.1176 -0.0674
 1468TIP3    H125819   4.722   6.498  11.475  0.1925  0.0931  1.1289
 1468TIP3    H225820   4.712   6.626  11.556  0.1008  1.3283 -0.7755
 1469TIP3   OH225821   0.310   4.406  16.061 -0.2095  0.4813 -0.1036
 1469TIP3    H125822   0.297   4.344  16.133  2.9318  1.6152  1.6256
 1469TIP3    H225823   0.222   4.433  16.036 -1.5610 -2.5272  0.9256
 1470TIP3   OH225824   0.958   5.742   0.239  0.1020 -0.4826  0.5893
 1470TIP3    H125825   0.960   5.650   0.265 -0.9643 -0.3218  1.3171
 1470TIP3    H225826   0.886   5.747   0.175 -0.5305  0.0083  1.3166
 1471TIP3   OH225827   1.678   3.770  15.681 -0.0849 -0.2283 -0.6466
 1471TIP3    H125828   1.668   3.700  15.617  2.0379  1.1565 -2.6620
 1471TIP3    H225829   1.745   3.737  15.741 -0.4128 -0.6307 -0.4962
 1472TIP3   OH225830   5.748   0.728   0.609 -0.0535  0.1688 -0.1438
 1472TIP3    H125831   5.694   0.805   0.631  1.8465  1.1687  1.3229
 1472TIP3    H225832   5.748   0.726   0.514 -1.3286  1.1164 -0.1971
 1473TIP3   OH225833   0.894   2.643   3.771 -0.0640 -0.2237  0.2137
 1473TIP3    H125834   0.840   2.605   3.840 -0.8245  0.4958  0.0276
 1473TIP3    H225835   0.875   2.591   3.693 -1.6416  0.9404 -0.2143
 1474TIP3   OH225836   1.919   5.816   6.214 -0.8188  0.0034  0.2041
 1474TIP3    H125837   1.861   5.857   6.279 -1.8936  1.7793 -1.7286
 1474TIP3    H225838   1.861   5.757   6.165 -0.2547 -0.5726  0.2254
 1475TIP3   OH225839   4.607   0.733  16.008 -0.0107 -0.5774  0.3093
 1475TIP3    H125840   4.682   0.777  16.048 -1.1767  1.7197  0.1780
 1475TIP3    H225841   4.598   0.651  16.055  2.6546 -0.9913  0.2094
 1476TIP3   OH225842   5.524   4.329   1.149  0.2357  0.6559  0.0706
 1476TIP3    H125843   5.489   4.251   1.193 -1.2211  0.8778 -0.6285
 1476TIP3    H225844   5.495   4.402   1.204  2.7488  0.6997  1.4776
 1477TIP3   OH225845   1.079   6.368  16.948 -0.6803 -0.1284  0.6069
 1477TIP3    H125846   1.095   6.458  16.921 -1.7886  0.4259  1.6651
 1477TIP3    H225847   1.098   6.368  17.042 -0.0670 -1.1724  0.4960
 1478TIP3   OH225848   0.216   0.030   2.259 -0.0422  0.1105  0.1799
 1478TIP3    H125849   0.272   0.007   2.185  0.1479 -1.3528  0.7406
 1478TIP3    H225850   0.246   0.117   2.286  0.9957 -0.0418 -0.4268
 1479TIP3   OH225851   1.351   0.514   2.388  0.4589 -0.3931 -0.4204
 1479TIP3    H125852   1.272   0.460   2.384  0.3498 -0.1392 -2.1601
 1479TIP3    H225853   1.418   0.463   2.341  0.2399  1.1216 -2.4713
 1480TIP3   OH225854   5.132   1.328   3.813  0.3743 -0.1970  0.1600
 1480TIP3    H125855   5.152   1.347   3.721 -0.4889 -1.0074 -0.2149
 1480TIP3    H225856   5.072   1.397   3.840  1.7735  0.8981  0.5862
 1481TIP3   OH225857   4.392   5.248  14.508  0.5213 -0.3887  0.1199
 1481TIP3    H125858   4.340   5.286  14.437 -3.1499 -0.6139  2.4420
 1481TIP3    H225859   4.441   5.321  14.545  0.1707  0.3062 -0.7686
 1482TIP3   OH225860   4.479   4.200   5.695 -0.2007  0.2054  0.0705
 1482TIP3    H125861   4.453   4.263   5.763  2.2341  1.1060  0.2569
 1482TIP3    H225862   4.404   4.142   5.687 -1.8800  2.0817  1.1469
 1483TIP3   OH225863   1.426   0.867  10.868 -0.0213 -0.3734 -0.4674
 1483TIP3    H125864   1.376   0.816  10.804  1.0051  0.1527 -1.7273
 1483TIP3    H225865   1.375   0.947  10.880  0.4858  0.1666 -1.7551
 1484TIP3   OH225866   6.511   5.974   0.163  0.5831  0.0190  0.5012
 1484TIP3    H125867   6.562   5.904   0.204  1.1523  0.5321  0.6941
 1484TIP3    H225868   6.529   5.964   0.069  1.5130  0.5362  0.6079
 1485TIP3   OH225869   0.790   6.353   6.573 -0.0141 -0.0075  0.6006
 1485TIP3    H125870   0.810   6.295   6.646  0.6815 -1.0754 -0.3957
 1485TIP3    H225871   0.749   6.296   6.508  2.0297  0.2230 -1.0156
 1486TIP3   OH225872   6.567   5.060   4.052  0.1860 -0.1449 -0.2987
 1486TIP3    H125873   6.573   5.145   4.097 -0.6026 -1.3002  2.1683
 1486TIP3    H225874   6.607   4.998   4.113 -2.0394 -2.0041 -0.5933
 1487TIP3   OH225875   0.706   5.480  12.778 -0.1856 -0.4117 -0.1042
 1487TIP3    H125876   0.663   5.438  12.704  0.3893 -1.3197  0.0604
 1487TIP3    H225877   0.654   5.456  12.854  0.1779 -0.8928 -0.0018
 1488TIP3   OH225878   1.580   4.627  16.012 -0.2749 -0.0668  0.5747
 1488TIP3    H125879   1.611   4.624  16.102  0.1155 -0.9171  0.4228
 1488TIP3    H225880   1.503   4.570  16.011 -1.5338  1.5527  0.8104
 1489TIP3   OH225881   5.032   0.896   3.055 -0.4430 -0.0246  0.2275
 1489TIP3    H125882   5.042   0.879   3.149 -0.7536 -0.1149  0.2421
 1489TIP3    H225883   4.938   0.894   3.039 -0.3611 -0.8141 -0.2400
 1490TIP3   OH225884   2.621   1.280   4.826  0.5692 -0.2722  0.4608
 1490TIP3    H125885   2.652   1.352   4.880 -2.6415  0.7967  1.0866
 1490TIP3    H225886   2.651   1.201   4.872  0.9854  0.6309  1.7994
 1491TIP3   OH225887   1.639   1.038  13.698 -0.4821 -0.9269 -0.5270
 1491TIP3    H125888   1.728   1.059  13.725 -0.8839 -0.1236  0.2104
 1491TIP3    H225889   1.640   1.050  13.603  0.1974 -0.9451 -0.5292
 1492TIP3   OH225890   4.137   3.911  11.564 -0.3231  0.3956 -0.1351
 1492TIP3    H125891   4.086   3.865  11.630 -0.6147  0.2814 -0.4325
 1492TIP3    H225892   4.096   3.886  11.481  1.1988 -0.9701 -0.5192
 1493TIP3   OH225893   2.990   1.444   2.908  0.7889 -0.1404 -0.5090
 1493TIP3    H125894   3.037   1.510   2.958 -1.7442  1.6004 -0.2485
 1493TIP3    H225895   3.046   1.366   2.913  3.6953  1.7802 -0.4672
 1494TIP3   OH225896   6.042   4.002   2.368  0.3536  0.1857 -0.1956
 1494TIP3    H125897   6.129   4.040   2.361  0.0305  1.2218  1.0808
 1494TIP3    H225898   5.982   4.076   2.357 -0.3751 -0.4809 -0.8549
 1495TIP3   OH225899   5.806   1.484   0.644  0.3689  0.6171  0.0934
 1495TIP3    H125900   5.749   1.561   0.636  0.0998  0.3602 -0.5163
 1495TIP3    H225901   5.773   1.437   0.720  1.2021  1.6532  1.1286
 1496TIP3   OH225902   2.023   6.504   5.358 -0.6390  0.5594 -0.0528
 1496TIP3    H125903   2.062   6.425   5.394  0.7774  1.0965 -0.3556
 1496TIP3    H225904   1.959   6.471   5.294 -0.2031 -0.3348 -0.0494
 1497TIP3   OH225905   4.923   2.231  12.617  0.0326 -0.0055  0.1722
 1497TIP3    H125906   4.968   2.246  12.533 -0.8185  0.3051 -0.2354
 1497TIP3    H225907   4.830   2.230  12.595 -0.1791 -0.4352  1.0431
 1498TIP3   OH225908   5.681   4.390  15.421  0.3175 -0.0727 -0.2259
 1498TIP3    H125909   5.631   4.309  15.430 -0.7070  0.5716  0.0758
 1498TIP3    H225910   5.749   4.370  15.356  0.2770 -1.2509  0.0695
 1499TIP3   OH225911   1.458   4.658  15.712 -0.0472  0.1212  0.1525
 1499TIP3    H125912   1.539   4.608  15.716  0.3647  0.8243  1.3033
 1499TIP3    H225913   1.404   4.612  15.648  1.2250 -0.3931 -0.5866
 1500TIP3   OH225914   5.014   6.269   2.754  0.0618 -0.7362 -0.8611
 1500TIP3    H125915   4.992   6.289   2.845  0.3916 -0.1204 -0.9138
 1500TIP3    H225916   5.038   6.176   2.755 -3.8006 -1.9267 -1.0434
 1501TIP3   OH225917   1.774   2.264  14.436  0.2800  0.3355 -0.3081
 1501TIP3    H125918   1.679   2.253  14.432  0.1886  0.5963  0.7726
 1501TIP3    H225919   1.789   2.356  14.414  0.2874  0.2768 -0.5479
 1502TIP3   OH225920   0.297   5.080  12.621  0.3228  0.5196  0.0417
 1502TIP3    H125921   0.213   5.097  12.663  1.5074  0.4243  2.7106
 1502TIP3    H225922   0.299   4.986  12.607  0.2977  0.3997  0.7913
 1503TIP3   OH225923   6.265   1.854  11.508 -0.1341  0.0151 -0.4113
 1503TIP3    H125924   6.284   1.947  11.494  0.1525 -0.0895 -0.7249
 1503TIP3    H225925   6.174   1.852  11.537 -0.1914  0.3785 -0.5683
 1504TIP3   OH225926   4.442   6.624   4.975 -0.5911 -0.2500  0.4960
 1504TIP3    H125927   4.451   6.583   5.061 -2.1098  1.0265  1.3111
 1504TIP3    H225928   4.418   6.553   4.916  0.0148 -1.0568  1.2060
 1505TIP3   OH225929   1.805   2.391  12.336  0.1285 -0.4729  0.6378
 1505TIP3    H125930   1.803   2.454  12.264 -1.9389 -1.5790 -0.3485
 1505TIP3    H225931   1.894   2.356  12.336  0.2461 -0.2303 -1.1826
 1506TIP3   OH225932   2.940   5.552  16.860 -0.4398  0.0729 -0.0580
 1506TIP3    H125933   3.035   5.542  16.861 -0.5638 -1.4730  2.0768
 1506TIP3    H225934   2.924   5.623  16.798  1.9692 -0.7323 -1.7483
 1507TIP3   OH225935   3.134   1.865   3.074  0.2687  0.3829  0.3752
 1507TIP3    H125936   3.128   1.806   3.149 -0.6710 -0.0915 -0.0572
 1507TIP3    H225937   3.160   1.949   3.112 -0.3594  0.1943  1.2475
 1508TIP3   OH225938   4.731   4.483  15.871 -0.3192 -0.3228 -0.7280
 1508TIP3    H125939   4.809   4.430  15.886 -0.7854 -0.2835  2.7760
 1508TIP3    H225940   4.764   4.569  15.848  0.6044 -0.7361 -0.9949
 1509TIP3   OH225941   3.110   3.807  14.035 -0.3749 -0.4088  0.1442
 1509TIP3    H125942   3.135   3.758  13.957 -0.1162  1.7702 -1.2450
 1509TIP3    H225943   3.191   3.849  14.063 -0.8130  0.1604  0.5787
 1510TIP3   OH225944   0.477   3.770  13.076 -0.4507  0.1005  0.5286
 1510TIP3    H125945   0.558   3.731  13.109  1.0217  2.1983 -0.4135
 1510TIP3    H225946   0.479   3.755  12.982 -1.4737 -0.3031  0.5517
 1511TIP3   OH225947   3.225   4.082  12.343 -0.5059  0.4266  0.3424
 1511TIP3    H125948   3.179   4.082  12.427  0.8795 -0.7260  1.1501
 1511TIP3    H225949   3.249   3.990  12.328  2.7322  1.0839  0.7245
 1512TIP3   OH225950   3.416   2.879   4.977 -1.0530 -0.1429 -0.2983
 1512TIP3    H125951   3.434   2.792   5.011 -2.7160 -0.2245  0.4953
 1512TIP3    H225952   3.500   2.911   4.946 -0.6344 -2.6084 -2.0389
 1513TIP3   OH225953   2.778   3.291   3.829  0.4621  0.5924 -0.2088
 1513TIP3    H125954   2.787   3.322   3.919  0.4923 -0.9555  0.3449
 1513TIP3    H225955   2.730   3.361   3.785 -1.7943  0.3297  1.6412
 1514TIP3   OH225956   6.318   3.156  12.968 -0.0917 -0.0320 -0.1124
 1514TIP3    H125957   6.344   3.225  12.906 -1.6681  0.0612 -0.7250
 1514TIP3    H225958   6.309   3.202  13.051 -0.5308  0.3948 -0.3855
 1515TIP3   OH225959   0.571   4.622  15.728 -0.2221 -0.2616  0.4328
 1515TIP3    H125960   0.588   4.629  15.822 -0.5109 -1.1886  0.5674
 1515TIP3    H225961   0.623   4.547  15.700 -0.5406 -0.3116 -0.0427
 1516TIP3   OH225962   2.267   4.121   5.993 -0.2556 -0.2443  0.5157
 1516TIP3    H125963   2.225   4.047   6.037  0.8352 -0.8377  0.5884
 1516TIP3    H225964   2.359   4.095   5.984  0.1958  1.1939  0.7426
 1517TIP3   OH225965   2.954   3.352  14.211  0.0243  0.8033  0.0901
 1517TIP3    H125966   2.937   3.414  14.282  3.1615  1.6694  0.2327
 1517TIP3    H225967   3.037   3.309  14.236 -1.5097 -2.8597 -0.4674
 1518TIP3   OH225968   5.110   2.917   5.802  0.8077  0.2432  0.6272
 1518TIP3    H125969   5.117   2.835   5.851 -0.0521 -0.9726 -1.1685
 1518TIP3    H225970   5.193   2.926   5.757  0.6527 -0.0345  0.2774
 1519TIP3   OH225971   6.318   6.001   3.829 -0.0096  0.1325 -0.1029
 1519TIP3    H125972   6.353   5.966   3.910 -0.7672 -0.3865  0.0164
 1519TIP3    H225973   6.249   5.939   3.804 -2.1399  2.0490  0.6652
 1520TIP3   OH225974   6.591   6.767   0.160  0.1556  0.3034  1.0198
 1520TIP3    H125975   6.563   6.779   0.250  0.7824  2.0819  1.0183
 1520TIP3    H225976   6.686   6.758   0.165  0.2409  0.8388  0.5180
 1521TIP3   OH225977   3.294   0.016   4.851 -0.1828 -0.2933  0.5589
 1521TIP3    H125978   3.386  -0.000   4.868  0.3363  0.0332 -1.6158
 1521TIP3    H225979   3.291   0.106   4.817 -1.3555 -0.1894  0.8656
 1522TIP3   OH225980   1.079   1.416  15.218 -0.3836 -0.2578  0.2078
 1522TIP3    H125981   1.146   1.462  15.167 -0.8484  0.7541  0.4815
 1522TIP3    H225982   1.088   1.324  15.193 -0.7867  0.2426 -1.9371
 1523TIP3   OH225983   0.731   4.956  15.846  0.6718  0.1890 -0.2788
 1523TIP3    H125984   0.791   4.894  15.805  0.1941  0.6815 -1.7837
 1523TIP3    H225985   0.647   4.909  15.851  0.5817  0.3360 -0.4116
 1524TIP3   OH225986   5.298   1.661  16.950 -0.1969  0.4031 -0.2619
 1524TIP3    H125987   5.265   1.698  17.032 -0.5408  0.5697 -0.4737
 1524TIP3    H225988   5.393   1.673  16.955 -0.1801  0.0481  0.2890
 1525TIP3   OH225989   4.520   3.886   1.585 -0.5971 -0.0773  0.2861
 1525TIP3    H125990   4.571   3.812   1.619  0.5786  0.9416  0.8031
 1525TIP3    H225991   4.575   3.923   1.516 -1.7831 -0.4907 -0.9193
 1526TIP3   OH225992   5.978   2.496  16.989  0.4551 -0.1167  0.0072
 1526TIP3    H125993   5.953   2.406  17.011  1.4529 -0.6158 -0.8308
 1526TIP3    H225994   5.988   2.540  17.074 -2.5769 -0.0154  0.4370
 1527TIP3   OH225995   2.517   5.271   5.419 -0.0720  0.4533  0.2019
 1527TIP3    H125996   2.425   5.298   5.420 -0.0683  0.5651 -1.0885
 1527TIP3    H225997   2.554   5.311   5.498 -1.0036  0.8555  0.4484
 1528TIP3   OH225998   0.978   6.099  13.055  0.5643  0.5152  0.3232
 1528TIP3    H125999   0.896   6.091  13.104  0.5316  0.4468  0.2557
 1528TIP3    H226000   0.959   6.065  12.968 -0.2290  3.3407 -0.7173
 1529TIP3   OH226001   2.191   0.076   1.749 -0.1917  0.0194 -0.1877
 1529TIP3    H126002   2.123   0.011   1.732 -1.7053  1.0255  1.6127
 1529TIP3    H226003   2.249   0.071   1.673 -1.1837 -2.2308 -0.8758
 1530TIP3   OH226004   4.119   1.186  12.225 -0.0926 -0.3584  0.4661
 1530TIP3    H126005   4.143   1.270  12.263  0.2091  0.0481 -0.6026
 1530TIP3    H226006   4.189   1.166  12.163 -0.6247 -0.9496  0.0318
 1531TIP3   OH226007   1.815   4.404   5.524 -0.2275  0.1279  0.0834
 1531TIP3    H126008   1.762   4.482   5.541  0.4698  0.7750 -0.6286
 1531TIP3    H226009   1.900   4.424   5.563 -0.0848 -0.3185 -0.0006
 1532TIP3   OH226010   0.341   1.814   3.784 -0.2988  0.3290 -0.5261
 1532TIP3    H126011   0.262   1.814   3.731 -0.4946 -2.3320 -0.3555
 1532TIP3    H226012   0.321   1.755   3.857  1.8669 -0.5568 -0.5726
 1533TIP3   OH226013   3.646   0.527  12.818 -0.1594 -0.0653 -0.6678
 1533TIP3    H126014   3.651   0.481  12.902  0.7827 -1.2604 -1.3463
 1533TIP3    H226015   3.621   0.617  12.841 -4.0188 -1.2882  0.5416
 1534TIP3   OH226016   1.542   6.433   0.859 -0.1540 -0.5814  0.2053
 1534TIP3    H126017   1.533   6.346   0.821  0.1898 -0.1577 -0.8955
 1534TIP3    H226018   1.633   6.458   0.840 -1.1219  1.3320 -2.4638
 1535TIP3   OH226019   1.439   3.403  13.417  0.3647 -0.1293 -0.5595
 1535TIP3    H126020   1.462   3.311  13.427 -0.9563 -0.6004 -1.6309
 1535TIP3    H226021   1.481   3.446  13.491 -0.7740 -1.8974  1.2061
 1536TIP3   OH226022   4.223   6.402  12.467  0.3578 -0.1005  0.1504
 1536TIP3    H126023   4.187   6.346  12.398 -0.0791  1.7125 -1.1814
 1536TIP3    H226024   4.225   6.490  12.427  2.8358  0.5176  1.4375
 1537TIP3   OH226025   3.921   0.818   3.088 -0.0009 -0.0743 -0.2461
 1537TIP3    H126026   3.872   0.844   3.011  0.7416  1.4925 -0.2325
 1537TIP3    H226027   3.966   0.738   3.062  0.0931  0.3291 -1.3896
 1538TIP3   OH226028   0.844   5.420   2.690  0.2312  0.5183 -0.1791
 1538TIP3    H126029   0.759   5.412   2.649  1.3871 -2.1390 -2.3352
 1538TIP3    H226030   0.830   5.390   2.780 -1.4791  2.3980  0.2700
 1539TIP3   OH226031   2.165   5.869   3.765 -0.1016 -0.1645  0.5383
 1539TIP3    H126032   2.190   5.841   3.854  2.4993  1.8214  0.5333
 1539TIP3    H226033   2.172   5.964   3.767  1.1029 -0.1213 -2.0669
 1540TIP3   OH226034   0.392   1.440  16.851 -0.0187  0.0070 -0.3918
 1540TIP3    H126035   0.441   1.404  16.777 -1.4544 -1.4538 -0.6830
 1540TIP3    H226036   0.447   1.422  16.927  1.9873  2.4620 -1.0975
 1541TIP3   OH226037   3.105   2.422  12.036 -0.0133 -0.3097  0.2713
 1541TIP3    H126038   3.021   2.415  12.081  0.1847 -2.7345  0.3953
 1541TIP3    H226039   3.095   2.369  11.957  1.3970 -0.7341  0.3323
 1542TIP3   OH226040   3.805   4.678  10.709  0.1336  0.0901  0.1551
 1542TIP3    H126041   3.811   4.764  10.668  0.7967  0.5772  1.2540
 1542TIP3    H226042   3.713   4.652  10.698 -0.3845  1.5171  0.9827
 1543TIP3   OH226043   6.085   0.973   2.158  0.2397  0.4418  0.1509
 1543TIP3    H126044   5.994   0.979   2.186  0.2465  2.1943 -0.0928
 1543TIP3    H226045   6.136   1.004   2.233  0.6320 -0.1245  0.1345
 1544TIP3   OH226046   0.163   0.741  15.647  0.0946  0.2639  0.1925
 1544TIP3    H126047   0.211   0.783  15.575  1.1030 -0.3545  0.4963
 1544TIP3    H226048   0.112   0.812  15.686 -1.2255  0.4620 -1.6981
 1545TIP3   OH226049   6.007   4.745  15.318  0.4483 -0.1125 -0.4264
 1545TIP3    H126050   5.958   4.729  15.238  0.6685  2.2372 -1.1100
 1545TIP3    H226051   5.939   4.762  15.384  0.1861  3.0894 -1.3591
 1546TIP3   OH226052   4.240   6.363   0.038  0.3930 -0.0983 -0.4130
 1546TIP3    H126053   4.285   6.446   0.023 -0.1199  0.1212 -0.7832
 1546TIP3    H226054   4.226   6.360   0.132  0.2587  0.3250 -0.4166
 1547TIP3   OH226055   5.574   1.285   4.828 -0.2914  0.8885  0.0101
 1547TIP3    H126056   5.618   1.348   4.770 -0.5778  0.1135 -1.0766
 1547TIP3    H226057   5.642   1.223   4.853 -0.3902  0.6409 -0.3275
 1548TIP3   OH226058   1.106   3.079  14.293  0.5707 -0.1941  0.3556
 1548TIP3    H126059   1.021   3.082  14.249  0.5343 -2.0217  0.2431
 1548TIP3    H226060   1.170   3.080  14.222  0.6779  1.3022  0.4442
 1549TIP3   OH226061   4.179   3.350  15.159  0.0756 -0.6539  0.3474
 1549TIP3    H126062   4.169   3.255  15.156 -2.7564 -0.4485  0.8559
 1549TIP3    H226063   4.193   3.370  15.252  2.6740 -0.6341  0.0366
 1550TIP3   OH226064   4.530   5.007  16.229  0.0793 -0.2645  0.4984
 1550TIP3    H126065   4.596   4.989  16.295  0.2812 -2.6115 -0.2521
 1550TIP3    H226066   4.567   5.077  16.176  0.6805  0.4216  1.7821
 1551TIP3   OH226067   3.043   2.652  14.740 -0.1437  0.3204  0.2471
 1551TIP3    H126068   3.104   2.635  14.812  0.7468  0.5534 -0.4359
 1551TIP3    H226069   3.001   2.735  14.764 -0.0227  0.2781  0.6131
 1552TIP3   OH226070   3.879   6.440   1.564  0.7083 -0.9477 -0.1564
 1552TIP3    H126071   3.859   6.439   1.470  0.4937 -0.8077 -0.1148
 1552TIP3    H226072   3.969   6.408   1.570  0.5605 -1.4177 -0.3707
 1553TIP3   OH226073   0.859   4.674   5.154  0.3543 -0.3484  0.1059
 1553TIP3    H126074   0.884   4.632   5.237 -0.1377  1.2916  1.1422
 1553TIP3    H226075   0.795   4.740   5.180  2.0788  1.9727 -1.2422
 1554TIP3   OH226076   0.218   1.666   4.929 -0.0647 -0.0319  0.1432
 1554TIP3    H126077   0.152   1.733   4.946  0.0124  0.0318  0.1914
 1554TIP3    H226078   0.297   1.697   4.974 -0.3048 -0.6440  1.0040
 1555TIP3   OH226079   4.920   3.554   0.038 -0.3781 -0.2311  0.2125
 1555TIP3    H126080   4.916   3.646   0.013 -1.2473 -0.3915 -0.2563
 1555TIP3    H226081   5.014   3.534   0.041 -0.1989  0.5322 -0.1732
 1556TIP3   OH226082   6.210   5.849  16.921  0.4070 -0.0220 -0.2981
 1556TIP3    H126083   6.278   5.782  16.932 -1.8007 -2.6085 -1.0420
 1556TIP3    H226084   6.213   5.900  17.001  0.3198 -2.9845  1.7759
 1557TIP3   OH226085   4.062   2.501  12.637 -0.6049 -0.4003  0.1895
 1557TIP3    H126086   4.044   2.590  12.666 -2.9642 -1.3444  1.9038
 1557TIP3    H226087   4.054   2.448  12.717  2.7315 -1.9829 -0.3606
 1558TIP3   OH226088   5.227   1.541   4.694  0.0766 -0.2425 -0.3115
 1558TIP3    H126089   5.175   1.621   4.691  0.0385 -0.2823 -0.7131
 1558TIP3    H226090   5.199   1.497   4.774 -0.0881  0.0191 -0.2250
 1559TIP3   OH226091   6.351   5.804   1.115 -0.1530  0.0928 -0.4266
 1559TIP3    H126092   6.380   5.715   1.134  0.4865 -0.2314 -2.6730
 1559TIP3    H226093   6.431   5.851   1.093 -0.7297  0.6021 -1.4836
 1560TIP3   OH226094   3.871   6.213   3.803  0.1045 -0.3411  0.0983
 1560TIP3    H126095   3.897   6.121   3.794 -0.6587 -0.5047 -0.4431
 1560TIP3    H226096   3.830   6.235   3.720  0.9175  0.7052 -0.0431
 1561TIP3   OH226097   4.831   2.184   2.209  0.3023 -0.4133 -0.5010
 1561TIP3    H126098   4.781   2.117   2.254  0.2642 -0.4719 -0.6317
 1561TIP3    H226099   4.891   2.218   2.276  0.4078 -0.6628 -0.4689
 1562TIP3   OH226100   4.659   4.069  15.402  0.3946 -0.3554 -1.1105
 1562TIP3    H126101   4.585   4.123  15.375  0.9228  1.3761  0.6590
 1562TIP3    H226102   4.624   4.010  15.469  0.8025  1.4703  0.8219
 1563TIP3   OH226103   3.480   3.704  17.012 -0.0581 -0.0162 -0.8612
 1563TIP3    H126104   3.400   3.709  16.960 -0.3473 -0.7013 -0.4906
 1563TIP3    H226105   3.501   3.611  17.015  0.5582  0.1241 -0.6489
 1564TIP3   OH226106   5.004   5.236  14.309  0.2829  0.4437 -0.3129
 1564TIP3    H126107   4.924   5.187  14.290 -0.8432  2.1264 -0.2035
 1564TIP3    H226108   4.996   5.315  14.255  1.3840  1.1070  0.4685
 1565TIP3   OH226109   5.809   5.050   4.168  0.5845  0.6704  0.1621
 1565TIP3    H126110   5.802   4.983   4.235  0.1523  1.2042  0.6580
 1565TIP3    H226111   5.802   5.003   4.085 -0.4743  0.1900  0.5108
 1566TIP3   OH226112   5.683   5.862  10.563  0.2572  0.1657 -0.3169
 1566TIP3    H126113   5.709   5.777  10.597 -0.1178  0.0333 -0.3631
 1566TIP3    H226114   5.598   5.880  10.604  0.4938  0.6755 -0.0317
 1567TIP3   OH226115   5.793   2.154  11.627 -0.1026 -0.0483  0.2187
 1567TIP3    H126116   5.806   2.104  11.546  0.9317 -1.7538  1.3706
 1567TIP3    H226117   5.796   2.245  11.599  1.1525 -0.5733 -1.5505
 1568TIP3   OH226118   0.564   4.607  12.711  0.0009  0.0596 -0.5756
 1568TIP3    H126119   0.604   4.543  12.770  1.3651 -0.1660 -1.7123
 1568TIP3    H226120   0.478   4.624  12.750  0.8924  0.0382  1.5650
 1569TIP3   OH226121   6.120   0.246   1.251  0.5515  0.4379  0.5593
 1569TIP3    H126122   6.174   0.169   1.268  1.0327  1.0534  1.9535
 1569TIP3    H226123   6.169   0.318   1.290  0.3525  1.5554 -1.1304
 1570TIP3   OH226124   0.724   1.437   0.715  0.2132 -0.0598 -0.1737
 1570TIP3    H126125   0.671   1.473   0.786  0.7265 -1.5243  0.9799
 1570TIP3    H226126   0.732   1.510   0.652  0.0267  1.3844  1.4037
 1571TIP3   OH226127   2.422   5.568   0.738 -0.1450 -0.1403 -0.0868
 1571TIP3    H126128   2.366   5.548   0.663 -0.6854  0.8667  0.0257
 1571TIP3    H226129   2.416   5.491   0.794 -0.5640 -0.4771 -0.5850
 1572TIP3   OH226130   2.119   4.638   6.251  0.2411 -0.3869  0.0697
 1572TIP3    H126131   2.178   4.564   6.264 -1.0589 -1.2898  1.1391
 1572TIP3    H226132   2.141   4.700   6.321  0.5196 -0.3159 -0.0819
 1573TIP3   OH226133   6.649   4.736  11.052 -0.5159 -0.4275  0.2926
 1573TIP3    H126134   6.678   4.806  11.110 -0.4646 -0.7794  0.6948
 1573TIP3    H226135   6.557   4.754  11.036  0.1991  1.5276 -2.1545
 1574TIP3   OH226136   6.296   0.447  11.624 -1.0109  0.1805  0.1544
 1574TIP3    H126137   6.363   0.453  11.693 -0.4393 -2.2060 -0.0979
 1574TIP3    H226138   6.322   0.513  11.560  0.4078  0.1418  0.6417
 1575TIP3   OH226139   4.197   0.129   5.184  0.6799 -0.1796 -0.6444
 1575TIP3    H126140   4.222   0.046   5.225  2.3285  0.7036  0.2363
 1575TIP3    H226141   4.158   0.103   5.100  3.4456 -1.8189 -1.5825
 1576TIP3   OH226142   4.761   2.122   3.730  0.0089  0.2742 -0.6945
 1576TIP3    H126143   4.713   2.193   3.774 -1.9632 -0.6950 -1.1659
 1576TIP3    H226144   4.834   2.103   3.789 -1.1688  0.6622  0.9739
 1577TIP3   OH226145   1.029   0.631  14.122  0.1642  0.2213  0.1488
 1577TIP3    H126146   1.116   0.643  14.159 -0.1690  0.6837  0.7930
 1577TIP3    H226147   0.976   0.700  14.161 -0.6496 -0.4652  0.2785
 1578TIP3   OH226148   1.486   1.694  16.015 -0.3249  0.7822 -0.3462
 1578TIP3    H126149   1.464   1.787  16.024 -1.7472  0.5213 -0.7619
 1578TIP3    H226150   1.413   1.648  16.056  0.3391 -0.1575 -0.1929
 1579TIP3   OH226151   4.503   4.834   4.306  0.0354 -0.1307  0.6043
 1579TIP3    H126152   4.535   4.828   4.396 -0.4373 -0.9515  0.7303
 1579TIP3    H226153   4.499   4.743   4.276 -1.1691  0.0202  0.2464
 1580TIP3   OH226154   1.781   6.309   4.243  0.1210 -0.9191 -0.1076
 1580TIP3    H126155   1.700   6.356   4.221  1.0359  0.3268 -0.9454
 1580TIP3    H226156   1.819   6.286   4.159  1.7186  0.4445  0.1940
 1581TIP3   OH226157   1.607   6.518  12.275  0.4617 -0.2430  0.7796
 1581TIP3    H126158   1.613   6.514  12.180  1.0472 -1.3964  0.8505
 1581TIP3    H226159   1.634   6.607  12.297 -0.9685  0.4569 -0.2102
 1582TIP3   OH226160   5.629   0.125   0.875  0.4662  0.1459  0.0447
 1582TIP3    H126161   5.606   0.137   0.967  0.5264  0.4724  0.0170
 1582TIP3    H226162   5.559   0.170   0.827 -0.1622 -0.9365 -0.1019
 1583TIP3   OH226163   4.660   3.881  11.033 -0.0342 -0.2410 -0.2954
 1583TIP3    H126164   4.587   3.825  11.058  0.7529 -0.6084  1.2948
 1583TIP3    H226165   4.730   3.819  11.011  0.3989  0.1068  0.0916
 1584TIP3   OH226166   6.608   1.597  12.883 -0.4098 -0.4270  0.3143
 1584TIP3    H126167   6.579   1.570  12.796  0.8100 -1.3221  0.1480
 1584TIP3    H226168   6.554   1.547  12.944  0.5470 -1.9043  0.0166
 1585TIP3   OH226169   4.307   1.367   0.967 -0.2347  0.1216 -0.2453
 1585TIP3    H126170   4.375   1.410   0.915 -0.1422  0.6662  0.3176
 1585TIP3    H226171   4.280   1.292   0.913  0.0165  0.5431 -0.9767
 1586TIP3   OH226172   1.203   1.545  12.346  0.1464 -0.6977 -0.0582
 1586TIP3    H126173   1.237   1.573  12.261 -0.2043 -0.9269 -0.2751
 1586TIP3    H226174   1.196   1.626  12.396  0.3716 -0.5637 -0.2399
 1587TIP3   OH226175   2.331   3.708   4.489 -0.1361 -0.1459  0.7628
 1587TIP3    H126176   2.311   3.623   4.527 -0.9658 -0.3884 -0.1575
 1587TIP3    H226177   2.424   3.720   4.504  0.2446 -1.7609 -0.0989
 1588TIP3   OH226178   2.852   1.715  10.702 -0.0118  0.1543 -0.1272
 1588TIP3    H126179   2.785   1.766  10.657  0.5012 -0.0027 -1.0815
 1588TIP3    H226180   2.829   1.624  10.685 -0.8013  0.0314  1.3962
 1589TIP3   OH226181   4.843   6.535   1.473  0.5356 -0.0851 -0.1866
 1589TIP3    H126182   4.894   6.482   1.412 -0.4487 -0.1551 -0.9768
 1589TIP3    H226183   4.823   6.615   1.424  0.6026  0.3151  0.4192
 1590TIP3   OH226184   5.631   3.815  11.777  0.2474  0.1628 -0.1429
 1590TIP3    H126185   5.635   3.880  11.848 -0.0430 -1.5611  1.5112
 1590TIP3    H226186   5.699   3.751  11.799 -1.6325 -1.8594  0.1150
 1591TIP3   OH226187   3.032   5.384   5.573 -0.0522 -0.4061 -0.3581
 1591TIP3    H126188   3.113   5.422   5.607 -0.2498 -0.5010  0.2284
 1591TIP3    H226189   3.055   5.292   5.555 -0.0662 -0.4689 -0.0602
 1592TIP3   OH226190   1.234   2.649   3.858  0.2574 -0.1413  0.1784
 1592TIP3    H126191   1.318   2.633   3.815  1.1244  1.2427  1.2516
 1592TIP3    H226192   1.173   2.588   3.816  2.2273 -2.7692  0.8753
 1593TIP3   OH226193   2.024   5.842   0.890  0.0793  0.5954  0.1992
 1593TIP3    H126194   2.080   5.777   0.932 -0.7412 -0.5523 -0.4246
 1593TIP3    H226195   2.070   5.866   0.810 -0.2651 -0.2809 -0.2690
 1594TIP3   OH226196   3.626   2.722  16.314 -0.5398  0.3569  0.0512
 1594TIP3    H126197   3.663   2.786  16.375  0.8815 -0.4507  0.0622
 1594TIP3    H226198   3.583   2.776  16.246 -1.1301  1.2729  1.1141
 1595TIP3   OH226199   4.602   4.157  15.052  0.8582 -0.1318 -0.2458
 1595TIP3    H126200   4.689   4.178  15.019  0.1820  1.1513 -1.3401
 1595TIP3    H226201   4.576   4.235  15.102 -0.1906  0.0860 -1.0964
 1596TIP3   OH226202   1.136   4.922  11.046 -0.5683 -0.0975 -0.3552
 1596TIP3    H126203   1.172   4.996  10.997 -0.3130  1.0144  1.4384
 1596TIP3    H226204   1.211   4.862  11.058  0.0385  0.8811  0.9307
 1597TIP3   OH226205   4.580   1.664  11.800 -0.4639  0.3039 -0.1058
 1597TIP3    H126206   4.549   1.739  11.749 -1.1418 -0.4130 -0.7784
 1597TIP3    H226207   4.508   1.601  11.796 -0.7629  0.4237  2.2009
 1598TIP3   OH226208   0.785   3.652   4.531  0.6019 -0.4151 -0.2355
 1598TIP3    H126209   0.765   3.589   4.600  0.6037 -1.9205 -1.5306
 1598TIP3    H226210   0.800   3.598   4.453 -1.6545  1.2419 -1.9842
 1599TIP3   OH226211   2.369   0.674   5.524 -0.9372 -0.0533  0.4911
 1599TIP3    H126212   2.387   0.583   5.500 -0.4640  0.3560 -0.8065
 1599TIP3    H226213   2.329   0.711   5.446  0.2568  1.2381  0.4550
 1600TIP3   OH226214   4.241   3.425   2.575  0.0164  0.4144  0.3492
 1600TIP3    H126215   4.228   3.427   2.480  1.1271 -1.6590  0.0807
 1600TIP3    H226216   4.157   3.393   2.609 -0.4344  1.2979  0.1058
 1601TIP3   OH226217   3.167   4.732   6.780  0.7536  0.3407  0.1163
 1601TIP3    H126218   3.103   4.705   6.846 -0.9103  1.1901 -1.0675
 1601TIP3    H226219   3.215   4.805   6.821 -0.0908  0.6994  0.4921
 1602TIP3   OH226220   3.236   2.535   2.641  0.0007  0.1643  0.1060
 1602TIP3    H126221   3.205   2.547   2.552  0.4193  0.0737 -0.0520
 1602TIP3    H226222   3.331   2.547   2.636 -0.2475  3.7949  1.1022
 1603TIP3   OH226223   6.745   1.434  16.640  0.0458 -0.3731 -0.1377
 1603TIP3    H126224   6.807   1.389  16.697 -1.8096 -0.5024  1.9327
 1603TIP3    H226225   6.665   1.382  16.647 -0.9314  0.9545 -1.0145
 1604TIP3   OH226226   2.020   4.388   3.183 -0.2879  0.4842  0.3935
 1604TIP3    H126227   2.042   4.454   3.118 -0.5405 -0.1460 -0.3497
 1604TIP3    H226228   1.964   4.433   3.245  1.4610  1.6055  1.2493
 1605TIP3   OH226229   4.257   5.176  15.347 -0.4569 -0.3185  0.0294
 1605TIP3    H126230   4.210   5.134  15.419  1.2906 -2.9579 -0.2315
 1605TIP3    H226231   4.201   5.250  15.322 -1.4670  0.3240  3.5769
 1606TIP3   OH226232   0.746   4.745   1.148 -0.6586 -0.2051  0.2642
 1606TIP3    H126233   0.830   4.753   1.193 -0.7352  0.2300  0.3332
 1606TIP3    H226234   0.750   4.809   1.077 -0.9630 -0.1311  0.3130
 1607TIP3   OH226235   4.396   5.691  16.701  0.4275  0.1723  0.4856
 1607TIP3    H126236   4.446   5.772  16.699  0.0707  0.3824 -0.5845
 1607TIP3    H226237   4.441   5.633  16.640  1.3842 -0.8986  2.1175
 1608TIP3   OH226238   0.747   1.817  12.433  0.3704  0.0772  0.1050
 1608TIP3    H126239   0.808   1.886  12.405 -0.4547  0.4278 -0.8791
 1608TIP3    H226240   0.790   1.736  12.408 -0.7038  0.3806 -3.1573
 1609TIP3   OH226241   4.469   6.092  15.205  0.3111  0.1977  0.8095
 1609TIP3    H126242   4.530   6.072  15.134 -0.1548  0.3175  0.3655
 1609TIP3    H226243   4.473   6.187  15.214  0.0168  0.2299  0.6171
 1610TIP3   OH226244   5.538   4.522   4.228 -0.9674 -0.3559 -0.6254
 1610TIP3    H126245   5.515   4.552   4.141  1.2445 -3.3627 -2.4779
 1610TIP3    H226246   5.629   4.550   4.240 -0.6033 -1.6492 -0.1775
 1611TIP3   OH226247   0.674   6.625  17.046 -0.4505 -0.0534 -0.3671
 1611TIP3    H126248   0.713   6.539  17.028 -0.0703  0.0427 -0.0100
 1611TIP3    H226249   0.589   6.622  17.002  0.3144  0.0525 -1.9263
 1612TIP3   OH226250   5.471   5.239   3.746  0.0083  0.1002  0.3714
 1612TIP3    H126251   5.480   5.235   3.841 -2.9494 -2.2661  0.6813
 1612TIP3    H226252   5.388   5.285   3.732 -1.0530 -2.0827 -0.8861
 1613TIP3   OH226253   1.056   0.357  16.172 -0.6454  0.3862  1.0480
 1613TIP3    H126254   1.150   0.351  16.190 -0.4363 -0.9131 -0.2333
 1613TIP3    H226255   1.014   0.315  16.247 -0.1155 -0.0381  1.1164
 1614TIP3   OH226256   4.114   5.880   3.774  0.4563  0.3156  0.6066
 1614TIP3    H126257   4.035   5.892   3.723  0.5728  3.0458  0.9540
 1614TIP3    H226258   4.175   5.945   3.741  2.0392 -0.6964  1.3956
 1615TIP3   OH226259   1.168   4.448  12.147 -0.0516  0.3784  0.1508
 1615TIP3    H126260   1.197   4.363  12.112 -1.4022  0.3067 -0.8781
 1615TIP3    H226261   1.111   4.425  12.220 -0.1816  0.4058  0.0583
 1616TIP3   OH226262   2.244   4.004   4.328  0.2024 -0.0987 -0.0613
 1616TIP3    H126263   2.295   4.052   4.394  1.1261  0.3611 -1.0840
 1616TIP3    H226264   2.182   3.953   4.379  2.0419 -1.1086  1.2959
 1617TIP3   OH226265   1.576   4.393  12.454  0.3639  0.5240  0.0494
 1617TIP3    H126266   1.492   4.424  12.419 -1.1412 -2.0377  1.0914
 1617TIP3    H226267   1.625   4.365  12.377 -1.1621 -1.0735 -0.4102
 1618TIP3   OH226268   1.944   6.585   0.119 -0.2697  0.1802  0.0371
 1618TIP3    H126269   1.856   6.617   0.101 -1.3371  0.9289  5.0567
 1618TIP3    H226270   1.936   6.489   0.114 -1.3544  0.2479  0.3117
 1619TIP3   OH226271   1.841   4.095  12.523 -0.1525  0.1379 -0.4877
 1619TIP3    H126272   1.878   4.079  12.436  0.5612 -0.6246 -0.0478
 1619TIP3    H226273   1.747   4.078  12.512 -0.4024  1.8771 -1.5560
 1620TIP3   OH226274   1.633   0.366  10.886  0.3907  0.4060  0.0003
 1620TIP3    H126275   1.588   0.291  10.925  1.2906 -0.7890 -1.1389
 1620TIP3    H226276   1.577   0.392  10.813  0.6960 -0.0309 -0.4053
 1621TIP3   OH226277   1.830   4.185   3.448 -0.1509 -0.0111  0.2201
 1621TIP3    H126278   1.817   4.093   3.427 -0.9118  0.0679  0.3243
 1621TIP3    H226279   1.919   4.189   3.485 -0.5044 -0.8788  1.2226
 1622TIP3   OH226280   0.957   5.709   5.987 -0.2253  0.1842 -0.1601
 1622TIP3    H126281   0.959   5.788   6.041 -0.5631  0.2856 -0.2978
 1622TIP3    H226282   1.027   5.654   6.023  0.5951  0.9121 -0.6295
 1623TIP3   OH226283   4.810   4.652   4.743  0.3721  0.1836 -0.1267
 1623TIP3    H126284   4.831   4.739   4.709  0.5299  0.3774  0.4447
 1623TIP3    H226285   4.778   4.669   4.832  1.0067 -0.3862  0.2195
 1624TIP3   OH226286   2.057   5.223  13.961  0.1904  0.2642  0.5202
 1624TIP3    H126287   2.106   5.189  14.036  2.3926 -1.2744 -1.4829
 1624TIP3    H226288   2.122   5.236  13.893 -1.8316  0.7580 -1.4437
 1625TIP3   OH226289   6.405   4.820  17.132  0.1499 -0.0048  0.1790
 1625TIP3    H126290   6.350   4.744  17.152  0.8477 -0.5445  0.0948
 1625TIP3    H226291   6.466   4.825  17.206 -0.3507  0.9291  0.5525
 1626TIP3   OH226292   1.712   5.677   5.200 -0.3421  0.1388  1.2343
 1626TIP3    H126293   1.807   5.685   5.187 -0.6526  0.5603 -1.1099
 1626TIP3    H226294   1.703   5.613   5.270  1.6674 -0.0807  1.3454
 1627TIP3   OH226295   1.144   3.782   5.719  0.2192 -0.3437  0.1852
 1627TIP3    H126296   1.180   3.824   5.797  1.8335 -1.8177  0.2914
 1627TIP3    H226297   1.154   3.688   5.735  1.4053 -0.6859 -2.1252
 1628TIP3   OH226298   4.616   6.356  14.511 -0.1280  0.1619 -0.0493
 1628TIP3    H126299   4.548   6.289  14.522 -1.1203  1.1525  0.0228
 1628TIP3    H226300   4.698   6.308  14.518 -0.8004 -1.3267 -1.6644
 1629TIP3   OH226301   6.201   0.964   2.405 -0.0626  0.0894  0.3346
 1629TIP3    H126302   6.245   0.910   2.470 -0.4721  0.2870  0.7836
 1629TIP3    H226303   6.108   0.958   2.427 -0.1735  0.4392 -0.0154
 1630TIP3   OH226304   4.439   5.364  16.823 -0.9451  0.3818 -0.3841
 1630TIP3    H126305   4.512   5.316  16.784 -0.5941 -1.2606  2.1200
 1630TIP3    H226306   4.480   5.437  16.869 -1.3816  2.4875 -3.0522
 1631TIP3   OH226307   3.256   3.713   5.726 -0.5929 -0.3067  0.1724
 1631TIP3    H126308   3.202   3.678   5.655 -0.1828 -0.6364  0.0176
 1631TIP3    H226309   3.268   3.639   5.786  1.0260 -0.7197 -0.6078
 1632TIP3   OH226310   6.293   2.153  11.527  0.1503 -0.0951 -0.3581
 1632TIP3    H126311   6.228   2.173  11.594  0.9434 -1.0964  0.7535
 1632TIP3    H226312   6.319   2.239  11.492 -0.0384  0.4715  0.8577
 1633TIP3   OH226313   6.474   3.525   3.735  0.0465  0.2315 -0.1198
 1633TIP3    H126314   6.405   3.477   3.781  0.0914 -1.2736 -1.5446
 1633TIP3    H226315   6.554   3.476   3.755  0.9677  2.4599  2.2572
 1634TIP3   OH226316   6.696   2.306  14.118 -0.5437  0.8521 -0.3561
 1634TIP3    H126317   6.677   2.229  14.064  1.1653  0.6375 -0.7072
 1634TIP3    H226318   6.783   2.334  14.090 -0.8386  2.4895  0.2799
 1635TIP3   OH226319   4.350   0.010  13.029 -0.0235  0.2426 -0.1904
 1635TIP3    H126320   4.254   0.016  13.029 -0.0930 -0.6158  0.4857
 1635TIP3    H226321   4.368  -0.082  13.048  0.9146  0.9988  3.3990
 1636TIP3   OH226322   0.854   2.015  11.283  0.0461  0.1060  0.0465
 1636TIP3    H126323   0.858   1.947  11.217  0.8391 -0.6104  0.8117
 1636TIP3    H226324   0.943   2.022  11.317  0.3297  2.5350 -0.9947
 1637TIP3   OH226325   1.212   2.633   2.375  0.3375 -0.5846  0.2739
 1637TIP3    H126326   1.227   2.718   2.417 -1.1821 -0.4526  0.6187
 1637TIP3    H226327   1.166   2.655   2.293  0.9594 -1.0157 -0.2013
 1638TIP3   OH226328   0.606   5.016   4.328 -0.1745  0.0967 -0.3059
 1638TIP3    H126329   0.662   5.058   4.262 -2.8015  3.0431 -0.9740
 1638TIP3    H226330   0.600   5.080   4.399 -0.6609 -1.2398  0.9056
 1639TIP3   OH226331   4.796   3.852  14.543  0.4764 -0.3804  0.1035
 1639TIP3    H126332   4.702   3.845  14.558  0.0530  0.3778 -1.9330
 1639TIP3    H226333   4.823   3.927  14.595 -0.2637  0.0539 -0.1199
 1640TIP3   OH226334   6.672   2.887   5.093  0.1394  0.2522 -0.3831
 1640TIP3    H126335   6.625   2.813   5.053  1.4569 -0.6542 -0.3123
 1640TIP3    H226336   6.678   2.951   5.022 -1.3318  0.4692 -0.3438
 1641TIP3   OH226337   4.936   3.097   2.555 -0.5207  0.0896  0.3477
 1641TIP3    H126338   4.844   3.124   2.547 -0.1119  1.2868 -0.7136
 1641TIP3    H226339   4.932   3.008   2.590 -2.0571  0.4129  1.0914
 1642TIP3   OH226340   4.046   6.492  11.504 -0.0856 -0.1727 -0.3389
 1642TIP3    H126341   4.085   6.552  11.567  1.9505 -0.3443 -1.3680
 1642TIP3    H226342   3.963   6.533  11.480 -0.8403  0.0036  2.2445
 1643TIP3   OH226343   5.288   2.874   2.844 -0.0436 -0.3700  0.0349
 1643TIP3    H126344   5.342   2.805   2.805 -0.6380 -0.1816 -1.1478
 1643TIP3    H226345   5.272   2.936   2.773 -1.5439 -0.2384  0.4491
 1644TIP3   OH226346   1.882   4.370  10.597 -0.0951  0.2334  0.1276
 1644TIP3    H126347   1.832   4.289  10.598 -0.9528  0.7426  1.7599
 1644TIP3    H226348   1.816   4.439  10.599  0.6327  0.9373  1.1028
 1645TIP3   OH226349   3.748   2.651   1.823 -0.0397 -0.7080 -0.1116
 1645TIP3    H126350   3.787   2.738   1.822 -2.0615  0.2738 -1.7089
 1645TIP3    H226351   3.668   2.661   1.875 -0.2073 -1.6512 -0.1664
 1646TIP3   OH226352   4.038   1.904  15.811  0.4754 -0.0422  0.3416
 1646TIP3    H126353   4.050   1.938  15.900  1.7386 -1.0707  0.5985
 1646TIP3    H226354   4.051   1.810  15.819 -0.5629 -0.3057 -0.7576
 1647TIP3   OH226355   0.628   0.229   2.949 -0.1196  0.0871 -0.0079
 1647TIP3    H126356   0.706   0.204   2.900 -0.6285  0.5176 -1.0856
 1647TIP3    H226357   0.575   0.149   2.953 -0.5260  0.2861 -1.0675
 1648TIP3   OH226358   0.281   0.580   3.003 -0.2328  0.0874  0.1505
 1648TIP3    H126359   0.235   0.577   2.919  1.3819 -0.8510 -0.7584
 1648TIP3    H226360   0.373   0.571   2.980  0.4514  1.8264  1.9078
 1649TIP3   OH226361   2.449   3.625   2.801 -0.9476 -0.2535 -0.5778
 1649TIP3    H126362   2.528   3.592   2.760 -0.6560 -0.4889  0.1497
 1649TIP3    H226363   2.445   3.580   2.885 -0.8810  1.0941  0.1757
 1650TIP3   OH226364   3.762   0.360   5.812 -0.2241  0.5368 -0.1765
 1650TIP3    H126365   3.694   0.402   5.865 -0.7478 -1.7904  1.1230
 1650TIP3    H226366   3.713   0.316   5.742  0.1382  0.5465 -0.4383
 1651TIP3   OH226367   2.255   6.698   4.660 -0.0669  0.2678 -0.2511
 1651TIP3    H126368   2.344   6.671   4.678  0.6530  0.9679 -2.4093
 1651TIP3    H226369   2.246   6.782   4.705 -0.6996 -1.0975  2.4007
 1652TIP3   OH226370   0.340   4.282   0.092 -0.2190 -0.4930 -0.6046
 1652TIP3    H126371   0.307   4.325   0.013  0.9421  0.1553 -0.7579
 1652TIP3    H226372   0.356   4.191   0.065  1.1344 -0.0407 -1.4243
 1653TIP3   OH226373   6.417   3.425   1.874 -0.4795 -0.2558  0.2439
 1653TIP3    H126374   6.351   3.465   1.817 -0.7976 -0.1577  0.6652
 1653TIP3    H226375   6.409   3.474   1.956 -1.0709 -1.3530  0.8659
 1654TIP3   OH226376   2.611   3.484  13.186 -0.6630  0.1277 -0.1016
 1654TIP3    H126377   2.564   3.414  13.232 -0.0712 -1.0421 -1.2264
 1654TIP3    H226378   2.605   3.559  13.245  0.1097 -1.3124  1.9022
 1655TIP3   OH226379   3.240   1.289   6.317  0.6185 -0.1502 -0.3797
 1655TIP3    H126380   3.250   1.315   6.408  1.8626 -1.4445 -0.1001
 1655TIP3    H226381   3.154   1.247   6.312  0.6333 -0.2536  0.2498
 1656TIP3   OH226382   0.855   2.818   1.696 -0.4511 -0.0327 -0.2129
 1656TIP3    H126383   0.768   2.797   1.732  0.1118 -0.0799  1.1914
 1656TIP3    H226384   0.888   2.888   1.752  0.7715 -0.6152 -0.1788
 1657TIP3   OH226385   4.862   0.967  14.648 -0.2062  0.6223  0.0952
 1657TIP3    H126386   4.940   1.023  14.658  1.1740 -0.7386 -2.1789
 1657TIP3    H226387   4.874   0.897  14.712 -0.0255  0.8980  0.3654
 1658TIP3   OH226388   5.735   5.631  12.127 -0.1522  0.1222 -0.0588
 1658TIP3    H126389   5.709   5.612  12.036 -0.3875  0.4257 -0.0578
 1658TIP3    H226390   5.687   5.567  12.179 -1.1131  0.8225 -0.0366
 1659TIP3   OH226391   3.157   3.571   3.164  0.6137  0.4895 -0.2094
 1659TIP3    H126392   3.208   3.594   3.087 -0.8959  2.0959 -0.8148
 1659TIP3    H226393   3.171   3.645   3.224 -1.1234  1.0883 -0.4893
 1660TIP3   OH226394   0.840   6.477  10.543  0.4506 -0.1462 -0.4078
 1660TIP3    H126395   0.867   6.526  10.620 -0.1460  0.4528 -0.5726
 1660TIP3    H226396   0.913   6.486  10.482  0.8778 -0.5306  0.0388
 1661TIP3   OH226397   6.456   4.467  13.391 -0.0931 -0.3297 -0.8780
 1661TIP3    H126398   6.459   4.390  13.334  0.0653 -2.0540  1.3092
 1661TIP3    H226399   6.363   4.489  13.397 -0.0445  0.3889 -2.3890
 1662TIP3   OH226400   5.106   3.797  13.283  0.4609  0.0120 -0.3498
 1662TIP3    H126401   5.020   3.811  13.322 -0.0057 -1.6530 -0.6838
 1662TIP3    H226402   5.120   3.702  13.289  2.5029  0.3035  0.1409
 1663TIP3   OH226403   4.593   2.267   5.761 -0.1638 -0.6326 -0.2074
 1663TIP3    H126404   4.586   2.232   5.849 -0.1889 -2.7356 -0.9916
 1663TIP3    H226405   4.601   2.362   5.773  0.8997 -0.9545  2.0775
 1664TIP3   OH226406   4.877   2.501  14.441 -0.0325 -0.2832 -1.0236
 1664TIP3    H126407   4.847   2.411  14.452 -0.7808 -0.3536 -3.0682
 1664TIP3    H226408   4.878   2.514  14.346  0.3629  1.7669 -0.7889
 1665TIP3   OH226409   4.952   2.276  11.368  0.4401 -0.2367  0.3036
 1665TIP3    H126410   4.919   2.264  11.279 -0.3868 -1.3328  0.7437
 1665TIP3    H226411   4.960   2.371  11.378  0.7121 -0.1020 -0.9924
 1666TIP3   OH226412   4.079   5.614   4.695 -0.1762 -0.6150  0.5380
 1666TIP3    H126413   4.036   5.555   4.632  2.3878 -0.6801 -1.2988
 1666TIP3    H226414   4.094   5.560   4.772 -0.5021 -1.5098 -0.0045
 1667TIP3   OH226415   0.177   1.346   2.242 -0.0831 -0.5950 -0.0326
 1667TIP3    H126416   0.125   1.425   2.226 -1.0948 -0.9888  1.1400
 1667TIP3    H226417   0.268   1.375   2.231 -0.4876  0.4331 -0.8240
 1668TIP3   OH226418   5.425   3.132  15.061  0.5979  0.1518 -0.2490
 1668TIP3    H126419   5.511   3.089  15.070  0.4645  0.2707  2.0008
 1668TIP3    H226420   5.420   3.154  14.968  1.9329 -2.0736 -0.9371
 1669TIP3   OH226421   3.662   6.371   6.544  0.3337  0.2653  0.0981
 1669TIP3    H126422   3.623   6.399   6.627 -3.8805  2.0115 -2.1434
 1669TIP3    H226423   3.628   6.282   6.531 -3.8976  1.8994 -2.0085
 1670TIP3   OH226424   2.679   6.117  13.334  0.4528  0.6731 -0.3527
 1670TIP3    H126425   2.620   6.190  13.353  0.5725  0.3991  1.1606
 1670TIP3    H226426   2.765   6.147  13.362  0.4297 -0.1911  0.6910
 1671TIP3   OH226427   6.144   6.291  13.423 -0.0588 -0.4379  0.4123
 1671TIP3    H126428   6.155   6.218  13.485  0.2573  0.8409  1.9380
 1671TIP3    H226429   6.227   6.295  13.376  0.2509 -0.5420  0.9352
 1672TIP3   OH226430   1.460   4.246  13.926  0.3739  0.6979 -0.4004
 1672TIP3    H126431   1.423   4.161  13.903 -0.2567  1.3061 -1.6996
 1672TIP3    H226432   1.554   4.237  13.909  0.6070 -0.2609  1.1499
 1673TIP3   OH226433   3.496   0.107  11.213 -0.0854  0.6469  0.4865
 1673TIP3    H126434   3.418   0.148  11.176 -1.0543  0.4897  2.2233
 1673TIP3    H226435   3.489   0.015  11.186 -1.3843  0.2839  1.8841
 1674TIP3   OH226436   3.853   1.421   3.376  0.0638 -0.3355 -0.4304
 1674TIP3    H126437   3.913   1.474   3.429  1.7336  0.3462 -2.8372
 1674TIP3    H226438   3.785   1.482   3.348  0.1933 -0.2476 -0.5548
 1675TIP3   OH226439   4.892   1.012   3.889 -0.0942  0.0063  0.4484
 1675TIP3    H126440   4.889   1.106   3.873 -0.0627 -0.0792 -0.1041
 1675TIP3    H226441   4.833   0.975   3.823  1.5389 -0.5242 -0.8009
 1676TIP3   OH226442   5.249   2.705  13.405  0.1253  0.3951  0.0449
 1676TIP3    H126443   5.207   2.769  13.347  1.1846  1.1664  0.0943
 1676TIP3    H226444   5.219   2.730  13.492  0.9612  1.1790  0.1171
 1677TIP3   OH226445   5.065   3.257   0.862 -0.0383 -0.7826 -0.7611
 1677TIP3    H126446   5.057   3.307   0.943  1.0758 -0.1210 -1.0322
 1677TIP3    H226447   5.077   3.324   0.794  4.7940 -1.3052 -0.7750
 1678TIP3   OH226448   3.318   1.104  15.106  0.0550  0.0969  0.2092
 1678TIP3    H126449   3.272   1.074  15.184 -0.1553 -0.7916 -0.2434
 1678TIP3    H226450   3.254   1.094  15.035 -0.1029  1.8415  0.0545
 1679TIP3   OH226451   1.946   6.288  12.566  0.2056 -0.0234  0.0900
 1679TIP3    H126452   1.967   6.381  12.569  1.9820 -0.3125 -1.3609
 1679TIP3    H226453   1.984   6.253  12.647  2.0565  0.1282 -0.6507
 1680TIP3   OH226454   6.016   1.901   5.421  0.4655 -0.0411  0.4430
 1680TIP3    H126455   6.072   1.941   5.354 -0.5646  2.1305  0.7707
 1680TIP3    H226456   5.932   1.947   5.411 -0.2666 -0.9799  2.0203
 1681TIP3   OH226457   4.616   4.040  13.765  0.2736  0.4644  0.2397
 1681TIP3    H126458   4.698   4.046  13.812  0.3858 -0.1568  0.1352
 1681TIP3    H226459   4.621   4.110  13.699  1.2536 -0.3371 -0.5711
 1682TIP3   OH226460   4.310   5.459   0.172  0.1927  0.3049  0.3128
 1682TIP3    H126461   4.227   5.424   0.140 -0.2432  0.8595  0.8066
 1682TIP3    H226462   4.376   5.422   0.114 -0.2771 -1.0867  0.6271
 1683TIP3   OH226463   3.259   6.099   4.459 -0.3878  0.3542  0.2863
 1683TIP3    H126464   3.210   6.172   4.498 -0.2804 -0.4133  1.9177
 1683TIP3    H226465   3.312   6.065   4.530  0.3807 -0.6536 -0.7344
 1684TIP3   OH226466   0.840   5.721  10.520  0.3824 -0.1440  0.3205
 1684TIP3    H126467   0.817   5.770  10.599  0.7835 -0.8697  0.8982
 1684TIP3    H226468   0.822   5.782  10.448 -2.1392 -0.2465  0.7998
 1685TIP3   OH226469   0.344   5.035   6.009 -0.2162  0.2960  0.0029
 1685TIP3    H126470   0.273   5.026   5.946 -1.2699  0.0863  1.1786
 1685TIP3    H226471   0.316   5.106   6.067  0.2874 -0.1324  0.7918
 1686TIP3   OH226472   2.030   0.583   5.171  0.0066 -0.4712  0.2603
 1686TIP3    H126473   2.055   0.661   5.121  0.5977  0.0584  1.3372
 1686TIP3    H226474   1.969   0.536   5.114  1.0525 -0.1633 -1.1592
 1687TIP3   OH226475   2.146   1.290   4.545  0.1870 -0.5405 -0.0964
 1687TIP3    H126476   2.221   1.294   4.605  0.2630 -0.2020 -0.2076
 1687TIP3    H226477   2.142   1.378   4.506 -1.4231  0.0579  1.2918
 1688TIP3   OH226478   2.050   3.087   3.895  0.0064 -0.3456  0.1654
 1688TIP3    H126479   1.976   3.146   3.879  1.5460  0.8048 -4.0752
 1688TIP3    H226480   2.009   3.004   3.920 -2.6807  0.5527 -0.8592
 1689TIP3   OH226481   2.814   3.124   3.604 -0.3134  0.1621  0.2766
 1689TIP3    H126482   2.728   3.093   3.576 -0.1358  0.2554 -0.3860
 1689TIP3    H226483   2.796   3.175   3.683 -0.7955 -0.2896  0.4680
 1690TIP3   OH226484   6.023   3.079  14.224 -0.3859  0.2239  0.4140
 1690TIP3    H126485   6.085   3.118  14.163 -1.7195  0.1429 -1.0506
 1690TIP3    H226486   5.960   3.033  14.169 -1.3709 -0.2672  1.8737
 1691TIP3   OH226487   2.368   5.826  13.278  0.1577  0.0811  0.2535
 1691TIP3    H126488   2.358   5.827  13.374 -0.5725  0.9821  0.1751
 1691TIP3    H226489   2.463   5.826  13.264  0.2727  0.4449  0.9808
 1692TIP3   OH226490   5.031   2.561  16.371  0.0236  0.1664 -0.4532
 1692TIP3    H126491   5.084   2.543  16.293  1.3107 -0.0890  0.4402
 1692TIP3    H226492   5.038   2.481  16.423 -0.5492  0.4571  0.0770
 1693TIP3   OH226493   1.047   5.547   5.485 -0.4216 -0.0099 -0.4422
 1693TIP3    H126494   0.970   5.492   5.472  0.4324 -1.4983  0.5382
 1693TIP3    H226495   1.074   5.572   5.396 -0.3812 -1.8380 -0.9855
 1694TIP3   OH226496   3.682   0.283   4.212 -0.2765  0.0542 -0.5701
 1694TIP3    H126497   3.590   0.272   4.187 -0.0480 -0.4074 -1.2377
 1694TIP3    H226498   3.694   0.378   4.219 -1.0729  0.0862  0.5945
 1695TIP3   OH226499   3.951   1.973  13.552  0.2611 -0.1691  0.6880
 1695TIP3    H126500   3.975   1.904  13.491  0.3764  0.6738 -0.2486
 1695TIP3    H226501   3.858   1.960  13.570 -0.3540  0.8809 -1.4511
 1696TIP3   OH226502   4.790   4.360  14.699 -0.4979 -0.2338 -0.2387
 1696TIP3    H126503   4.818   4.408  14.622  0.4491 -0.3609  0.0128
 1696TIP3    H226504   4.728   4.295  14.666 -0.5319  0.0805 -0.8063
 1697TIP3   OH226505   5.900   4.696  16.396  0.0870 -0.0186 -0.2513
 1697TIP3    H126506   5.963   4.753  16.439 -1.0705  1.2097 -0.1417
 1697TIP3    H226507   5.951   4.649  16.330  1.5912 -0.8237  1.4008
 1698TIP3   OH226508   3.825   2.454   4.637 -0.4079  0.4960 -0.9291
 1698TIP3    H126509   3.757   2.522   4.635 -0.8732  0.1535  1.0705
 1698TIP3    H226510   3.889   2.487   4.701 -0.2223 -0.5650 -0.5558
 1699TIP3   OH226511   2.690   1.363  16.457 -0.3508  0.2889 -0.0612
 1699TIP3    H126512   2.638   1.376  16.536  0.0965 -0.4057  0.3573
 1699TIP3    H226513   2.655   1.427  16.394 -0.7907  0.7584  0.6518
 1700TIP3   OH226514   2.084   4.255  11.116 -0.4807 -0.0348  0.1573
 1700TIP3    H126515   2.097   4.161  11.130  0.3340  0.4301  3.2977
 1700TIP3    H226516   2.031   4.261  11.037 -0.7631 -3.1431  0.0122
 1701TIP3   OH226517   3.237   3.805  12.322 -0.2013 -0.2363 -0.6479
 1701TIP3    H126518   3.141   3.798  12.325 -0.1845 -0.9493 -1.3920
 1701TIP3    H226519   3.260   3.771  12.236  0.7731 -0.6225 -0.2427
 1702TIP3   OH226520   3.661   3.511   2.694 -0.2179  0.1095 -0.2437
 1702TIP3    H126521   3.663   3.586   2.754 -0.1663 -0.9265  1.1014
 1702TIP3    H226522   3.641   3.549   2.609  0.3515  1.7185  0.2962
 1703TIP3   OH226523   4.932   2.927   0.178 -0.0777 -0.4407  0.3040
 1703TIP3    H126524   4.994   2.997   0.158  0.7301 -0.9471  0.9714
 1703TIP3    H226525   4.850   2.972   0.194  0.2050  0.2788 -0.2010
 1704TIP3   OH226526   0.658   0.881  10.594 -0.3297  0.3470  0.0580
 1704TIP3    H126527   0.705   0.844  10.519 -1.6907 -4.6004  1.2948
 1704TIP3    H226528   0.581   0.922  10.556 -0.4206 -1.0591 -1.3944
 1705TIP3   OH226529   6.327   2.546  14.702 -0.3803  0.6664 -0.0646
 1705TIP3    H126530   6.317   2.604  14.626  0.3108  0.6335 -0.1917
 1705TIP3    H226531   6.310   2.459  14.667  0.8468  0.5385 -0.4231
 1706TIP3   OH226532   5.082   0.733  10.963 -0.4107  0.2341 -0.3509
 1706TIP3    H126533   5.017   0.735  11.033 -2.3919 -0.0897 -2.0723
 1706TIP3    H226534   5.131   0.652  10.978 -0.4694  0.4103  0.9028
 1707TIP3   OH226535   5.457   0.457  13.944  0.1156 -0.7105  0.0450
 1707TIP3    H126536   5.467   0.388  13.879  2.2316 -0.8701  0.4636
 1707TIP3    H226537   5.463   0.538  13.894  1.0867 -0.8365 -0.0632
 1708TIP3   OH226538   3.751   1.126   0.217  0.2992 -0.2262  0.1371
 1708TIP3    H126539   3.777   1.189   0.150  0.1041  1.4600  1.5638
 1708TIP3    H226540   3.673   1.083   0.181  0.7675 -0.0693 -1.1067
 1709TIP3   OH226541   4.571   2.527   5.830  0.0203  0.1008 -0.4177
 1709TIP3    H126542   4.640   2.518   5.896 -0.0374 -0.8881 -0.4821
 1709TIP3    H226543   4.507   2.587   5.870  0.2229 -0.1087  0.2231
 1710TIP3   OH226544   0.145   5.505  16.081  0.1024  0.2242 -0.0212
 1710TIP3    H126545   0.079   5.564  16.118  0.4934  1.4585 -1.2101
 1710TIP3    H226546   0.112   5.486  15.993 -0.5306 -2.1980  0.6740
 1711TIP3   OH226547   3.425   4.136   1.701 -0.3692 -0.4876  0.0066
 1711TIP3    H126548   3.407   4.207   1.763 -0.0821  0.6792 -1.1945
 1711TIP3    H226549   3.517   4.115   1.716  0.2038  0.9929 -1.1379
 1712TIP3   OH226550   5.420   5.624   0.753 -0.5677  0.1091 -0.3038
 1712TIP3    H126551   5.471   5.701   0.728 -1.9630  0.3085 -2.8613
 1712TIP3    H226552   5.333   5.658   0.775 -1.2523 -0.6843 -1.6425
 1713TIP3   OH226553   4.517   3.204   5.703  0.3911 -0.4341  0.0945
 1713TIP3    H126554   4.577   3.274   5.675  1.7601 -0.6706  2.2133
 1713TIP3    H226555   4.548   3.127   5.656  1.0686 -0.3217  0.3401
 1714TIP3   OH226556   3.997   3.694  12.569 -0.4503  0.6884 -0.0436
 1714TIP3    H126557   3.961   3.605  12.573 -1.0396  0.8692 -0.9966
 1714TIP3    H226558   3.968   3.734  12.651 -0.0278 -0.0419  0.4804
 1715TIP3   OH226559   4.552   1.573   2.837 -0.4776  0.1738  0.0362
 1715TIP3    H126560   4.505   1.489   2.840 -0.3822  0.0548  4.4891
 1715TIP3    H226561   4.643   1.549   2.823 -0.8059 -0.1136 -1.9104
 1716TIP3   OH226562   3.356   0.446  13.448  0.1338  0.2087 -0.5610
 1716TIP3    H126563   3.333   0.510  13.380  2.6851  1.0670 -0.7418
 1716TIP3    H226564   3.438   0.479  13.485  0.1774 -1.6248  1.1579
 1717TIP3   OH226565   6.278   3.019  11.893  0.7428 -0.1358 -0.0732
 1717TIP3    H126566   6.342   3.006  11.822  0.6593  0.1718 -0.2042
 1717TIP3    H226567   6.307   3.097  11.938  0.2504  0.2196 -0.3639
 1718TIP3   OH226568   4.664   3.178   4.973  0.4262 -0.1072  0.4255
 1718TIP3    H126569   4.608   3.120   5.025  0.9276  0.0988  1.2156
 1718TIP3    H226570   4.746   3.181   5.022  0.9007  0.1137 -0.3813
 1719TIP3   OH226571   5.377   5.598   5.660  0.2682 -0.0156  0.2352
 1719TIP3    H126572   5.338   5.667   5.606 -0.6507 -1.2450 -0.7441
 1719TIP3    H226573   5.302   5.560   5.707  0.5153 -1.2441 -0.3186
 1720TIP3   OH226574   6.500   4.626  11.957  0.0506 -0.0456  0.1630
 1720TIP3    H126575   6.588   4.591  11.944 -0.1783 -0.8970  0.8577
 1720TIP3    H226576   6.494   4.698  11.894  1.6369  0.7722  0.8891
 1721TIP3   OH226577   6.115   1.457   3.144 -0.8178  0.1899 -0.1455
 1721TIP3    H126578   6.043   1.458   3.080 -0.2784 -1.4796 -0.8360
 1721TIP3    H226579   6.135   1.365   3.155 -0.4153  0.4874  1.9547
 1722TIP3   OH226580   2.928   5.389   5.127 -0.2593 -0.1523  0.0547
 1722TIP3    H126581   2.886   5.473   5.146 -0.5376  0.1235 -1.6205
 1722TIP3    H226582   3.021   5.410   5.124 -0.2096 -0.1934  0.9654
 1723TIP3   OH226583   0.472   3.138  12.764 -0.3391 -0.0893 -1.0758
 1723TIP3    H126584   0.510   3.052  12.748  0.0097 -0.0290 -0.6002
 1723TIP3    H226585   0.472   3.148  12.859 -0.8859  0.2121 -1.1000
 1724TIP3   OH226586   6.393   2.012   4.063  0.0511 -0.2375  0.1097
 1724TIP3    H126587   6.487   2.004   4.079 -0.1384 -0.1718  1.3339
 1724TIP3    H226588   6.387   2.049   3.975  1.2030  1.2608  0.6144
 1725TIP3   OH226589   2.690   1.977   2.059  0.1685 -0.4010  0.4189
 1725TIP3    H126590   2.749   2.013   1.994 -0.4084 -0.7178 -0.3021
 1725TIP3    H226591   2.732   1.896   2.087  0.0025 -0.7273 -0.2379
 1726TIP3   OH226592   3.726   6.156   5.167  0.1024  0.3823  0.6949
 1726TIP3    H126593   3.681   6.105   5.234 -0.1219  0.7195  0.8059
 1726TIP3    H226594   3.818   6.152   5.191  0.0952 -0.0270  0.6607
 1727TIP3   OH226595   6.028   5.673  12.788  0.3423 -0.5838 -0.2059
 1727TIP3    H126596   6.051   5.582  12.769 -0.0263 -1.1510  1.8398
 1727TIP3    H226597   5.934   5.671  12.806  0.0587  0.4596 -1.4076
 1728TIP3   OH226598   1.031   2.422   2.382 -0.2406  0.3031  0.2256
 1728TIP3    H126599   1.075   2.504   2.404 -0.4816 -0.2336  3.0655
 1728TIP3    H226600   0.938   2.439   2.395 -0.4256 -0.0286 -0.6002
 1729TIP3   OH226601   0.007   5.882  14.107 -0.0742  0.1195  0.2261
 1729TIP3    H126602   0.094   5.896  14.144  1.2515  2.1831 -3.1344
 1729TIP3    H226603  -0.043   5.958  14.136  1.4755  2.6928 -3.0677
 1730TIP3   OH226604   0.572   0.399   5.939 -0.3506  0.3504  0.2947
 1730TIP3    H126605   0.490   0.442   5.962 -0.9106 -1.1742  1.3152
 1730TIP3    H226606   0.598   0.353   6.018 -0.4730 -2.2050 -1.0267
 1731TIP3   OH226607   3.738   2.647  14.161  0.3511  0.2424 -0.0462
 1731TIP3    H126608   3.833   2.654  14.152  0.6534 -1.8204  0.9046
 1731TIP3    H226609   3.725   2.604  14.246 -1.4498  0.7175 -0.0320
 1732TIP3   OH226610   6.443   4.391   0.459  0.0243 -0.3494 -0.1398
 1732TIP3    H126611   6.505   4.333   0.504  1.8628  1.7586  0.1947
 1732TIP3    H226612   6.483   4.477   0.464 -0.3968  0.3165 -4.5471
 1733TIP3   OH226613   6.175   1.309  15.136  0.2458 -0.0765  0.0498
 1733TIP3    H126614   6.192   1.401  15.119 -0.5514 -0.0973 -1.0314
 1733TIP3    H226615   6.083   1.296  15.110  0.3195 -1.1493  0.2531
 1734TIP3   OH226616   3.077   3.189   4.341 -0.3510  0.5869 -0.1111
 1734TIP3    H126617   2.996   3.210   4.293 -0.2592  0.9900 -0.0969
 1734TIP3    H226618   3.098   3.270   4.388  0.7977  0.9434 -1.1797
 1735TIP3   OH226619   5.502   4.151  11.638 -0.0572  0.2521  0.0136
 1735TIP3    H126620   5.457   4.136  11.721 -0.4025  0.2531 -0.1752
 1735TIP3    H226621   5.539   4.065  11.615 -2.9707 -0.6881 -1.6249
 1736TIP3   OH226622   3.872   4.450   0.582  0.1186 -0.2692  0.1984
 1736TIP3    H126623   3.938   4.519   0.593 -1.1701  0.9505  0.5454
 1736TIP3    H226624   3.887   4.417   0.493  0.4149  0.8422 -0.1821
 1737TIP3   OH226625   3.228   5.254  11.764 -0.3893 -0.2794 -0.2143
 1737TIP3    H126626   3.265   5.307  11.693  0.4982 -1.2760 -0.5226
 1737TIP3    H226627   3.153   5.304  11.795 -0.4534  0.4431 -1.4795
 1738TIP3   OH226628   2.107   4.282   4.503 -0.1860  0.3455 -0.0353
 1738TIP3    H126629   2.041   4.297   4.571 -0.3806  0.4793 -0.2518
 1738TIP3    H226630   2.056   4.266   4.423  0.0261 -0.5755  0.0003
 1739TIP3   OH226631   1.303   3.219  16.250 -0.6386 -0.0173  0.0019
 1739TIP3    H126632   1.264   3.155  16.310  0.5648 -0.2090  0.6149
 1739TIP3    H226633   1.246   3.217  16.173 -1.7595 -0.3505  0.8105
 1740TIP3   OH226634   3.735   3.644   4.514 -0.9181  0.7550 -0.0766
 1740TIP3    H126635   3.656   3.615   4.469 -2.1003  2.1122  1.0047
 1740TIP3    H226636   3.724   3.612   4.604  1.3396 -1.8110 -0.5748
 1741TIP3   OH226637   2.508   1.045   0.125 -0.2416  0.0056 -0.0782
 1741TIP3    H126638   2.583   1.078   0.175  0.8573 -0.8981 -1.0789
 1741TIP3    H226639   2.485   0.963   0.169  0.8368 -0.8794 -1.1053
 1742TIP3   OH226640   1.594   1.594   3.510  0.1704 -0.4160 -0.1112
 1742TIP3    H126641   1.549   1.535   3.449 -0.2272 -0.1226 -0.1081
 1742TIP3    H226642   1.599   1.677   3.464  0.0583 -0.2498  0.1695
 1743TIP3   OH226643   3.320   5.756  12.184 -0.4990 -0.4866  0.5157
 1743TIP3    H126644   3.415   5.767  12.174 -0.0669 -1.2796  3.0169
 1743TIP3    H226645   3.288   5.843  12.209 -0.3898 -0.2801 -0.0567
 1744TIP3   OH226646   1.369   3.681  11.623 -0.5491 -0.3284  0.5394
 1744TIP3    H126647   1.401   3.769  11.641  0.6478 -0.3664 -1.1348
 1744TIP3    H226648   1.336   3.649  11.707  0.2128  1.2038  1.4612
 1745TIP3   OH226649   6.277   4.345  12.377 -0.2268  0.9054  0.0213
 1745TIP3    H126650   6.226   4.284  12.323  2.8667 -0.6769 -1.4028
 1745TIP3    H226651   6.300   4.416  12.318  1.4784  0.1762 -0.2679
 1746TIP3   OH226652   2.046   2.612   2.549 -0.8644 -0.2227 -0.1650
 1746TIP3    H126653   1.984   2.660   2.604 -1.7044 -2.2219  0.7174
 1746TIP3    H226654   2.066   2.533   2.599 -0.7543 -1.5597 -2.2168
 1747TIP3   OH226655   3.358   6.103  17.080 -0.2802 -0.0230  0.2384
 1747TIP3    H126656   3.298   6.057  17.139 -0.3331  1.1372  1.1359
 1747TIP3    H226657   3.329   6.079  16.992 -1.4778 -0.2142  0.6700
 1748TIP3   OH226658   5.510   6.436   1.687  0.3278  0.3917  0.3212
 1748TIP3    H126659   5.584   6.497   1.696  0.4270  0.3506 -0.2155
 1748TIP3    H226660   5.530   6.365   1.749 -0.3145  1.4093  1.7463
 1749TIP3   OH226661   6.206   5.650  15.387  0.1924  0.0712 -0.0524
 1749TIP3    H126662   6.293   5.646  15.426  0.2988 -0.7103 -0.3377
 1749TIP3    H226663   6.150   5.604  15.449 -0.1217  1.0290  0.3801
 1750TIP3   OH226664   3.274   3.172   3.090  0.0651  0.3826 -0.1394
 1750TIP3    H126665   3.317   3.089   3.069 -0.3306  0.1201  0.0706
 1750TIP3    H226666   3.296   3.230   3.017  0.1494  0.0203 -0.4049
 1751TIP3   OH226667   0.801   2.377   2.925  0.2425  0.3121 -0.1078
 1751TIP3    H126668   0.837   2.335   2.847  0.9448  1.1279 -0.2391
 1751TIP3    H226669   0.822   2.470   2.914  0.0969  0.4778  0.9169
 1752TIP3   OH226670   0.589   3.525  12.534 -0.2656 -0.0951  0.2082
 1752TIP3    H126671   0.680   3.505  12.512  0.4368  1.4089  1.5333
 1752TIP3    H226672   0.551   3.555  12.451  1.2105  1.7551  0.1148
 1753TIP3   OH226673   0.537   3.290  11.891  0.0582  0.4020 -0.1586
 1753TIP3    H126674   0.482   3.212  11.901 -0.1798  0.7637  1.7375
 1753TIP3    H226675   0.581   3.278  11.807 -0.7295 -1.2865 -0.3686
 1754TIP3   OH226676   0.348   0.276   1.923 -0.2213 -0.3028 -0.1202
 1754TIP3    H126677   0.295   0.198   1.909 -0.8765 -0.0033  0.6487
 1754TIP3    H226678   0.320   0.337   1.854  0.3295 -0.7482 -0.7529
 1755TIP3   OH226679   1.734   6.559  14.330  0.5247  0.6713 -0.2970
 1755TIP3    H126680   1.808   6.581  14.387  0.8190 -0.4884 -0.1965
 1755TIP3    H226681   1.763   6.481  14.282 -0.2434  0.8216 -1.0304
 1756TIP3   OH226682   0.853   5.086   5.282 -0.1932 -0.3733  0.2627
 1756TIP3    H126683   0.848   5.078   5.377 -1.9772 -2.9626  0.0602
 1756TIP3    H226684   0.930   5.034   5.257  1.0980  1.4368  0.3285
 1757TIP3   OH226685   3.792   1.806   1.251 -0.1191 -0.0019  0.3390
 1757TIP3    H126686   3.797   1.763   1.166  0.6877 -0.3305  0.5490
 1757TIP3    H226687   3.725   1.757   1.299 -0.9775  0.5231 -0.2835
 1758TIP3   OH226688   4.530   5.205  11.973  0.4457 -0.3176  0.2270
 1758TIP3    H126689   4.509   5.112  11.965  1.1844 -0.5362  0.6847
 1758TIP3    H226690   4.518   5.224  12.067  1.5676 -0.2866  0.3810
 1759TIP3   OH226691   4.233   5.884  12.727 -0.4898 -0.0308  0.2078
 1759TIP3    H126692   4.307   5.863  12.671 -0.6753 -2.4075  0.7394
 1759TIP3    H226693   4.182   5.948  12.677  0.1228 -0.9434 -1.7004
 1760TIP3   OH226694   4.111   4.915  13.117 -0.4936 -0.0037  0.4616
 1760TIP3    H126695   4.191   4.948  13.156  0.5353 -0.1650 -1.3856
 1760TIP3    H226696   4.131   4.824  13.095 -1.4866 -0.3040  0.7549
 1761TIP3   OH226697   4.405   3.366  14.899 -0.4863  0.3015 -0.1947
 1761TIP3    H126698   4.354   3.446  14.891  0.8302  1.0685 -1.6032
 1761TIP3    H226699   4.445   3.371  14.986 -2.3553 -0.0838  0.7216
 1762TIP3   OH226700   6.344   6.645  14.368 -0.4847  0.0140 -0.1296
 1762TIP3    H126701   6.318   6.737  14.370  0.7809  0.4672 -1.7516
 1762TIP3    H226702   6.266   6.598  14.341 -0.8300  0.7761 -0.4888
 1763TIP3   OH226703   3.672   2.982  13.806  0.3320 -0.0905 -0.1137
 1763TIP3    H126704   3.647   2.900  13.847  1.4194 -0.1696  0.4141
 1763TIP3    H226705   3.760   3.000  13.839 -0.1500  1.6357  0.3206
 1764TIP3   OH226706   5.023   4.889  15.289 -0.3660  0.3705 -0.2588
 1764TIP3    H126707   5.097   4.898  15.349 -0.1505 -1.7315 -0.1354
 1764TIP3    H226708   4.962   4.831  15.335 -0.9766  0.1240 -1.3386
 1765TIP3   OH226709   2.529   2.959   6.392  0.5167 -0.1502  0.8828
 1765TIP3    H126710   2.605   2.915   6.354  2.2289  1.7918  1.8802
 1765TIP3    H226711   2.519   2.920   6.478 -0.2821 -1.1123  0.3691
 1766TIP3   OH226712   1.162   2.118   0.549  0.1995  0.0443 -0.0350
 1766TIP3    H126713   1.141   2.179   0.478  0.3775  0.7749  0.5212
 1766TIP3    H226714   1.248   2.147   0.581 -0.4473  0.5922  1.3399
 1767TIP3   OH226715   0.389   5.227  14.243  0.0358  0.1393 -0.0269
 1767TIP3    H126716   0.361   5.139  14.266 -1.5765  0.3395 -1.0822
 1767TIP3    H226717   0.425   5.219  14.154 -1.4380  0.7426 -0.7153
 1768TIP3   OH226718   4.766   6.623  13.776  0.2763  0.0665 -0.5583
 1768TIP3    H126719   4.802   6.537  13.796 -0.8097 -0.5502 -1.0886
 1768TIP3    H226720   4.762   6.625  13.680 -0.7936  0.2099 -0.5283
 1769TIP3   OH226721   5.677   1.045   1.145 -0.4637  0.2774 -0.2904
 1769TIP3    H126722   5.739   1.039   1.072  0.1723  2.4249  0.0107
 1769TIP3    H226723   5.609   0.981   1.124  1.1316 -1.1651 -1.3256
 1770TIP3   OH226724   1.073   0.777  11.714  0.2925 -0.6540 -0.4267
 1770TIP3    H126725   1.117   0.767  11.629  1.2865  0.1407 -0.0178
 1770TIP3    H226726   1.066   0.872  11.726 -0.0416 -0.7666  0.2894
 1771TIP3   OH226727   1.134   2.416  16.307  0.2046  0.4224 -0.4542
 1771TIP3    H126728   1.197   2.351  16.276  0.4173 -0.0429  0.8548
 1771TIP3    H226729   1.103   2.380  16.391 -0.9685  1.1818 -0.5399
 1772TIP3   OH226730   2.988   3.661  16.421 -0.9186  0.8281 -0.0820
 1772TIP3    H126731   2.908   3.622  16.456  0.2832 -2.2725 -0.4417
 1772TIP3    H226732   3.002   3.616  16.338  1.0418  1.5034 -0.1679
 1773TIP3   OH226733   3.920   6.364   4.398  0.2961 -0.4189 -0.1325
 1773TIP3    H126734   3.880   6.385   4.483 -0.5643  0.0464 -0.6446
 1773TIP3    H226735   3.855   6.391   4.333  2.0375  1.8238 -1.0775
 1774TIP3   OH226736   3.357   6.409   0.763 -0.0674  0.3816 -0.1255
 1774TIP3    H126737   3.407   6.443   0.689 -0.9309  1.7570 -0.1044
 1774TIP3    H226738   3.266   6.408   0.733 -0.2932 -0.1501  0.5328
 1775TIP3   OH226739   3.731   5.337   4.837 -0.0771  0.0326 -0.6940
 1775TIP3    H126740   3.666   5.275   4.870  0.0212 -0.7819 -1.9990
 1775TIP3    H226741   3.797   5.283   4.795  0.7847  0.9403 -0.5388
 1776TIP3   OH226742   0.670   3.174   1.326  0.1410  0.1910 -0.0982
 1776TIP3    H126743   0.578   3.198   1.323  0.2073  1.1495  2.6537
 1776TIP3    H226744   0.670   3.082   1.354  0.0125  0.3000  0.2673
 1777TIP3   OH226745   1.212   6.072   0.951  0.3852 -0.3583  0.1399
 1777TIP3    H126746   1.158   6.080   1.029 -2.2314 -1.1237 -1.4515
 1777TIP3    H226747   1.214   5.979   0.933  1.5437 -0.2526 -0.3407
 1778TIP3   OH226748   2.160   6.321  11.697 -0.1496  0.7243 -0.2908
 1778TIP3    H126749   2.066   6.312  11.714  0.2728 -3.0684  0.9416
 1778TIP3    H226750   2.164   6.363  11.611 -2.8715  2.6952  0.4108
 1779TIP3   OH226751   1.585   5.033   0.867 -0.4115  0.0631  0.7890
 1779TIP3    H126752   1.628   5.107   0.910  0.3444 -0.6053  1.1931
 1779TIP3    H226753   1.526   4.997   0.933  1.0281 -1.1997  1.4445
 1780TIP3   OH226754   1.146   3.373  12.463  0.0834  0.0467  0.1571
 1780TIP3    H126755   1.141   3.469  12.471  0.1263  0.2771 -1.9660
 1780TIP3    H226756   1.086   3.352  12.392  3.1507 -0.9658 -2.3396
 1781TIP3   OH226757   2.231   4.248   5.742 -0.1438 -0.1435  0.7038
 1781TIP3    H126758   2.293   4.192   5.695 -1.4369 -0.0943 -1.1844
 1781TIP3    H226759   2.199   4.193   5.814 -1.7205 -2.1478 -1.3476
 1782TIP3   OH226760   3.556   5.293   1.451 -0.7567 -0.1872  0.3835
 1782TIP3    H126761   3.619   5.317   1.384  0.3561  1.3962  1.9219
 1782TIP3    H226762   3.472   5.326   1.419 -0.5460 -0.8650 -0.9238
 1783TIP3   OH226763   2.726   4.737   0.971  0.4044 -0.0648  0.0951
 1783TIP3    H126764   2.777   4.720   1.051 -1.6724  1.7721  1.9419
 1783TIP3    H226765   2.635   4.732   0.999 -0.4336  3.5730 -1.3651
 1784TIP3   OH226766   1.569   3.946   1.021 -0.0008 -0.6461  0.2372
 1784TIP3    H126767   1.617   3.872   0.984  1.3105 -0.6616  1.8782
 1784TIP3    H226768   1.477   3.925   1.004  0.4350 -1.7287 -0.9697
 1785TIP3   OH226769   0.629   6.113  12.377  0.2261 -0.0078 -0.7078
 1785TIP3    H126770   0.560   6.139  12.438  0.2716  0.7135 -0.9469
 1785TIP3    H226771   0.601   6.028  12.344  0.3606 -0.5555  0.5364
 1786TIP3   OH226772   4.943   3.070   3.358  0.0850 -0.1700  0.0481
 1786TIP3    H126773   5.022   3.119   3.383  0.0828 -0.5448  0.8278
 1786TIP3    H226774   4.926   3.097   3.268  0.2218  1.0772  0.3723
 1787TIP3   OH226775   4.456   6.584  16.823  0.3889  0.0049 -0.2874
 1787TIP3    H126776   4.518   6.550  16.888 -0.2449  1.1711  0.9922
 1787TIP3    H226777   4.469   6.679  16.826 -0.9382  0.2080 -0.5290
 1788TIP3   OH226778   5.243   0.727  14.473 -0.1466  0.0163 -0.0018
 1788TIP3    H126779   5.177   0.745  14.407  0.0598 -1.7525 -0.7590
 1788TIP3    H226780   5.318   0.695  14.423  1.4689  2.2765  0.7964
 1789TIP3   OH226781   1.016   0.107  10.900  0.4010  0.3231 -0.5241
 1789TIP3    H126782   1.111   0.107  10.904  0.4123 -1.8877  1.1741
 1789TIP3    H226783   0.988   0.067  10.983 -2.1127  2.9834  0.0723
 1790TIP3   OH226784   2.890   4.068  14.718 -0.4634  0.0460 -0.3563
 1790TIP3    H126785   2.836   4.112  14.783  0.6841  0.8240  0.1076
 1790TIP3    H226786   2.908   4.135  14.651 -1.7432 -0.7779 -1.5829
 1791TIP3   OH226787   2.199   4.945  12.337  0.0439 -0.0362  0.2290
 1791TIP3    H126788   2.138   4.875  12.359  0.0247  0.3989  1.6633
 1791TIP3    H226789   2.286   4.908  12.354  0.0506  0.1690  0.6492
 1792TIP3   OH226790   6.255   1.110   4.192  0.2368 -0.4547 -0.4990
 1792TIP3    H126791   6.165   1.078   4.201  0.0563 -0.1218 -1.1054
 1792TIP3    H226792   6.302   1.037   4.153 -0.0774 -0.1479 -1.4688
 1793TIP3   OH226793   6.534   4.934  11.440 -0.4876  0.8118 -0.3062
 1793TIP3    H126794   6.599   4.982  11.490 -1.2523  1.2487  0.3018
 1793TIP3    H226795   6.457   4.991  11.440 -1.1752 -0.0871 -0.1856
 1794TIP3   OH226796   4.870   4.952   3.016 -0.4757  0.5457  0.2460
 1794TIP3    H126797   4.846   5.042   3.039  1.1874  0.6033  2.0607
 1794TIP3    H226798   4.934   4.927   3.083  0.7871 -1.2087 -1.4958
 1795TIP3   OH226799   4.159   2.104  14.373  0.2049  0.3387  0.3264
 1795TIP3    H126800   4.123   2.192  14.383  1.7396  0.9312  1.0373
 1795TIP3    H226801   4.198   2.085  14.459  0.7919 -0.6020 -0.1343
 1796TIP3   OH226802   0.502   6.403  13.223  0.4035 -0.5052  0.0097
 1796TIP3    H126803   0.460   6.385  13.307 -0.2418 -0.5678 -0.3237
 1796TIP3    H226804   0.442   6.368  13.158  1.7481 -2.1410 -0.4213
 1797TIP3   OH226805   3.139   3.663   2.740 -0.2690 -0.0799 -0.6892
 1797TIP3    H126806   3.106   3.670   2.650  1.7698  1.4785 -1.3843
 1797TIP3    H226807   3.205   3.593   2.736  0.5042  0.6266 -0.6654
 1798TIP3   OH226808   1.112   3.748  16.448 -0.2096 -0.2424 -0.4055
 1798TIP3    H126809   1.118   3.743  16.352  0.1229 -0.5275 -0.3699
 1798TIP3    H226810   1.199   3.778  16.476 -0.0332 -0.9877 -0.1363
 1799TIP3   OH226811   2.225   1.572  14.682 -0.5025 -0.0502 -0.3140
 1799TIP3    H126812   2.251   1.648  14.630  0.5430 -1.1268 -1.4371
 1799TIP3    H226813   2.260   1.590  14.770  0.3267  0.4683 -0.7364
 1800TIP3   OH226814   1.691   1.019   1.792  0.5516 -0.2888  0.6439
 1800TIP3    H126815   1.716   0.965   1.717  2.5679 -1.1068  1.8192
 1800TIP3    H226816   1.768   1.074   1.808 -0.6451  1.4195  0.8408
 1801TIP3   OH226817   3.709   5.618   5.625 -0.0479  0.0089 -0.5077
 1801TIP3    H126818   3.757   5.682   5.677 -0.1827 -0.6646  0.4563
 1801TIP3    H226819   3.618   5.646   5.630 -0.1752 -0.5375  0.3379
 1802TIP3   OH226820   5.876   4.177  16.338 -0.2003  0.0228  0.2339
 1802TIP3    H126821   5.964   4.199  16.368  2.1090 -3.9197 -2.5877
 1802TIP3    H226822   5.854   4.245  16.275  1.5485  0.2679 -0.1642
 1803TIP3   OH226823   0.108   3.170   5.636  0.2795 -0.1368 -0.1117
 1803TIP3    H126824   0.021   3.134   5.620 -0.1354  0.9939 -0.4911
 1803TIP3    H226825   0.167   3.116   5.584 -0.4508  0.3663 -1.5068
 1804TIP3   OH226826   2.993   4.728  13.504  0.3303 -0.3586 -0.4028
 1804TIP3    H126827   3.001   4.674  13.583  2.1065 -0.6881 -0.7466
 1804TIP3    H226828   2.976   4.665  13.433 -1.2250 -0.0679 -0.3118
 1805TIP3   OH226829   5.873   6.764  14.784  0.5003  0.3539  0.4380
 1805TIP3    H126830   5.876   6.696  14.716 -0.6981  0.6356  0.0775
 1805TIP3    H226831   5.781   6.789  14.788  0.2440 -0.6540  3.1763
 1806TIP3   OH226832   0.822   2.736  11.045  0.4179 -0.1313  0.3286
 1806TIP3    H126833   0.784   2.655  11.010  2.3712 -0.2397 -1.7819
 1806TIP3    H226834   0.897   2.707  11.097  0.5486  0.2810  0.3760
 1807TIP3   OH226835   3.263   1.326  11.850 -0.3871  0.3556  0.0660
 1807TIP3    H126836   3.193   1.389  11.862 -0.9641 -0.4917  1.4270
 1807TIP3    H226837   3.287   1.299  11.939  0.4483 -0.6756 -0.4393
 1808TIP3   OH226838   5.168   4.404   5.261  0.2339 -0.3710  0.2212
 1808TIP3    H126839   5.243   4.461   5.280  0.8550 -0.6265 -1.4016
 1808TIP3    H226840   5.092   4.459   5.282  0.8343 -0.1491  2.0006
 1809TIP3   OH226841   6.691   5.735  14.924 -0.7108  0.2091 -0.2814
 1809TIP3    H126842   6.626   5.669  14.951 -1.8517  1.2764 -0.3394
 1809TIP3    H226843   6.732   5.762  15.006 -1.6709  0.8727  0.0003
 1810TIP3   OH226844   1.456   5.253   4.004  0.5369 -0.2735  0.9915
 1810TIP3    H126845   1.531   5.235   4.060  0.2654 -1.8600  0.8725
 1810TIP3    H226846   1.396   5.304   4.060  0.5590 -1.2678  1.9481
 1811TIP3   OH226847   2.078   2.307  16.583  0.3882  0.4961 -0.7484
 1811TIP3    H126848   2.077   2.363  16.506  2.0236  0.3418 -0.9152
 1811TIP3    H226849   2.092   2.367  16.656 -0.9920  0.6239 -0.5694
 1812TIP3   OH226850   1.489   4.498  11.575 -0.5205 -0.5635 -0.3117
 1812TIP3    H126851   1.480   4.539  11.489 -0.4531 -0.1668 -0.1335
 1812TIP3    H226852   1.531   4.565  11.629 -1.0048 -0.6302  0.1566
 1813TIP3   OH226853   4.088   1.276   3.874  0.5245 -0.3404  0.1228
 1813TIP3    H126854   4.091   1.181   3.889  0.7791  0.0187  2.8648
 1813TIP3    H226855   3.995   1.299   3.884  0.6670 -0.1255  1.0843
 1814TIP3   OH226856   0.541   3.798   4.815 -0.9867 -0.2300 -0.8089
 1814TIP3    H126857   0.614   3.811   4.875  0.5209 -2.5566 -2.0090
 1814TIP3    H226858   0.499   3.884   4.811  0.2416  0.5882  1.7204
 1815TIP3   OH226859   4.250   2.345  13.371  0.0582  0.0896  0.1574
 1815TIP3    H126860   4.303   2.373  13.445  0.9366  0.3556 -0.5538
 1815TIP3    H226861   4.249   2.250  13.376  0.2181  0.1015  0.4366
 1816TIP3   OH226862   4.530   2.286  14.374 -0.5078  0.3074  0.7695
 1816TIP3    H126863   4.467   2.293  14.302 -0.7774 -0.9160  0.8692
 1816TIP3    H226864   4.557   2.376  14.390 -1.1571  0.7032 -0.2303
 1817TIP3   OH226865   3.975   0.389   0.503  0.0057  0.7033 -0.2991
 1817TIP3    H126866   4.020   0.306   0.515  1.6866  1.5586 -0.3472
 1817TIP3    H226867   3.884   0.371   0.526  0.6842 -0.7032  1.5491
 1818TIP3   OH226868   1.020   2.638   2.591  0.2898 -0.0321  0.5562
 1818TIP3    H126869   0.961   2.702   2.551 -0.0816 -1.1334 -0.7496
 1818TIP3    H226870   0.967   2.559   2.600  0.2147  0.2616  3.7761
 1819TIP3   OH226871   3.967   5.465  15.398 -0.0408 -0.5851  0.1349
 1819TIP3    H126872   3.993   5.386  15.350 -2.3466 -0.9295 -0.7018
 1819TIP3    H226873   3.934   5.432  15.481  2.3740 -0.1277  1.3504
 1820TIP3   OH226874   1.015   0.915  12.771 -0.2340  0.3904  0.3430
 1820TIP3    H126875   1.094   0.910  12.825 -0.5969 -1.5748  0.7801
 1820TIP3    H226876   0.944   0.929  12.834 -0.3260  1.5368  0.0090
 1821TIP3   OH226877   5.223   5.313   3.659 -0.4491 -0.2637  0.2312
 1821TIP3    H126878   5.211   5.359   3.576  0.9779 -1.2095 -0.5395
 1821TIP3    H226879   5.136   5.313   3.699 -1.6039 -1.4165 -2.1226
 1822TIP3   OH226880   0.899   4.263   1.409  0.5527  0.0299 -0.3275
 1822TIP3    H126881   0.862   4.209   1.478  2.9761 -0.2913  0.8364
 1822TIP3    H226882   0.926   4.200   1.341  1.4270 -0.0461  0.0738
 1823TIP3   OH226883   4.829   0.922  16.407 -0.2599 -0.3565 -0.5943
 1823TIP3    H126884   4.817   0.843  16.459  0.4814 -0.1618 -0.1256
 1823TIP3    H226885   4.740   0.946  16.380 -0.3665 -2.4641 -2.4234
 1824TIP3   OH226886   5.846   1.496   3.662 -0.8176  0.3935  0.5657
 1824TIP3    H126887   5.852   1.586   3.632 -2.7504  0.7634  1.1034
 1824TIP3    H226888   5.899   1.446   3.601  2.3264  2.1410  1.6657
 1825TIP3   OH226889   3.810   0.733   5.226 -0.4307 -0.0631  0.0661
 1825TIP3    H126890   3.893   0.699   5.194  1.5039  1.9837  2.4994
 1825TIP3    H226891   3.761   0.656   5.254  0.2178 -1.3841 -2.2133
 1826TIP3   OH226892   6.226   6.389  16.555 -0.0123 -0.2523  0.1934
 1826TIP3    H126893   6.168   6.465  16.545  0.3000 -0.1448 -0.9827
 1826TIP3    H226894   6.219   6.344  16.470  0.6505 -0.9352  0.5006
 1827TIP3   OH226895   2.900   1.599   5.735  0.1007 -0.0738 -0.2036
 1827TIP3    H126896   2.857   1.564   5.657 -0.6586 -0.7680  0.5139
 1827TIP3    H226897   2.836   1.659   5.773  0.3110 -0.0462  0.1148
 1828TIP3   OH226898   0.095   1.038   0.889 -0.0854  0.4263  0.3559
 1828TIP3    H126899   0.136   0.970   0.835  0.6604  0.4735  0.8509
 1828TIP3    H226900   0.100   1.117   0.835  2.7219  1.0030  1.3175
 1829TIP3   OH226901   4.408   0.562  10.873 -0.9721  0.3564 -0.2820
 1829TIP3    H126902   4.337   0.534  10.815 -0.3600  1.0129 -1.3674
 1829TIP3    H226903   4.455   0.481  10.893 -0.0586  0.3538 -2.2503
 1830TIP3   OH226904   3.809   6.541  14.083 -0.4551 -0.5009 -0.3025
 1830TIP3    H126905   3.854   6.565  14.165 -0.6179  0.1722 -0.3984
 1830TIP3    H226906   3.722   6.513  14.111 -0.9248  0.8616 -0.3137
 1831TIP3   OH226907   0.048   1.993  16.518  0.3739 -0.4834 -0.0917
 1831TIP3    H126908   0.088   1.906  16.523  0.1715 -0.6298 -0.8855
 1831TIP3    H226909  -0.033   1.979  16.470  0.7191  0.2744 -0.9253
 1832TIP3   OH226910   1.650   5.083  12.531  0.3325 -0.9623  0.1439
 1832TIP3    H126911   1.613   5.052  12.613 -1.5747  0.0059 -0.2843
 1832TIP3    H226912   1.588   5.054  12.464  0.0300  1.1031 -0.5697
 1833TIP3   OH226913   5.497   0.682  11.862  0.4976  0.0310 -0.6537
 1833TIP3    H126914   5.424   0.654  11.918 -0.5468  0.5311 -1.7091
 1833TIP3    H226915   5.575   0.651  11.907 -0.2191  1.2866  1.6051
 1834TIP3   OH226916   2.999   4.426  15.395  0.6196  0.4907 -0.5747
 1834TIP3    H126917   3.076   4.482  15.392  0.2754  1.2299  1.8995
 1834TIP3    H226918   3.033   4.340  15.419  0.6230  1.3657  3.2296
 1835TIP3   OH226919   3.339   5.769  13.276 -0.3232  0.1603  0.2560
 1835TIP3    H126920   3.399   5.840  13.296 -0.8468  1.1520 -1.5099
 1835TIP3    H226921   3.385   5.716  13.211  1.3585 -3.0094  3.6720
 1836TIP3   OH226922   6.472   4.825  12.314  0.4492 -0.3053 -0.3794
 1836TIP3    H126923   6.453   4.917  12.292  0.5068 -0.1445  0.2228
 1836TIP3    H226924   6.519   4.791  12.238  2.3223  0.7647  0.2362
 1837TIP3   OH226925   3.548   3.554   1.266 -0.1096  0.1561  0.7607
 1837TIP3    H126926   3.464   3.582   1.302  0.3310  0.6802  1.4169
 1837TIP3    H226927   3.582   3.492   1.331 -0.4677 -0.8660 -0.0224
 1838TIP3   OH226928   5.324   1.623   0.159 -0.2809 -0.0479 -0.2195
 1838TIP3    H126929   5.377   1.638   0.237 -0.2688 -1.3953  0.0526
 1838TIP3    H226930   5.359   1.542   0.121 -1.4124 -0.3511 -0.6577
 1839TIP3   OH226931   1.699   5.679  15.335 -0.3534  0.1912 -1.0345
 1839TIP3    H126932   1.729   5.593  15.304 -1.5765  0.3259 -2.7369
 1839TIP3    H226933   1.707   5.736  15.258 -0.1446  1.4576 -0.0965
 1840TIP3   OH226934   3.119   1.020  17.091 -0.0411 -0.4930  0.1381
 1840TIP3    H126935   3.058   1.089  17.063  1.3846  0.9532  0.4343
 1840TIP3    H226936   3.166   0.996  17.012  0.8070  0.3067  0.3779
 1841TIP3   OH226937   4.305   1.125  11.767  0.4482 -0.1184 -0.7422
 1841TIP3    H126938   4.326   1.206  11.721  2.1795 -0.1823 -0.1221
 1841TIP3    H226939   4.296   1.151  11.859 -2.4100 -0.0871 -0.9363
 1842TIP3   OH226940   0.997   2.692  13.864  0.3882  0.9203  0.0698
 1842TIP3    H126941   1.004   2.782  13.896  0.1009  1.1240 -0.4274
 1842TIP3    H226942   0.906   2.685  13.833 -0.1712 -0.1009  1.7852
 1843TIP3   OH226943   6.076   5.959   2.842 -0.1235  0.1848 -1.2299
 1843TIP3    H126944   6.128   6.027   2.885 -0.5710  0.3922 -1.0217
 1843TIP3    H226945   6.133   5.928   2.771  0.4494  0.1282 -0.7540
 1844TIP3   OH226946   0.252   1.408  12.924  0.3180  0.2258  0.0724
 1844TIP3    H126947   0.304   1.354  12.983 -0.3258 -0.4990 -0.0083
 1844TIP3    H226948   0.163   1.373  12.931  0.0894  0.6158 -0.7468
 1845TIP3   OH226949   2.178   6.370   6.291 -0.1391 -0.0581 -0.1488
 1845TIP3    H126950   2.267   6.333   6.291  0.0895  0.4775  0.4347
 1845TIP3    H226951   2.122   6.297   6.319  0.0465 -0.5437 -1.0192
 1846TIP3   OH226952   0.432   5.235   2.313  0.0063 -0.1621 -0.1576
 1846TIP3    H126953   0.378   5.189   2.378 -0.3470  1.5545  0.8241
 1846TIP3    H226954   0.518   5.240   2.354  0.1476 -0.2998 -0.4360
 1847TIP3   OH226955   2.555   1.587   1.022 -0.3306 -0.1722 -0.9146
 1847TIP3    H126956   2.462   1.578   1.004 -0.3350  0.5371 -1.2868
 1847TIP3    H226957   2.560   1.645   1.098 -0.1878 -0.1924 -0.9070
 1848TIP3   OH226958   3.585   3.836   5.004 -0.2489  0.2726  0.1968
 1848TIP3    H126959   3.494   3.861   4.989 -0.5320 -0.3944  0.7551
 1848TIP3    H226960   3.591   3.822   5.099  0.3561  0.0024  0.1236
 1849TIP3   OH226961   4.857   1.967  11.372  0.1486  0.6467 -0.3003
 1849TIP3    H126962   4.829   1.882  11.338  0.0081  0.1967  0.8970
 1849TIP3    H226963   4.944   1.980  11.335  1.1596 -1.1041  1.2933
 1850TIP3   OH226964   2.157   2.492   3.100  0.1718 -0.0878  0.0999
 1850TIP3    H126965   2.103   2.539   3.164  2.0200  0.3944  1.3916
 1850TIP3    H226966   2.222   2.557   3.071  1.0387 -1.0734 -0.2164
 1851TIP3   OH226967   6.361   5.718  14.766 -0.1907  0.2850 -0.5268
 1851TIP3    H126968   6.396   5.631  14.747 -0.7402 -0.0196 -0.1671
 1851TIP3    H226969   6.411   5.777  14.709  0.0091 -0.2940 -0.9625
 1852TIP3   OH226970   4.859   0.789  16.132 -0.9653  0.2379  0.9499
 1852TIP3    H126971   4.855   0.842  16.211  0.9949  0.3582  1.0105
 1852TIP3    H226972   4.890   0.703  16.162  0.8309  0.5847  0.2405
 1853TIP3   OH226973   0.167   1.296  16.785 -0.1901 -0.0005  0.5812
 1853TIP3    H126974   0.215   1.223  16.745  0.3201  1.7268 -2.1817
 1853TIP3    H226975   0.235   1.354  16.819 -0.5708 -0.2485  1.8444
 1854TIP3   OH226976   4.455   0.716   0.939 -0.6668  0.5827 -0.2103
 1854TIP3    H126977   4.496   0.631   0.952  1.8644  1.9697  2.0768
 1854TIP3    H226978   4.365   0.703   0.967 -0.8738 -1.7267 -1.6945
 1855TIP3   OH226979   2.245   2.373   5.870 -0.5605  0.1378 -0.3202
 1855TIP3    H126980   2.238   2.281   5.846 -1.4270 -0.3209  1.4989
 1855TIP3    H226981   2.324   2.378   5.924 -1.3626  0.0907  0.9153
 1856TIP3   OH226982   2.077   4.313   1.716 -0.3126 -0.2840 -0.0872
 1856TIP3    H126983   2.078   4.399   1.674  0.4618  0.1837  0.8534
 1856TIP3    H226984   2.169   4.288   1.722 -0.5215 -1.0692 -0.1440
 1857TIP3   OH226985   5.251   0.201  15.238 -0.9880 -0.3630  0.1876
 1857TIP3    H126986   5.311   0.247  15.179  0.9518  0.0044  2.3101
 1857TIP3    H226987   5.236   0.116  15.196 -0.0839  0.0729 -1.0649
 1858TIP3   OH226988   5.942   5.480  13.188  0.0893  0.2728  0.4287
 1858TIP3    H126989   5.955   5.409  13.126 -0.9691 -1.0871  1.7171
 1858TIP3    H226990   5.914   5.554  13.134  0.7069 -0.4023 -0.8684
 1859TIP3   OH226991   6.700   5.509  14.542 -0.0233 -0.4207  0.0656
 1859TIP3    H126992   6.618   5.515  14.592  0.8490 -1.5513  1.7552
 1859TIP3    H226993   6.720   5.415  14.541 -0.4963 -0.5955 -3.3737
 1860TIP3   OH226994   2.793   2.598  11.916  0.2314  0.8564  0.4164
 1860TIP3    H126995   2.801   2.636  12.004 -0.8150  0.6284  0.6224
 1860TIP3    H226996   2.796   2.503  11.931  1.2279  0.8225  0.0730
 1861TIP3   OH226997   5.446   3.586   2.454 -0.8854 -0.0945 -0.5062
 1861TIP3    H126998   5.486   3.673   2.448  1.5419 -1.1319 -0.3389
 1861TIP3    H226999   5.457   3.561   2.546 -0.0811 -1.2125 -0.8855
 1862TIP3   OH227000   0.555   2.602  16.185 -0.6117  0.0850 -0.1586
 1862TIP3    H127001   0.468   2.611  16.146 -1.7845 -2.1265  1.6519
 1862TIP3    H227002   0.553   2.658  16.263  0.1987  1.2500 -0.9475
 1863TIP3   OH227003   6.074   2.394   2.745 -0.1391 -0.2265  0.2071
 1863TIP3    H127004   6.065   2.458   2.816  0.4952 -0.6709  0.7045
 1863TIP3    H227005   6.154   2.346   2.766  0.0453 -0.3873 -0.7983
 1864TIP3   OH227006   5.906   5.295   5.701  0.0031 -0.2485  0.5322
 1864TIP3    H127007   5.906   5.217   5.757 -0.3381  0.2251  1.1943
 1864TIP3    H227008   5.825   5.340   5.722  1.4374  1.7141  2.1726
 1865TIP3   OH227009   6.533   3.534  11.727 -0.0043  0.3749 -0.6895
 1865TIP3    H127010   6.556   3.575  11.810 -0.5491  0.6561 -0.6742
 1865TIP3    H227011   6.606   3.554  11.669  1.2805 -1.3986  0.2318
 1866TIP3   OH227012   6.514   6.094   2.917  0.0237 -0.2122  0.3977
 1866TIP3    H127013   6.603   6.099   2.881  0.4234  1.2876  1.4701
 1866TIP3    H227014   6.483   6.185   2.915 -0.9623 -0.5111  1.2682
 1867TIP3   OH227015   5.615   4.056  15.083 -0.0901  0.4339 -0.0332
 1867TIP3    H127016   5.711   4.054  15.091 -0.0855  2.3609  1.0481
 1867TIP3    H227017   5.599   4.073  14.990  0.7171  2.1562  0.1025
 1868TIP3   OH227018   2.133   2.276  12.848 -0.0007 -0.2397  0.6593
 1868TIP3    H127019   2.126   2.358  12.799 -0.8576 -1.1648 -0.8499
 1868TIP3    H227020   2.057   2.276  12.906 -1.6543 -1.1889 -1.3752
 1869TIP3   OH227021   3.266   4.229   2.603  0.0441 -0.2430  0.3854
 1869TIP3    H127022   3.303   4.180   2.676 -0.3073  0.2991  0.9418
 1869TIP3    H227023   3.176   4.199   2.597 -0.9713  2.0560  2.3707
 1870TIP3   OH227024   3.065   2.113   1.631  0.1265  0.3053 -0.8071
 1870TIP3    H127025   3.096   2.023   1.629  0.8001  0.4881  0.3796
 1870TIP3    H227026   3.144   2.166   1.615 -0.2452  0.6991 -1.4125
 1871TIP3   OH227027   3.264   1.427  13.997 -0.1924  0.7097 -0.2467
 1871TIP3    H127028   3.266   1.333  14.013  0.3733  1.0109  1.6158
 1871TIP3    H227029   3.190   1.439  13.937  1.0237 -1.1215 -2.2602
 1872TIP3   OH227030   3.230   4.361   6.569 -0.1089  0.3197 -0.1271
 1872TIP3    H127031   3.299   4.356   6.635 -1.0308 -0.1261  0.8081
 1872TIP3    H227032   3.190   4.274   6.568 -0.0493  0.2866 -1.3466
 1873TIP3   OH227033   0.351   0.723   4.327  0.5397 -0.1843  0.0539
 1873TIP3    H127034   0.327   0.706   4.418  1.0380  1.2098  0.4703
 1873TIP3    H227035   0.285   0.784   4.295  2.4891  2.4889  0.7532
 1874TIP3   OH227036   0.352   4.249   2.092 -0.4937 -0.4024 -0.5794
 1874TIP3    H127037   0.297   4.303   2.035 -2.7699  0.2311  2.0160
 1874TIP3    H227038   0.295   4.177   2.118 -0.4615  0.5881  2.6995
 1875TIP3   OH227039   4.276   5.189   4.698 -0.5027 -0.3267 -0.7815
 1875TIP3    H127040   4.208   5.167   4.634 -0.0466  0.1639 -1.4493
 1875TIP3    H227041   4.353   5.141   4.669 -0.3222 -0.1901 -0.5329
 1876TIP3   OH227042   0.572   5.238   1.624  0.0581  0.0492 -0.5299
 1876TIP3    H127043   0.516   5.171   1.666  0.8079  0.3036  0.9429
 1876TIP3    H227044   0.661   5.211   1.645  0.4690  0.3064 -1.8516
 1877TIP3   OH227045   5.446   0.645   1.278  0.7171 -0.3752 -0.2770
 1877TIP3    H127046   5.457   0.708   1.348  1.6931 -0.0912 -0.6833
 1877TIP3    H227047   5.451   0.696   1.197 -0.1292 -0.7364 -0.5814
 1878TIP3   OH227048   0.733   0.594  15.276  0.7021 -0.1305  0.2756
 1878TIP3    H127049   0.727   0.689  15.286 -1.0342 -0.1581 -0.1302
 1878TIP3    H227050   0.814   0.570  15.321 -0.3785  1.1886  3.1841
 1879TIP3   OH227051   1.330   5.211  12.480  0.3931 -0.1907  0.4853
 1879TIP3    H127052   1.339   5.304  12.498 -0.9464  0.5652 -2.2160
 1879TIP3    H227053   1.321   5.170  12.566 -0.4584  2.3387  1.6786
 1880TIP3   OH227054   2.090   6.207   0.713  0.0494 -0.6160  0.7692
 1880TIP3    H127055   2.173   6.251   0.731 -0.2897  0.8480 -1.0162
 1880TIP3    H227056   2.115   6.119   0.686  1.0568 -0.1356  0.0728
 1881TIP3   OH227057   3.963   5.878   4.860  0.2044  0.2767 -0.5047
 1881TIP3    H127058   3.914   5.960   4.850 -0.5863 -0.1735 -0.4073
 1881TIP3    H227059   3.897   5.813   4.885  0.9998 -0.1496  0.5718
 1882TIP3   OH227060   3.482   4.440   1.401  0.0475  0.3236 -0.1624
 1882TIP3    H127061   3.468   4.469   1.311 -0.2084 -0.2313 -0.3079
 1882TIP3    H227062   3.575   4.457   1.417  0.2644 -0.2333 -0.7800
 1883TIP3   OH227063   5.101   0.440  16.392 -0.4503 -0.0739  0.1568
 1883TIP3    H127064   5.114   0.352  16.355 -1.0831 -0.1278  0.0478
 1883TIP3    H227065   5.008   0.459  16.375 -0.6125  0.1294  1.2274
 1884TIP3   OH227066   1.266   0.568   1.282  0.1812  0.3654  0.1576
 1884TIP3    H127067   1.235   0.656   1.302 -0.9026 -0.3522  1.9302
 1884TIP3    H227068   1.217   0.542   1.204 -1.0899  0.5797  0.8515
 1885TIP3   OH227069   5.783   3.857  12.848 -0.1771  0.1593  0.3487
 1885TIP3    H127070   5.741   3.818  12.771 -1.8737 -0.0413  1.3227
 1885TIP3    H227071   5.874   3.829  12.842  0.1113  1.3550 -2.3371
 1886TIP3   OH227072   5.493   4.918  11.204 -0.4311 -0.1493 -0.2785
 1886TIP3    H127073   5.587   4.935  11.200 -0.4956 -0.0918 -1.8607
 1886TIP3    H227074   5.453   4.996  11.164 -1.0833 -0.7525 -0.8220
 1887TIP3   OH227075   2.589   3.603  12.927  0.3830  0.1837 -0.2558
 1887TIP3    H127076   2.667   3.656  12.910 -0.2468  1.3810  0.4886
 1887TIP3    H227077   2.608   3.559  13.010 -0.4980  2.0438  0.9917
 1888TIP3   OH227078   2.119   4.578   0.661 -0.8330 -0.5898  0.2151
 1888TIP3    H127079   2.139   4.522   0.586 -0.0577  0.5969 -0.5043
 1888TIP3    H227080   2.205   4.605   0.695 -1.0206  2.7060 -1.4772
 1889TIP3   OH227081   0.201   1.395   4.992 -0.0823 -0.0156  0.2515
 1889TIP3    H127082   0.233   1.393   5.082 -0.1977  1.3394  0.3347
 1889TIP3    H227083   0.187   1.488   4.973 -0.9997 -0.3548 -0.8332
 1890TIP3   OH227084   0.488   5.921  14.376  0.7978 -0.2683 -0.3462
 1890TIP3    H127085   0.469   5.850  14.314 -0.9646 -0.5535  0.4453
 1890TIP3    H227086   0.462   5.886  14.461  1.8474  0.6220  0.3708
 1891TIP3   OH227087   4.252   5.796   1.022 -0.5459 -0.0835 -1.0966
 1891TIP3    H127088   4.339   5.778   1.057 -0.3522  1.0089 -0.9911
 1891TIP3    H227089   4.200   5.821   1.098 -0.3972  1.2873 -1.4280
 1892TIP3   OH227090   0.522   1.426  13.108 -0.5349  0.0594  0.2296
 1892TIP3    H127091   0.602   1.452  13.063 -1.8873  1.6070 -1.4400
 1892TIP3    H227092   0.536   1.335  13.132  1.4808  0.1323 -0.5107
 1893TIP3   OH227093   2.241   2.715   0.230 -0.1540  0.3896  0.1750
 1893TIP3    H127094   2.162   2.766   0.249  0.5769  1.5967  0.1019
 1893TIP3    H227095   2.229   2.634   0.278 -2.1477 -0.1358 -1.1025
 1894TIP3   OH227096   5.255   1.945  12.523  0.4848  0.6144 -1.0807
 1894TIP3    H127097   5.282   1.879  12.460 -0.1080  0.1041 -0.8092
 1894TIP3    H227098   5.167   1.971  12.496 -0.4275 -0.7364  0.3935
 1895TIP3   OH227099   6.690   3.171   2.480  0.7045 -0.8182  0.2448
 1895TIP3    H127100   6.739   3.233   2.426  0.2155 -2.3657 -2.1341
 1895TIP3    H227101   6.603   3.210   2.488  1.2836  0.2806  1.5246
 1896TIP3   OH227102   3.461   6.363  15.424 -0.3679 -0.6585 -0.2970
 1896TIP3    H127103   3.370   6.377  15.449 -0.7411 -1.2040 -1.3184
 1896TIP3    H227104   3.503   6.331  15.504 -1.2006 -0.9862  0.0169
 1897TIP3   OH227105   4.602   3.903  14.095 -0.0689 -0.4726  0.1809
 1897TIP3    H127106   4.674   3.857  14.052  0.2649  1.4219 -1.3900
 1897TIP3    H227107   4.643   3.981  14.132 -0.4773 -1.6364  3.4497
 1898TIP3   OH227108   6.270   4.456   4.757 -0.6248  0.1581 -0.3197
 1898TIP3    H127109   6.310   4.389   4.702  0.8523 -0.1861  1.1071
 1898TIP3    H227110   6.343   4.505   4.793 -1.4099 -0.4840  2.3853
 1899TIP3   OH227111   0.206   3.691  13.551 -0.2362  0.1071  0.0687
 1899TIP3    H127112   0.264   3.628  13.593 -1.5517 -1.9504 -1.0080
 1899TIP3    H227113   0.232   3.690  13.459 -2.1197 -1.1476 -0.5071
 1900TIP3   OH227114   0.843   4.694  14.061  0.4602  0.1399  0.3947
 1900TIP3    H127115   0.926   4.741  14.058  0.0786  0.8691  0.8696
 1900TIP3    H227116   0.820   4.691  14.155 -0.1118  0.0747  0.2598
 1901TIP3   OH227117   4.320   3.156  16.957  0.2785  0.0218  0.0302
 1901TIP3    H127118   4.345   3.064  16.959  1.5965  0.3674  0.0708
 1901TIP3    H227119   4.320   3.179  16.864 -0.7828 -0.1906 -0.0394
 1902TIP3   OH227120   4.895   0.958   2.497  0.0919 -0.3774 -0.2337
 1902TIP3    H127121   4.859   0.964   2.585  1.0181 -0.8570  0.2004
 1902TIP3    H227122   4.938   1.042   2.482  0.4015 -0.4894  0.0005
 1903TIP3   OH227123   6.630   6.129  15.093 -0.0978 -0.4357  0.5042
 1903TIP3    H127124   6.697   6.087  15.038  0.7428 -0.8833  1.8281
 1903TIP3    H227125   6.674   6.206  15.129 -0.3147 -0.6913  1.3267
 1904TIP3   OH227126   1.477   2.474  13.362  0.2592  0.2234 -1.0136
 1904TIP3    H127127   1.384   2.459  13.381  0.3611  2.7420  2.7106
 1904TIP3    H227128   1.481   2.565  13.332  1.6322  1.2243  1.8112
 1905TIP3   OH227129   3.137   6.617  15.391  0.5732 -0.3546  0.0657
 1905TIP3    H127130   3.201   6.682  15.364  0.2148 -0.4792 -1.1415
 1905TIP3    H227131   3.053   6.663  15.387  0.2896 -0.9283 -1.0225
 1906TIP3   OH227132   2.507   1.570  14.560 -0.1379 -0.1431  0.5226
 1906TIP3    H127133   2.561   1.623  14.502  0.2863 -1.6338 -0.5090
 1906TIP3    H227134   2.546   1.482  14.555 -2.4380 -1.2150 -0.0451
 1907TIP3   OH227135   1.534   5.719  15.921 -0.4477 -0.1810 -0.1646
 1907TIP3    H127136   1.522   5.628  15.950 -2.2879 -0.0401 -0.3251
 1907TIP3    H227137   1.445   5.752  15.912  0.1988  1.7577  0.1896
 1908TIP3   OH227138   6.569   3.178   1.879 -0.5034 -0.0755 -0.6154
 1908TIP3    H127139   6.505   3.240   1.912 -1.0188 -0.8603 -0.1248
 1908TIP3    H227140   6.635   3.171   1.948 -1.3228 -1.3364  0.0798
 1909TIP3   OH227141   5.942   0.863  16.702  0.2505  0.1487  0.1119
 1909TIP3    H127142   5.974   0.773  16.695  0.5024  0.2084  0.4789
 1909TIP3    H227143   5.847   0.855  16.705  0.2300 -0.0486 -0.7274
 1910TIP3   OH227144   1.551   1.940  15.793  0.1820 -0.2180 -0.6830
 1910TIP3    H127145   1.597   1.956  15.876  1.0977 -2.2020 -0.7381
 1910TIP3    H227146   1.463   1.974  15.808  0.7133  0.6895  0.6158
 1911TIP3   OH227147   4.658   1.295   5.810  0.1196 -0.4115 -0.0609
 1911TIP3    H127148   4.667   1.226   5.876 -0.7406 -0.8082 -0.3437
 1911TIP3    H227149   4.602   1.360   5.852  1.2991  0.3592  0.3774
 1912TIP3   OH227150   5.636   4.155  14.119 -0.7898  0.0276  0.2086
 1912TIP3    H127151   5.680   4.072  14.103  0.4152  0.8513 -1.1422
 1912TIP3    H227152   5.570   4.161  14.050 -0.7374  0.2493  0.1730
 1913TIP3   OH227153   6.685   2.141   5.815 -0.5836 -0.6853 -0.1957
 1913TIP3    H127154   6.671   2.202   5.742 -0.9799 -0.1354  0.3323
 1913TIP3    H227155   6.674   2.054   5.776 -1.0706 -0.3855 -0.7347
 1914TIP3   OH227156   5.750   6.107  14.894 -0.2374 -0.1627  0.1326
 1914TIP3    H127157   5.786   6.019  14.899  0.5863  0.1579  0.1462
 1914TIP3    H227158   5.680   6.109  14.958  0.6398 -0.4145  1.1289
 1915TIP3   OH227159   0.496   1.564  12.314  0.1787  0.4039  0.2683
 1915TIP3    H127160   0.429   1.496  12.322  0.4333  0.1413  0.1839
 1915TIP3    H227161   0.574   1.518  12.284  0.3464  0.7383  0.1801
 1916TIP3   OH227162   0.655   4.407  14.562 -0.3481  0.7662  0.3509
 1916TIP3    H127163   0.651   4.433  14.654 -1.1973 -0.1759  0.6020
 1916TIP3    H227164   0.685   4.316  14.564  2.9174  1.6905 -0.5276
 1917TIP3   OH227165   0.827   1.606   4.959 -0.9819 -0.5503  0.4092
 1917TIP3    H127166   0.855   1.659   4.884 -2.6479  1.5111  1.1392
 1917TIP3    H227167   0.825   1.516   4.925  0.2047  0.0497 -1.4174
 1918TIP3   OH227168   2.030   1.643   1.897  0.0404  0.3475  0.1745
 1918TIP3    H127169   1.952   1.694   1.918  0.7873  1.4704  0.2961
 1918TIP3    H227170   2.049   1.594   1.977 -0.4571  0.1729  0.1871
 1919TIP3   OH227171   6.274   1.448  12.160  0.6365  0.0082 -0.7503
 1919TIP3    H127172   6.278   1.425  12.253  2.2012 -1.0342 -1.0300
 1919TIP3    H227173   6.359   1.489  12.142  0.9481 -1.0988 -1.9978
 1920TIP3   OH227174   2.678   5.330  14.421 -0.0817  0.2638 -0.2505
 1920TIP3    H127175   2.678   5.315  14.516  1.2199  0.4681 -0.2064
 1920TIP3    H227176   2.733   5.407  14.409  1.8583 -1.2165 -1.3713
 1921TIP3   OH227177   5.947   5.270   5.420  0.1008 -0.5742 -0.0014
 1921TIP3    H127178   5.940   5.282   5.515  0.6563  1.1647 -0.1440
 1921TIP3    H227179   5.866   5.226   5.395 -0.8024  0.4202  1.0729
 1922TIP3   OH227180   1.808   6.766   1.261 -0.6941 -0.7311  0.1383
 1922TIP3    H127181   1.892   6.727   1.237 -0.1281  1.2338 -1.2987
 1922TIP3    H227182   1.743   6.721   1.207 -0.2525 -0.6723 -0.4411
 1923TIP3   OH227183   4.119   0.052  12.594 -0.1630 -0.5193 -0.2947
 1923TIP3    H127184   4.076   0.137  12.586  0.1609  0.0499  2.7959
 1923TIP3    H227185   4.209   0.072  12.618  0.8290 -1.7696 -2.6721
 1924TIP3   OH227186   5.870   6.446  16.693 -0.7062 -0.1545  0.1900
 1924TIP3    H127187   5.867   6.479  16.783 -1.1841 -0.7773  0.4186
 1924TIP3    H227188   5.957   6.406  16.685  0.0892  1.5809 -0.2693
 1925TIP3   OH227189   4.103   2.352   1.691 -0.8131 -0.1046  0.7716
 1925TIP3    H127190   4.082   2.259   1.689  1.0430 -0.5681 -1.8071
 1925TIP3    H227191   4.071   2.386   1.608  2.7326  0.3995 -0.5899
 1926TIP3   OH227192   3.374   3.225   6.480  0.3634 -0.6213 -1.2238
 1926TIP3    H127193   3.386   3.314   6.513  0.2434 -0.9763 -0.1998
 1926TIP3    H227194   3.385   3.233   6.385 -0.3574  0.6089 -1.2182
 1927TIP3   OH227195   6.349   3.595   4.655 -0.0883 -0.1197  0.0060
 1927TIP3    H127196   6.382   3.680   4.684 -0.4151  0.0545 -0.1148
 1927TIP3    H227197   6.257   3.596   4.681 -0.8639  0.7261 -2.4315
 1928TIP3   OH227198   0.990   1.887   6.247 -0.3342 -0.0902  0.5288
 1928TIP3    H127199   1.065   1.893   6.188 -0.7664  1.8948  0.1089
 1928TIP3    H227200   1.028   1.866   6.332  0.5457 -0.5000  0.0476
 1929TIP3   OH227201   1.395   3.034   1.709 -0.1029  0.3820  0.4554
 1929TIP3    H127202   1.374   2.942   1.723 -0.6249  0.4020 -0.1481
 1929TIP3    H227203   1.329   3.065   1.647  0.8096  0.8421 -0.3285
 1930TIP3   OH227204   5.428   6.006   1.713  0.2621  0.5126  0.3139
 1930TIP3    H127205   5.377   6.067   1.659 -0.2755 -0.3846 -0.2176
 1930TIP3    H227206   5.500   6.059   1.748  0.1062  1.3275 -0.5675
 1931TIP3   OH227207   5.516   4.281  15.971  0.1506  0.0342  0.2100
 1931TIP3    H127208   5.576   4.232  15.916  0.6348  2.0080 -1.1497
 1931TIP3    H227209   5.441   4.300  15.915  0.1808  1.1913  0.5154
 1932TIP3   OH227210   4.835   1.925  14.203  0.3936  0.3156  0.1560
 1932TIP3    H127211   4.795   2.008  14.225 -1.1078  0.1101 -1.5969
 1932TIP3    H227212   4.764   1.871  14.169  2.0579 -0.0066 -3.2746
 1933TIP3   OH227213   0.922   4.532   1.924  0.1072  0.1875 -0.1263
 1933TIP3    H127214   0.828   4.516   1.927 -0.0696  1.2472  1.0135
 1933TIP3    H227215   0.960   4.464   1.978  0.0734 -0.6156 -1.0861
 1934TIP3   OH227216   5.290   5.668  13.024 -0.3328  0.6032  0.2302
 1934TIP3    H127217   5.317   5.744  13.076 -0.5023  1.2814 -0.6630
 1934TIP3    H227218   5.195   5.664  13.036 -0.2458  0.0971  0.8362
 1935TIP3   OH227219   0.559   5.343  14.966 -0.5345  0.6487  0.2391
 1935TIP3    H127220   0.526   5.432  14.963 -2.9446 -0.1520  0.7594
 1935TIP3    H227221   0.491   5.291  14.922  1.3518 -0.8124 -1.1195
 1936TIP3   OH227222   3.418   1.060  16.021 -0.0039  0.3539 -0.0772
 1936TIP3    H127223   3.328   1.075  16.048  0.3727 -0.8727  2.0714
 1936TIP3    H227224   3.414   0.981  15.966 -0.3417  0.8718 -0.8109
 1937TIP3   OH227225   4.469   4.869  15.482  0.5383 -0.4317 -0.1526
 1937TIP3    H127226   4.505   4.875  15.393  1.6717  0.1115  0.3338
 1937TIP3    H227227   4.545   4.853  15.538  0.2244  1.8811  1.0337
 1938TIP3   OH227228   4.826   3.645  16.561 -0.5228 -0.2749 -0.6136
 1938TIP3    H127229   4.758   3.689  16.510 -2.0245 -0.7500  0.8976
 1938TIP3    H227230   4.778   3.586  16.620  1.0124  1.0845  2.1665
 1939TIP3   OH227231   4.335   4.054  13.993 -0.4814 -0.8817  0.8792
 1939TIP3    H127232   4.392   3.979  14.010  2.4282  1.2492  1.1453
 1939TIP3    H227233   4.393   4.120  13.956 -2.9795  1.2121  0.4456
 1940TIP3   OH227234   4.664   0.939  14.061  0.1226  0.3493  0.2970
 1940TIP3    H127235   4.722   0.933  13.985  1.8030  0.2533  1.5269
 1940TIP3    H227236   4.619   0.855  14.063 -0.0596  0.4152 -0.6775
 1941TIP3   OH227237   1.361   6.328  12.430 -0.5908 -0.8549 -1.0771
 1941TIP3    H127238   1.456   6.332  12.444 -0.7041 -0.4663 -0.4188
 1941TIP3    H227239   1.338   6.416  12.401 -0.7482 -0.9599 -1.2712
 1942TIP3   OH227240   6.409   4.058   0.736  0.3104  0.0281  0.1398
 1942TIP3    H127241   6.395   3.998   0.810  0.1491  0.2737  0.3091
 1942TIP3    H227242   6.326   4.058   0.689  1.3828 -2.8703 -2.1103
 1943TIP3   OH227243   1.927   2.945  14.631 -0.2398 -0.4661  0.1499
 1943TIP3    H127244   1.890   2.979  14.550 -2.1198 -1.5543  0.4995
 1943TIP3    H227245   1.996   2.886  14.603  1.2079  1.4539 -0.5301
 1944TIP3   OH227246   2.372   0.695   5.827 -0.7493  0.4013 -0.4035
 1944TIP3    H127247   2.362   0.731   5.916  0.0381  0.7157 -0.4335
 1944TIP3    H227248   2.322   0.755   5.771 -0.3411  0.8355 -0.3102
 1945TIP3   OH227249   3.441   0.412   1.593 -0.1393  0.8593  0.1017
 1945TIP3    H127250   3.368   0.387   1.650  0.2151 -1.9771 -0.5292
 1945TIP3    H227251   3.515   0.423   1.652 -0.6872  2.1984  0.5784
 1946TIP3   OH227252   0.373   1.578   5.704 -0.0328 -0.0000 -0.0793
 1946TIP3    H127253   0.303   1.635   5.671 -1.4016  0.1064  2.6433
 1946TIP3    H227254   0.415   1.630   5.773  1.5696 -0.7554 -0.4452
 1947TIP3   OH227255   2.746   6.516   1.448 -0.0217 -0.3775 -0.2047
 1947TIP3    H127256   2.673   6.470   1.489  1.3717 -2.6232 -0.0522
 1947TIP3    H227257   2.798   6.446   1.407  1.5543  1.2236 -1.0759
 1948TIP3   OH227258   5.014   6.540  14.560 -0.4164 -0.5476 -0.5751
 1948TIP3    H127259   5.050   6.550  14.648  1.7610  0.1713 -1.4620
 1948TIP3    H227260   4.970   6.455  14.562  1.3749 -1.5271  0.6723
 1949TIP3   OH227261   1.630   4.572  16.274  0.3932  0.1289 -0.0823
 1949TIP3    H127262   1.697   4.506  16.293  0.6769  0.3687 -0.2300
 1949TIP3    H227263   1.592   4.594  16.359  1.7512  1.3036  0.2582
 1950TIP3   OH227264   2.679   4.210   0.740 -0.5283  0.0628  0.5074
 1950TIP3    H127265   2.632   4.158   0.675 -0.1880 -0.7751  0.9157
 1950TIP3    H227266   2.623   4.286   0.755 -0.7452  0.1269 -0.5449
 1951TIP3   OH227267   1.510   1.863  12.785  0.0416 -0.1986 -0.2772
 1951TIP3    H127268   1.507   1.805  12.710  1.7207  0.5076 -0.9359
 1951TIP3    H227269   1.460   1.817  12.853 -2.3482 -0.4179 -2.0533
 1952TIP3   OH227270   0.682   5.725   0.959  0.0254  0.1649 -0.4574
 1952TIP3    H127271   0.643   5.657   1.014 -0.2842  0.1442 -0.6982
 1952TIP3    H227272   0.773   5.698   0.948  0.5556  1.0405  1.4332
 1953TIP3   OH227273   3.061   4.420   4.848 -0.3532 -0.1063 -0.0613
 1953TIP3    H127274   2.990   4.396   4.907  0.0402 -0.3892  0.3014
 1953TIP3    H227275   3.140   4.387   4.891  0.0739  0.8255 -0.1067
 1954TIP3   OH227276   3.624   2.472  15.659 -0.1921 -0.5843  0.0902
 1954TIP3    H127277   3.671   2.465  15.575  1.0752 -1.5173  0.8378
 1954TIP3    H227278   3.655   2.397  15.709 -0.8159  0.0588  1.4698
 1955TIP3   OH227279   5.325   1.455   6.007  0.2893 -0.9110  0.2242
 1955TIP3    H127280   5.254   1.462   6.072  0.5946  1.3302  0.3946
 1955TIP3    H227281   5.403   1.435   6.058  0.3719 -0.0009  0.4702
 1956TIP3   OH227282   0.424   3.557  15.691 -0.4253  0.0156 -0.3306
 1956TIP3    H127283   0.468   3.567  15.607 -0.1654 -1.1205 -0.3485
 1956TIP3    H227284   0.374   3.638  15.702  0.7957  0.8645 -0.8233
 1957TIP3   OH227285   5.235   0.648   3.715  0.3499 -0.1170 -0.1945
 1957TIP3    H127286   5.183   0.714   3.760  0.5302 -0.0473 -0.0873
 1957TIP3    H227287   5.184   0.567   3.722  0.0953  0.0247 -0.3865
 1958TIP3   OH227288   2.626   0.796  15.700 -0.0180  0.4759 -0.7558
 1958TIP3    H127289   2.617   0.891  15.701  0.0429  0.4771 -0.2892
 1958TIP3    H227290   2.617   0.773  15.607  1.2841  1.0609 -1.0477
 1959TIP3   OH227291   5.074   5.819   5.782  0.1034  0.1017 -0.0124
 1959TIP3    H127292   5.004   5.759   5.810  1.5504 -0.9067  1.6585
 1959TIP3    H227293   5.125   5.834   5.862 -0.1290  3.5689 -0.3590
 1960TIP3   OH227294   5.825   1.857  11.830 -0.5520  0.0469 -0.2001
 1960TIP3    H127295   5.799   1.941  11.867 -2.6155 -0.4923 -0.2816
 1960TIP3    H227296   5.898   1.828  11.884 -1.4536  0.7398  1.4695
 1961TIP3   OH227297   2.636   0.302  13.972 -0.3064  0.1714  0.6795
 1961TIP3    H127298   2.619   0.348  13.890  2.5838  1.2135  0.5368
 1961TIP3    H227299   2.606   0.213  13.957 -0.1198  0.4094 -1.4218
 1962TIP3   OH227300   6.620   3.841   0.810 -0.5970  0.3950 -0.1161
 1962TIP3    H127301   6.677   3.918   0.814 -0.4884  0.3218 -0.2527
 1962TIP3    H227302   6.671   3.775   0.764 -0.9672  0.4893 -0.6889
 1963TIP3   OH227303   1.231   6.375  14.061 -0.0093  0.6063  0.3648
 1963TIP3    H127304   1.276   6.445  14.015  1.1506 -0.1253  0.3495
 1963TIP3    H227305   1.270   6.294  14.026 -3.3918 -0.2611 -1.8920
 1964TIP3   OH227306   0.672   5.720   5.156 -0.2822 -0.2432 -0.0959
 1964TIP3    H127307   0.734   5.783   5.119 -0.5653 -0.1804 -0.4692
 1964TIP3    H227308   0.728   5.655   5.198 -0.0206  1.0716  1.6832
 1965TIP3   OH227309   4.041   2.019   4.700 -0.0314 -0.2060 -0.2660
 1965TIP3    H127310   4.032   1.955   4.630 -0.2929  0.3405 -0.7406
 1965TIP3    H227311   3.984   1.986   4.770 -0.6441 -0.1842 -0.7419
 1966TIP3   OH227312   6.216   2.425  11.262 -0.3365  0.4181  0.0643
 1966TIP3    H127313   6.283   2.444  11.195 -0.9476  2.0605 -0.1253
 1966TIP3    H227314   6.267   2.402  11.340  0.3952 -2.3554 -1.1011
 1967TIP3   OH227315   2.377   1.483   5.298 -0.1539  0.5757  0.3060
 1967TIP3    H127316   2.374   1.447   5.209 -1.6535  0.5513  0.3447
 1967TIP3    H227317   2.470   1.483   5.320  0.0331 -2.5370 -0.0077
 1968TIP3   OH227318   5.895   2.555  11.763 -0.0174  0.1522 -0.2415
 1968TIP3    H127319   5.889   2.508  11.846  0.7396  0.8881  0.2503
 1968TIP3    H227320   5.980   2.599  11.766  0.3827 -0.4427 -1.7610
 1969TIP3   OH227321   5.463   5.496  12.589 -0.7287  0.1538  0.1636
 1969TIP3    H127322   5.536   5.434  12.598 -1.2498 -0.4250  0.4899
 1969TIP3    H227323   5.435   5.486  12.498 -0.6299  0.1238  0.1350
 1970TIP3   OH227324   2.581   0.558   1.880 -0.8508  0.0288 -0.2387
 1970TIP3    H127325   2.584   0.482   1.938 -1.0093 -0.5528 -0.9770
 1970TIP3    H227326   2.639   0.535   1.808 -0.8074  0.6632 -0.4108
 1971TIP3   OH227327   5.121   3.193   3.760  0.6489  0.5033 -0.2695
 1971TIP3    H127328   5.157   3.120   3.811 -0.6783 -0.3570 -0.5206
 1971TIP3    H227329   5.198   3.242   3.732  1.5154 -0.1772  0.8201
 1972TIP3   OH227330   2.444   2.973   3.070 -0.0957 -0.0947 -0.6836
 1972TIP3    H127331   2.521   2.998   3.018  0.7018  0.0584  0.5418
 1972TIP3    H227332   2.429   3.048   3.127 -0.8455 -0.3327 -0.5675
 1973TIP3   OH227333   5.638   5.014   4.595  0.6937 -0.1820  0.2264
 1973TIP3    H127334   5.633   4.919   4.579 -1.4664  0.0846 -1.1377
 1973TIP3    H227335   5.575   5.029   4.665  1.1280  0.2391  0.5289
 1974TIP3   OH227336   3.566   0.185  14.884  0.4363 -0.1156 -0.7933
 1974TIP3    H127337   3.551   0.248  14.954  1.3909  0.2785 -0.9217
 1974TIP3    H227338   3.592   0.238  14.809  0.2675 -0.5971 -1.2017
 1975TIP3   OH227339   4.241   4.003   5.782 -0.5163 -0.2568  0.2593
 1975TIP3    H127340   4.300   3.944   5.735 -0.5020  1.3129 -1.8265
 1975TIP3    H227341   4.218   3.955   5.862  1.9221 -1.7671  0.1516
 1976TIP3   OH227342   2.051   3.430  13.712  0.1810 -0.5611  0.2854
 1976TIP3    H127343   2.087   3.452  13.626 -2.1985  2.5477 -0.0787
 1976TIP3    H227344   1.986   3.361  13.693 -0.7336  0.4936 -0.5628
 1977TIP3   OH227345   3.371   4.112   1.152 -0.1871  0.4556 -0.3384
 1977TIP3    H127346   3.370   4.017   1.142  1.3445  0.3629  0.1868
 1977TIP3    H227347   3.397   4.126   1.243 -4.2845  1.3721  0.8717
 1978TIP3   OH227348   4.185   4.358   0.348 -0.0120  0.5578  0.4615
 1978TIP3    H127349   4.178   4.412   0.427  0.6196 -0.1498  1.0173
 1978TIP3    H227350   4.159   4.417   0.277 -1.6875  0.8929  1.2918
 1979TIP3   OH227351   0.618   5.140  15.547 -0.1871 -0.1692 -0.3758
 1979TIP3    H127352   0.574   5.156  15.630 -1.9516  0.5395 -1.3924
 1979TIP3    H227353   0.579   5.203  15.487  0.4006 -1.2471 -1.9575
 1980TIP3   OH227354   2.928   0.676  13.764  0.3640  0.0777  0.8845
 1980TIP3    H127355   2.841   0.684  13.724  0.4810 -0.3523  0.5362
 1980TIP3    H227356   2.977   0.750  13.727  0.0252  0.5732  1.4122
 1981TIP3   OH227357   6.114   3.325   4.217 -0.3757 -0.0888 -0.4823
 1981TIP3    H127358   6.142   3.405   4.261  1.3096 -0.5515 -0.6233
 1981TIP3    H227359   6.035   3.299   4.263  0.4157  0.3359  1.2224
 1982TIP3   OH227360   5.031   3.257  10.915 -0.0975  0.5690 -0.1993
 1982TIP3    H127361   4.984   3.339  10.930 -1.8848 -0.5862  0.9907
 1982TIP3    H227362   4.986   3.217  10.841  0.4631  0.4513 -0.4771
 1983TIP3   OH227363   2.791   3.987  13.890  0.1192 -0.7483 -0.4370
 1983TIP3    H127364   2.733   3.932  13.839 -0.2782  0.6380 -1.5353
 1983TIP3    H227365   2.855   4.020  13.827 -0.7142  1.4527 -0.2139
 1984TIP3   OH227366   1.210   4.178  12.060 -0.2198 -0.4187 -0.4322
 1984TIP3    H127367   1.220   4.195  11.966  0.2646 -0.1422 -0.3391
 1984TIP3    H227368   1.153   4.102  12.065 -0.4662 -0.2749 -0.9450
 1985TIP3   OH227369   4.507   1.977   2.116  0.1539 -0.4447 -0.3621
 1985TIP3    H127370   4.486   2.057   2.067  0.3752  0.1204  0.4380
 1985TIP3    H227371   4.595   1.954   2.087  0.4401  0.1113  0.0555
 1986TIP3   OH227372   4.074   1.491   0.969  0.3006 -0.1296 -0.7614
 1986TIP3    H127373   4.154   1.445   0.943 -0.8005 -2.7631  0.0961
 1986TIP3    H227374   4.014   1.478   0.895  0.4726  1.4728 -1.2237
 1987TIP3   OH227375   2.587   5.172   5.920  1.2930 -0.1434  0.0127
 1987TIP3    H127376   2.630   5.215   5.994  0.4628 -0.4647  0.7049
 1987TIP3    H227377   2.620   5.082   5.924 -0.3231 -0.7400  1.3243
 1988TIP3   OH227378   5.693   4.613   1.795 -0.0065 -0.3991 -0.0815
 1988TIP3    H127379   5.680   4.521   1.772  1.4805 -0.6637  0.0500
 1988TIP3    H227380   5.778   4.636   1.757 -0.0016  0.7034  0.5436
 1989TIP3   OH227381   5.409   4.671  13.344 -0.0411 -0.4092  0.0775
 1989TIP3    H127382   5.480   4.712  13.394  0.8373 -1.3151 -0.3658
 1989TIP3    H227383   5.412   4.713  13.259 -0.3548 -0.1182  0.2086
 1990TIP3   OH227384   1.099   1.162   1.124 -0.0537 -0.1298  0.2525
 1990TIP3    H127385   1.152   1.152   1.045 -0.8961 -1.5639 -0.1705
 1990TIP3    H227386   1.011   1.136   1.098 -0.7379  1.1286  1.2260
 1991TIP3   OH227387   2.459   4.380  16.855  0.0179 -0.1680  0.2079
 1991TIP3    H127388   2.383   4.434  16.830 -0.3204 -0.5694  0.3641
 1991TIP3    H227389   2.423   4.315  16.915  0.5473 -0.1707  0.5221
 1992TIP3   OH227390   2.521   1.671  16.918  0.1489 -0.9609  0.1388
 1992TIP3    H127391   2.433   1.662  16.953 -1.2103  4.2380 -1.0493
 1992TIP3    H227392   2.564   1.733  16.978  1.7120 -0.6814 -1.1930
 1993TIP3   OH227393   2.018   1.253  13.538  0.6983 -0.0285  0.1749
 1993TIP3    H127394   2.044   1.339  13.572  2.6803  0.1383 -1.5268
 1993TIP3    H227395   1.998   1.269  13.446  0.0597 -1.2347  0.0875
 1994TIP3   OH227396   6.026   6.172   1.715 -0.5052  0.1036  0.2213
 1994TIP3    H127397   6.090   6.135   1.655 -1.3101 -0.0195 -0.5770
 1994TIP3    H227398   6.049   6.133   1.800  1.3544  1.1827  0.2614
 1995TIP3   OH227399   3.699   0.162   0.006 -0.2637 -0.2560  0.2141
 1995TIP3    H127400   3.747   0.097   0.056  0.7616  0.1716 -0.1857
 1995TIP3    H227401   3.766   0.225  -0.022 -0.9075 -0.0988 -1.0628
 1996TIP3   OH227402   5.620   4.639  14.884  0.7055 -0.1530 -0.2366
 1996TIP3    H127403   5.664   4.605  14.806  0.8991  1.0367 -0.6705
 1996TIP3    H227404   5.604   4.731  14.864  0.1167 -0.0024  0.8537
 1997TIP3   OH227405   0.286   1.118   2.718  0.4655  0.2822 -0.2009
 1997TIP3    H127406   0.225   1.071   2.775 -0.5625  1.9605  0.1515
 1997TIP3    H227407   0.230   1.171   2.662  1.5819  1.9339  0.1868
 1998TIP3   OH227408   3.804   2.544  11.072  0.3468  0.4950  0.4932
 1998TIP3    H127409   3.742   2.589  11.130 -0.1925  1.0060 -0.4541
 1998TIP3    H227410   3.887   2.590  11.084 -0.2145  1.8378 -0.5264
 1999TIP3   OH227411   2.653   5.743  14.373 -0.1629  0.0487  0.5190
 1999TIP3    H127412   2.590   5.707  14.435  0.9525 -1.6989  0.7089
 1999TIP3    H227413   2.664   5.675  14.307  0.8424  0.6878 -0.0050
 2000TIP3   OH227414   1.701   4.939   3.671  0.5151  0.1019 -0.6727
 2000TIP3    H127415   1.695   5.008   3.736  0.7018 -0.8017  0.3364
 2000TIP3    H227416   1.628   4.881   3.690  0.4270 -0.0477 -1.4311
 2001TIP3   OH227417   3.323   3.546  15.366 -0.4803 -0.2493 -0.0699
 2001TIP3    H127418   3.298   3.619  15.310  0.9679  0.9161  0.7175
 2001TIP3    H227419   3.412   3.524  15.339  0.0768  0.0373  1.4007
 2002TIP3   OH227420   0.106   5.649  14.721 -0.0106 -0.6260 -0.5422
 2002TIP3    H127421   0.054   5.662  14.800  0.3084  1.1010 -0.5746
 2002TIP3    H227422   0.046   5.607  14.659 -1.0399  0.3116 -0.2096
 2003TIP3   OH227423   4.768   3.420  15.741 -0.3799 -0.4993  0.1431
 2003TIP3    H127424   4.772   3.458  15.828  0.1949  1.1719 -0.5567
 2003TIP3    H227425   4.836   3.467  15.692 -1.8934 -0.0694 -1.6658
 2004TIP3   OH227426   6.664   1.462   5.428 -0.0764 -0.7646 -0.0511
 2004TIP3    H127427   6.701   1.406   5.360 -1.6493 -1.7746 -0.1335
 2004TIP3    H227428   6.728   1.458   5.499  0.5405 -1.4848 -0.6307
 2005TIP3   OH227429   1.171   2.406   3.363  0.2932  1.2692 -0.2574
 2005TIP3    H127430   1.170   2.476   3.429 -0.1620 -0.2393  1.4245
 2005TIP3    H227431   1.229   2.339   3.400 -1.4428 -0.4414 -0.4272
 2006TIP3   OH227432   3.220   0.092   3.525  0.2221  0.6696  0.7966
 2006TIP3    H127433   3.192   0.031   3.457  0.2091  1.0087  0.4962
 2006TIP3    H227434   3.304   0.057   3.555  0.5295  0.8593  0.1744
 2007TIP3   OH227435   1.285   5.076  13.251  0.4529  0.0714 -0.1517
 2007TIP3    H127436   1.311   5.015  13.320  0.5554 -0.1445 -0.3782
 2007TIP3    H227437   1.310   5.032  13.169 -1.2100 -0.4487 -0.4271
 2008TIP3   OH227438   0.285   6.389  10.469  0.3209 -0.1043 -0.4665
 2008TIP3    H127439   0.259   6.324  10.404 -2.2023 -0.3955  0.7314
 2008TIP3    H227440   0.330   6.456  10.418 -1.4547 -0.3633 -2.5417
 2009TIP3   OH227441   4.650   0.281   2.660  0.2800 -0.1026 -0.7573
 2009TIP3    H127442   4.575   0.223   2.646  0.3176 -0.4338  0.2871
 2009TIP3    H227443   4.722   0.240   2.614 -0.7752  1.7963 -4.5235
 2010TIP3   OH227444   1.831   2.713  11.300 -0.5323  0.2868 -0.2661
 2010TIP3    H127445   1.874   2.764  11.369  0.8840 -0.7944 -0.3054
 2010TIP3    H227446   1.883   2.730  11.221 -0.7272 -0.3263 -0.5333
 2011TIP3   OH227447   5.785   5.516   0.093  0.0310  0.1941 -0.7688
 2011TIP3    H127448   5.829   5.554   0.169 -1.5998  0.4896  0.0813
 2011TIP3    H227449   5.780   5.422   0.112 -0.5944  0.3017 -0.3822
 2012TIP3   OH227450   6.742   3.630  11.948 -0.3757  0.1591 -0.2784
 2012TIP3    H127451   6.771   3.639  11.857  0.2830  0.0743 -0.0844
 2012TIP3    H227452   6.806   3.570  11.988 -1.7440 -1.3654 -0.2422
 2013TIP3   OH227453   5.837   6.000  10.403  0.1605 -0.0178  0.1040
 2013TIP3    H127454   5.775   6.052  10.352  1.0116  1.4907  0.5451
 2013TIP3    H227455   5.787   5.970  10.478 -0.0867  1.1200  0.4184
 2014TIP3   OH227456   4.767   0.843  11.971  0.0042 -0.1492  0.3354
 2014TIP3    H127457   4.799   0.763  11.930 -2.4773  0.0608 -2.2441
 2014TIP3    H227458   4.718   0.888  11.903 -0.5532  2.5239  2.3250
 2015TIP3   OH227459   1.104   2.412   3.709 -0.4525 -0.6576  0.0363
 2015TIP3    H127460   1.129   2.479   3.646  0.4484 -1.3864 -0.4116
 2015TIP3    H227461   1.181   2.355   3.715 -1.1598 -1.5934  0.4654
 2016TIP3   OH227462   2.077   3.557   1.712 -0.1751  0.8658 -0.6687
 2016TIP3    H127463   2.079   3.590   1.622  0.9140  1.0897 -0.5658
 2016TIP3    H227464   2.161   3.515   1.724  0.3448  2.2329  0.7592
 2017TIP3   OH227465   0.999   1.903  13.516  0.1065 -0.3170  0.1664
 2017TIP3    H127466   0.954   1.982  13.487 -0.9193 -1.2876 -0.9956
 2017TIP3    H227467   0.941   1.866  13.583 -0.2177 -0.8935 -0.4183
 2018TIP3   OH227468   3.059   5.765  11.602 -0.1164 -0.2027  0.3866
 2018TIP3    H127469   3.054   5.859  11.620  1.0047 -0.1900  0.6846
 2018TIP3    H227470   3.035   5.724  11.685 -0.3580 -0.1769  0.3290
 2019TIP3   OH227471   0.367   5.100   4.180 -0.1280 -0.7369  0.1977
 2019TIP3    H127472   0.310   5.169   4.212 -1.0109 -1.0992 -0.5387
 2019TIP3    H227473   0.431   5.086   4.251  0.4885  1.2646  0.0810
 2020TIP3   OH227474   0.048   6.536   1.032 -0.4001 -0.3410 -0.6347
 2020TIP3    H127475   0.073   6.579   1.114 -1.4936  0.3782 -0.6587
 2020TIP3    H227476   0.051   6.606   0.966 -4.3025  0.3687 -0.3013
 2021TIP3   OH227477   4.910   3.231  16.848  0.0088 -0.4868 -0.3459
 2021TIP3    H127478   4.885   3.234  16.756  1.6672  0.1872 -0.8147
 2021TIP3    H227479   4.994   3.278  16.851 -0.7064  0.7554  1.7387
 2022TIP3   OH227480   0.534   0.065   4.892 -0.2296  0.1002 -0.4040
 2022TIP3    H127481   0.503   0.073   4.802  0.2989 -0.0273 -0.5993
 2022TIP3    H227482   0.508   0.147   4.934  1.5512  1.1701 -1.2929
 2023TIP3   OH227483   1.215   3.958   2.791  0.3834  0.1004  0.5037
 2023TIP3    H127484   1.240   3.889   2.729 -0.8920  0.0725 -0.0271
 2023TIP3    H227485   1.121   3.944   2.805 -0.1834  2.3757 -0.4959
 2024TIP3   OH227486   4.499   3.654   1.864 -0.1756  0.4081 -0.1187
 2024TIP3    H127487   4.483   3.587   1.930 -2.9110  2.2178  1.2693
 2024TIP3    H227488   4.580   3.696   1.892  0.3087 -0.7934  0.3356
 2025TIP3   OH227489   0.849   6.354   1.738 -0.5773  0.2420  0.3263
 2025TIP3    H127490   0.824   6.285   1.677  0.6477  0.0150  0.0435
 2025TIP3    H227491   0.935   6.384   1.706 -0.3343  0.7465  1.4032
 2026TIP3   OH227492   0.019   6.362  14.981  0.6056 -0.5746  0.3218
 2026TIP3    H127493   0.009   6.456  14.992  0.8161 -0.4548 -0.4533
 2026TIP3    H227494   0.057   6.332  15.063 -0.1907 -0.1032  0.8795
 2027TIP3   OH227495   1.597   1.862  14.527  0.0760  0.3842 -0.1601
 2027TIP3    H127496   1.651   1.815  14.591 -0.1533  0.1788 -0.1154
 2027TIP3    H227497   1.660   1.897  14.465  0.2658  0.1592 -0.0993
 2028TIP3   OH227498   4.803   0.374   6.183  0.5604  0.4563  0.5314
 2028TIP3    H127499   4.824   0.290   6.224  0.0573  0.2198  0.3139
 2028TIP3    H227500   4.712   0.364   6.154  1.0039  0.4909 -0.9501
 2029TIP3   OH227501   3.030   4.657   1.863  0.2191  0.0208 -0.3757
 2029TIP3    H127502   3.107   4.661   1.807  0.7363 -0.5126  0.2803
 2029TIP3    H227503   3.049   4.586   1.925 -0.2904  0.6658  0.5444
 2030TIP3   OH227504   2.747   0.478  13.517 -0.0802 -0.0327  0.6579
 2030TIP3    H127505   2.800   0.398  13.512  0.6286  0.3884  1.2555
 2030TIP3    H227506   2.733   0.502  13.425  1.2036  0.1202  0.4803
 2031TIP3   OH227507   3.189   6.516   3.335 -0.4824 -0.0425  0.1176
 2031TIP3    H127508   3.281   6.540   3.339 -0.6739  0.6611  0.3269
 2031TIP3    H227509   3.175   6.460   3.412 -0.5498  0.9630  0.8507
 2032TIP3   OH227510   4.633   1.254  13.912 -0.0772  0.2687  0.6202
 2032TIP3    H127511   4.629   1.278  14.004  1.2230 -0.3076  0.8496
 2032TIP3    H227512   4.557   1.297  13.872 -0.4686  0.7861  1.8886
 2033TIP3   OH227513   6.008   3.829  12.222 -0.3418 -0.0796 -0.2467
 2033TIP3    H127514   5.995   3.890  12.150  0.8710  0.3420 -0.1240
 2033TIP3    H227515   5.920   3.794  12.240 -0.9128  0.9894 -0.8692
 2034TIP3   OH227516   0.872   1.585   0.552 -0.3100  0.0826 -0.3015
 2034TIP3    H127517   0.955   1.601   0.597 -1.2802 -2.1004  2.5973
 2034TIP3    H227518   0.898   1.545   0.469  1.5318  1.1372 -0.2979
 2035TIP3   OH227519   1.093   6.371  11.158  0.0616  0.3707  0.0762
 2035TIP3    H127520   1.183   6.404  11.160 -0.1845  1.3712 -2.1157
 2035TIP3    H227521   1.088   6.321  11.077 -1.2252 -0.1094  0.4292
 2036TIP3   OH227522   1.487   5.370  15.169  0.1318 -0.0922  0.2544
 2036TIP3    H127523   1.415   5.407  15.119  0.9013 -0.7392 -1.3836
 2036TIP3    H227524   1.486   5.419  15.252 -0.0318  2.3185 -1.0762
 2037TIP3   OH227525   1.259   1.176  12.360 -0.6050  0.1352  0.4317
 2037TIP3    H127526   1.269   1.140  12.448  0.7570 -1.6942 -0.4185
 2037TIP3    H227527   1.169   1.153  12.335 -0.7733  0.0757  1.0776
 2038TIP3   OH227528   4.608   2.268  12.206 -0.6295  0.4447 -0.1437
 2038TIP3    H127529   4.644   2.263  12.295  2.3477 -0.2969 -1.2772
 2038TIP3    H227530   4.583   2.178  12.186 -0.1406  0.3768 -0.4677
 2039TIP3   OH227531   4.439   5.848  10.670  0.5229 -0.0951  0.4250
 2039TIP3    H127532   4.480   5.786  10.731  0.2850  0.4434  1.1418
 2039TIP3    H227533   4.384   5.904  10.726  0.8584  0.8646 -0.1931
 2040TIP3   OH227534   4.316   0.392  10.381 -0.2814  0.0627 -0.2587
 2040TIP3    H127535   4.311   0.316  10.440  1.9015 -0.0406 -0.1122
 2040TIP3    H227536   4.369   0.361  10.308  0.5103  1.3905 -0.2733
 2041TIP3   OH227537   6.286   3.662  14.216 -0.1899  0.0611 -0.3904
 2041TIP3    H127538   6.218   3.614  14.169  1.3149 -0.2270 -2.3645
 2041TIP3    H227539   6.287   3.749  14.175 -0.5439  0.6637  0.8315
 2042TIP3   OH227540   1.454   5.338   1.211  0.4480  0.7208  0.0051
 2042TIP3    H127541   1.522   5.273   1.197  1.1918  1.2921  0.9316
 2042TIP3    H227542   1.488   5.418   1.171  0.0193  0.8354 -0.1418
 2043TIP3   OH227543   1.822   4.629   1.924 -0.2003  0.0098  0.1287
 2043TIP3    H127544   1.823   4.585   1.839 -0.9026 -0.3834  0.3153
 2043TIP3    H227545   1.817   4.722   1.903 -0.1289 -0.0718 -0.2609
 2044TIP3   OH227546   5.038   3.765  16.675 -0.2652 -0.3435 -0.7010
 2044TIP3    H127547   5.101   3.697  16.651  0.0188 -0.6169  0.7694
 2044TIP3    H227548   4.957   3.738  16.631  0.1316 -1.0127 -1.0509
 2045TIP3   OH227549   5.738   6.521  14.982 -0.4473 -0.6223 -0.8821
 2045TIP3    H127550   5.800   6.452  15.008 -1.6149 -1.2933  0.2525
 2045TIP3    H227551   5.790   6.581  14.929  0.9738 -1.5898 -0.6504
 2046TIP3   OH227552   0.942   6.320   2.446 -0.1005 -0.3025 -0.2751
 2046TIP3    H127553   0.979   6.307   2.533 -0.1230 -0.2816 -0.2625
 2046TIP3    H227554   0.890   6.242   2.429 -0.5624 -0.0519 -0.0354
 2047TIP3   OH227555   3.305   5.642   4.757  0.0430  0.1203 -0.2189
 2047TIP3    H127556   3.323   5.735   4.745 -0.3642  0.2904  0.4555
 2047TIP3    H227557   3.391   5.603   4.771  0.4989  0.0029 -2.8382
 2048TIP3   OH227558   4.151   1.778   0.453  0.1407 -0.8112  0.0434
 2048TIP3    H127559   4.240   1.771   0.488  0.3095 -0.4549 -0.3079
 2048TIP3    H227560   4.162   1.773   0.358 -0.1941 -0.5640 -0.0094
 2049TIP3   OH227561   2.065   0.095  14.409 -0.4199 -0.5025 -0.4480
 2049TIP3    H127562   2.067   0.099  14.313 -3.8481 -0.3153 -0.6362
 2049TIP3    H227563   2.081   0.185  14.437 -0.9283 -0.2480 -0.9500
 2050TIP3   OH227564   1.079   2.773   4.043  0.5295 -0.3649  0.5527
 2050TIP3    H127565   1.115   2.746   3.959  0.8691 -0.0911  0.6093
 2050TIP3    H227566   1.031   2.696   4.074 -1.2006  0.1443 -0.7447
 2051TIP3   OH227567   2.737   1.226   1.286 -0.1033 -0.1743  0.2717
 2051TIP3    H127568   2.730   1.190   1.197  0.1139  2.6823 -0.9945
 2051TIP3    H227569   2.802   1.295   1.279 -0.0374  0.0792  2.7073
 2052TIP3   OH227570   5.690   3.665   5.184 -0.2087 -0.2524  0.2779
 2052TIP3    H127571   5.718   3.753   5.209 -0.7197  0.2877 -0.9316
 2052TIP3    H227572   5.594   3.667   5.192 -0.2246 -0.6901  0.2157
 2053TIP3   OH227573   3.545   4.690  15.450  0.2336 -0.3164  0.1387
 2053TIP3    H127574   3.626   4.640  15.443  0.5830  0.3364 -0.5888
 2053TIP3    H227575   3.565   4.760  15.512  0.6544  0.6162 -1.0055
 2054TIP3   OH227576   5.528   0.813   4.384 -0.4766  0.5048  0.3326
 2054TIP3    H127577   5.463   0.805   4.454 -0.2255  0.8450  0.6094
 2054TIP3    H227578   5.485   0.867   4.318 -1.0061 -0.4570 -0.1350
 2055TIP3   OH227579   5.299   6.719  14.289 -0.3269 -0.1939  0.5894
 2055TIP3    H127580   5.328   6.630  14.268 -0.0085 -0.3379  1.5813
 2055TIP3    H227581   5.207   6.721  14.261 -1.0026 -1.5480  2.4848
 2056TIP3   OH227582   5.984   3.311  11.966 -0.6282  0.3855 -0.9440
 2056TIP3    H127583   6.000   3.393  12.013  0.6430 -0.9764  1.1908
 2056TIP3    H227584   6.067   3.294  11.921  0.3845 -1.3106  1.3591
 2057TIP3   OH227585   6.267   0.106  11.979 -0.0500 -0.0897  0.1467
 2057TIP3    H127586   6.351   0.085  12.021 -0.6878 -1.5606  0.7772
 2057TIP3    H227587   6.259   0.201  11.986  2.4675  0.3634 -1.7201
 2058TIP3   OH227588   6.743   2.387  12.067  0.0327  0.1897  0.3894
 2058TIP3    H127589   6.676   2.318  12.074  0.0213  0.2541  1.0464
 2058TIP3    H227590   6.694   2.469  12.069  0.0941  0.2273  0.3568
 2059TIP3   OH227591   6.759   3.693  16.275  0.3016  0.0159  0.0239
 2059TIP3    H127592   6.833   3.673  16.217 -0.0825 -0.0823 -0.4347
 2059TIP3    H227593   6.731   3.781  16.248 -0.1812 -0.2213 -0.2734
 2060TIP3   OH227594   6.218   4.721  15.053  0.3944 -0.3916 -0.1009
 2060TIP3    H127595   6.263   4.799  15.023  0.6338 -0.9452 -1.2088
 2060TIP3    H227596   6.126   4.735  15.028  0.5392 -0.7190 -0.8079
 2061TIP3   OH227597   2.285   6.101   1.228 -0.0634 -0.5003  0.0833
 2061TIP3    H127598   2.247   6.114   1.141 -0.9620 -0.1841  0.5118
 2061TIP3    H227599   2.340   6.178   1.242  1.1537 -1.2047 -0.7481
 2062TIP3   OH227600   3.003   0.041   2.648  0.3174  0.5240 -0.2665
 2062TIP3    H127601   2.970   0.121   2.689  0.9187  0.4720  0.3250
 2062TIP3    H227602   3.052   0.072   2.572 -2.4026  0.5460 -2.1817
 2063TIP3   OH227603   0.160   5.002   5.098 -0.0069 -0.3088 -0.0471
 2063TIP3    H127604   0.085   4.947   5.119  0.7350 -1.8707 -1.2522
 2063TIP3    H227605   0.234   4.958   5.139  0.5346  0.0669 -0.5955
 2064TIP3   OH227606   4.639   3.306  12.947 -0.5172  0.0619  0.1297
 2064TIP3    H127607   4.702   3.359  12.996 -1.5704  0.0916  1.5019
 2064TIP3    H227608   4.565   3.295  13.007 -1.5290 -0.5573 -1.1892
 2065TIP3   OH227609   1.200   0.052  11.748  0.1597  0.4549  0.0799
 2065TIP3    H127610   1.121  -0.002  11.741  0.1993 -0.0327  2.4590
 2065TIP3    H227611   1.211   0.090  11.661 -0.8348 -2.0483 -1.2461
 2066TIP3   OH227612   5.844   3.929   3.006  0.0722  0.2801  0.4577
 2066TIP3    H127613   5.778   3.997   2.989 -1.2910 -1.2952 -0.9927
 2066TIP3    H227614   5.803   3.871   3.070  0.5201 -0.0957  0.4079
 2067TIP3   OH227615   5.490   6.697  16.840 -0.4755  0.1745 -0.0814
 2067TIP3    H127616   5.460   6.697  16.750 -0.8322  1.6794  0.0059
 2067TIP3    H227617   5.553   6.769  16.844  0.6226 -0.7707  0.5537
 2068TIP3   OH227618   3.911   6.575   6.254 -0.2242 -0.0194 -0.2813
 2068TIP3    H127619   3.916   6.667   6.279  2.2630 -0.6682  2.1543
 2068TIP3    H227620   3.817   6.557   6.247 -0.8658  2.1527  1.5022
 2069TIP3   OH227621   0.148   1.218  14.127 -0.3345 -0.1027 -0.4869
 2069TIP3    H127622   0.192   1.155  14.184 -3.0273 -0.8740  0.9126
 2069TIP3    H227623   0.154   1.301  14.174  1.8125  0.4302 -1.5740
 2070TIP3   OH227624   3.428   0.668   6.514 -0.0764 -0.7036 -0.6424
 2070TIP3    H127625   3.367   0.636   6.580  0.4993  0.8360  0.7394
 2070TIP3    H227626   3.400   0.759   6.498  1.3013 -0.2436 -0.6018
 2071TIP3   OH227627   3.422   1.962  13.949  0.2974 -0.2785  0.1209
 2071TIP3    H127628   3.501   1.921  13.915  1.1840  1.4821 -0.0839
 2071TIP3    H227629   3.360   1.960  13.877 -0.2894 -2.6347  0.6105
 2072TIP3   OH227630   6.698   4.081  16.054  0.1813  0.2833  0.0225
 2072TIP3    H127631   6.790   4.059  16.069 -0.0206  0.4216  1.5465
 2072TIP3    H227632   6.699   4.175  16.035  0.4255  0.1255 -0.7991
 2073TIP3   OH227633   0.318   4.968  16.870 -0.3967 -0.1141  0.0577
 2073TIP3    H127634   0.377   5.043  16.856 -1.2223  0.4762 -0.3351
 2073TIP3    H227635   0.377   4.894  16.882  0.4732  0.0957 -2.3008
 2074TIP3   OH227636   4.315   2.410  10.967 -0.1069 -0.4179  0.1114
 2074TIP3    H127637   4.400   2.448  10.990  1.2328 -0.3869 -3.9847
 2074TIP3    H227638   4.252   2.476  10.994  1.3022  0.3954  1.6249
 2075TIP3   OH227639   3.083   5.374  14.551 -0.3996 -0.0575  0.4112
 2075TIP3    H127640   3.123   5.291  14.528 -0.2894  0.1642 -0.2025
 2075TIP3    H227641   3.022   5.352  14.622  0.6774 -0.4238  1.2624
 2076TIP3   OH227642   2.191   0.084  16.949 -0.3346 -0.2325  0.1161
 2076TIP3    H127643   2.125   0.095  16.881 -0.1283  1.1167  0.0984
 2076TIP3    H227644   2.270   0.056  16.903 -0.1459  0.8493 -0.2400
 2077TIP3   OH227645   2.905   5.663  14.522  0.3241  0.4437 -0.5158
 2077TIP3    H127646   2.828   5.715  14.498 -0.3946  0.1731  1.0555
 2077TIP3    H227647   2.919   5.605  14.447 -0.3911  1.1638 -1.2334
 2078TIP3   OH227648   1.551   3.376   4.458 -0.1936 -0.4151 -0.1057
 2078TIP3    H127649   1.514   3.464   4.450 -1.4132 -0.9124 -0.1664
 2078TIP3    H227650   1.640   3.390   4.488  0.2737  0.9469 -1.9212
 2079TIP3   OH227651   2.792   5.931  15.734  0.6345 -0.3124  0.2461
 2079TIP3    H127652   2.853   6.004  15.723 -0.6768  0.7720 -0.1335
 2079TIP3    H227653   2.793   5.888  15.648  2.0197 -1.2827  0.7078
 2080TIP3   OH227654   2.571   6.141  14.422  0.2409  0.0286 -0.2096
 2080TIP3    H127655   2.645   6.085  14.446 -0.1870 -0.1778  0.6647
 2080TIP3    H227656   2.496   6.082  14.419  0.1205  0.2215 -1.1915
 2081TIP3   OH227657   0.837   2.565   1.367  0.2040 -0.6101  0.1605
 2081TIP3    H127658   0.779   2.535   1.298  0.8026 -2.2677  0.3312
 2081TIP3    H227659   0.839   2.493   1.430  1.0974  0.1135  1.0022
 2082TIP3   OH227660   1.161   3.018   2.028  0.6214  0.0633  0.0045
 2082TIP3    H127661   1.140   3.044   1.938 -1.0198  1.1453  0.6550
 2082TIP3    H227662   1.112   2.937   2.042 -1.0924  1.1576  0.6480
 2083TIP3   OH227663   2.685   0.867  17.103  0.3043 -0.3265  0.3805
 2083TIP3    H127664   2.751   0.813  17.059  0.0160 -0.8258  0.5511
 2083TIP3    H227665   2.602   0.822  17.086 -0.2157  1.1016 -1.1220
 2084TIP3   OH227666   5.488   2.253  12.481 -0.4531  0.5204  0.1200
 2084TIP3    H127667   5.535   2.329  12.447  1.1032 -0.8729 -1.0028
 2084TIP3    H227668   5.407   2.251  12.429 -0.6027  1.5078  0.2994
 2085TIP3   OH227669   3.614   2.732   0.178  0.4274  0.0055  0.2392
 2085TIP3    H127670   3.543   2.794   0.187  1.0447  0.8365 -0.4636
 2085TIP3    H227671   3.613   2.682   0.260 -0.2948  0.7028  0.6669
 2086TIP3   OH227672   6.299   3.900  15.660  0.3567  0.2777  0.4093
 2086TIP3    H127673   6.323   3.863  15.745  2.7925  2.0631  0.5930
 2086TIP3    H227674   6.263   3.986  15.680  0.2075  0.3952 -0.3286
 2087TIP3   OH227675   3.549   4.812   1.306 -0.1724  0.3482 -1.0677
 2087TIP3    H127676   3.645   4.816   1.300 -0.0439 -0.5330  0.0042
 2087TIP3    H227677   3.527   4.867   1.381 -0.4193 -0.1935 -0.7388
 2088TIP3   OH227678   3.207   2.482  13.279 -0.2168  0.0847 -0.4007
 2088TIP3    H127679   3.188   2.562  13.229 -1.3897  0.5160  0.6752
 2088TIP3    H227680   3.166   2.497  13.364 -0.2498 -1.5773 -0.0952
 2089TIP3   OH227681   2.637   3.467  11.223  0.1482 -0.5667  0.6013
 2089TIP3    H127682   2.578   3.539  11.241 -0.4459 -0.3889 -1.7389
 2089TIP3    H227683   2.668   3.439  11.309 -1.1862  1.1229  1.6923
 2090TIP3   OH227684   4.222   5.033   0.245  0.1705 -0.4084 -0.0942
 2090TIP3    H127685   4.138   5.028   0.200  0.9239 -0.4091 -1.5709
 2090TIP3    H227686   4.281   4.978   0.193  0.8781 -1.1591  1.4299
 2091TIP3   OH227687   6.485   0.702  15.173  0.2853  0.0475 -0.3575
 2091TIP3    H127688   6.474   0.666  15.260 -0.6350  0.0326 -0.4745
 2091TIP3    H227689   6.444   0.638  15.115  0.9872  0.0018 -0.8168
 2092TIP3   OH227690   1.359   1.029  13.581  0.3410  0.0729 -0.4503
 2092TIP3    H127691   1.410   1.081  13.644 -1.2450  1.4606 -0.2553
 2092TIP3    H227692   1.339   0.948  13.628  0.7292  0.3300  0.1687
 2093TIP3   OH227693   5.108   1.059   0.696  0.1367 -0.1150 -0.2630
 2093TIP3    H127694   5.197   1.070   0.729 -0.2240  0.8135  0.4420
 2093TIP3    H227695   5.118   1.055   0.601  0.9334 -0.0407 -0.1910
 2094TIP3   OH227696   2.529   3.914   5.291 -0.4978  0.2963 -0.0187
 2094TIP3    H127697   2.597   3.848   5.273  1.2145  1.4102  1.9036
 2094TIP3    H227698   2.490   3.886   5.373 -1.3728  0.4608 -0.3738
 2095TIP3   OH227699   1.455   4.620   0.270 -0.3339 -0.2297  0.2070
 2095TIP3    H127700   1.510   4.699   0.268  1.6148 -1.3888  2.5805
 2095TIP3    H227701   1.502   4.557   0.214 -1.4903  0.0127 -1.0815
 2096TIP3   OH227702   2.183   2.125   4.386 -0.2533 -0.0108 -0.1112
 2096TIP3    H127703   2.118   2.082   4.331  0.0502 -1.1523  0.4014
 2096TIP3    H227704   2.220   2.055   4.439  1.3588  0.6112 -0.3490
 2097TIP3   OH227705   2.355   5.806  16.065 -0.3818  0.0071  0.5415
 2097TIP3    H127706   2.342   5.715  16.040  0.6428  0.0486 -0.2465
 2097TIP3    H227707   2.418   5.839  16.001  0.3665  0.8710  1.6823
 2098TIP3   OH227708   3.836   3.395  13.019 -0.0854  0.4536  0.1601
 2098TIP3    H127709   3.752   3.438  13.032 -0.3454  0.1813 -0.5509
 2098TIP3    H227710   3.865   3.370  13.107 -1.1674 -0.2452  0.3229
 2099TIP3   OH227711   1.306   5.724  15.653  0.2138  0.9480  0.1075
 2099TIP3    H127712   1.271   5.804  15.613  1.6789  1.0824 -0.9815
 2099TIP3    H227713   1.400   5.730  15.641  0.4724 -0.3270  1.2187
 2100TIP3   OH227714   5.596   0.400  11.056 -0.3485  0.2347  0.4714
 2100TIP3    H127715   5.526   0.442  11.106  0.4750  1.8926  0.2878
 2100TIP3    H227716   5.625   0.466  10.994  0.5763 -0.8284 -0.2770
 2101TIP3   OH227717   5.059   6.464   5.703 -0.8450  0.6905 -0.4741
 2101TIP3    H127718   5.052   6.420   5.618 -0.8823  2.4868 -1.4662
 2101TIP3    H227719   5.046   6.395   5.767 -0.4179 -0.8008 -1.9187
 2102TIP3   OH227720   6.109   4.194  15.924 -0.3910  0.0887  0.5438
 2102TIP3    H127721   6.109   4.228  15.834  0.4496 -1.0947  0.0677
 2102TIP3    H227722   6.037   4.131  15.925  0.4650 -0.9266  0.2594
 2103TIP3   OH227723   3.835   4.821   1.980 -0.0627 -0.4282 -0.1083
 2103TIP3    H127724   3.740   4.834   1.972  0.0629 -0.1723 -1.3617
 2103TIP3    H227725   3.845   4.726   1.985 -0.3196 -0.5287 -1.2243
 2104TIP3   OH227726   0.940   1.139   5.078  0.5851 -0.8070 -0.1775
 2104TIP3    H127727   1.001   1.078   5.119  1.8261  0.8048  0.4858
 2104TIP3    H227728   0.896   1.182   5.151  0.9429  0.2698 -0.5738
 2105TIP3   OH227729   5.820   2.911   4.020 -0.0907 -0.2455 -0.0247
 2105TIP3    H127730   5.883   2.882   3.954 -1.6648 -0.8385 -1.3276
 2105TIP3    H227731   5.871   2.914   4.101  1.4133 -1.4803 -0.8536
 2106TIP3   OH227732   0.728   2.329   0.953  0.1736 -0.9628  0.4776
 2106TIP3    H127733   0.726   2.239   0.920 -0.0569 -0.7045 -0.2448
 2106TIP3    H227734   0.816   2.360   0.932  1.2253 -1.8535  3.1244
 2107TIP3   OH227735   1.096   0.222   5.212 -0.3025  0.3225 -0.9285
 2107TIP3    H127736   1.088   0.134   5.248 -1.0150  0.4671 -0.7185
 2107TIP3    H227737   1.190   0.239   5.209 -0.2079  0.2411  0.6917
 2108TIP3   OH227738   5.894   4.844  14.447  0.2644 -0.3396 -0.2423
 2108TIP3    H127739   5.867   4.763  14.403  1.5161 -1.8394  1.5837
 2108TIP3    H227740   5.811   4.885  14.472 -0.5234 -2.8068  1.7167
 2109TIP3   OH227741   0.950   3.658   0.422  0.1642 -0.4332  0.3834
 2109TIP3    H127742   1.016   3.641   0.354 -0.0227  0.1528  0.0453
 2109TIP3    H227743   1.001   3.684   0.499  0.3976 -1.4872  0.6012
 2110TIP3   OH227744   5.366   0.824   2.166  0.3058 -0.2039  0.2643
 2110TIP3    H127745   5.445   0.802   2.117  0.2552  0.0907  0.0457
 2110TIP3    H227746   5.304   0.756   2.144 -0.7614  1.5235 -2.5274
 2111TIP3   OH227747   1.372   6.026   6.761  0.2216 -0.7124 -0.2484
 2111TIP3    H127748   1.355   6.115   6.792  1.5018  0.0461 -1.5745
 2111TIP3    H227749   1.325   6.022   6.677  0.0429 -1.3477 -0.1187
 2112TIP3   OH227750   3.712   1.535  16.116  0.2223 -0.7957 -0.1821
 2112TIP3    H127751   3.756   1.456  16.149 -0.5531 -1.0784  0.1857
 2112TIP3    H227752   3.619   1.515  16.123  0.0303 -0.4615 -1.5930
 2113TIP3   OH227753   6.692   1.295   0.297  0.1408 -0.2615 -0.0533
 2113TIP3    H127754   6.716   1.338   0.378  0.8250 -1.4729  0.4149
 2113TIP3    H227755   6.629   1.228   0.323  0.8366 -1.0745 -0.4076
 2114TIP3   OH227756   0.187   6.604  12.112 -0.0128  0.5760  0.2357
 2114TIP3    H127757   0.236   6.540  12.060  1.8768  1.1692  1.1820
 2114TIP3    H227758   0.225   6.688  12.088 -0.0978  0.9964  1.4781
 2115TIP3   OH227759   2.944   4.708  12.710 -0.1037 -0.1693 -0.5196
 2115TIP3    H127760   2.977   4.798  12.705 -1.0967  0.2063 -0.5705
 2115TIP3    H227761   2.925   4.684  12.619  0.6554 -0.6325 -0.5638
 2116TIP3   OH227762   4.059   5.243  16.483  0.0789  0.2371  0.3971
 2116TIP3    H127763   4.032   5.328  16.517  0.1813  0.6986 -0.6401
 2116TIP3    H227764   4.006   5.180  16.531 -1.0032  0.9761  0.2114
 2117TIP3   OH227765   4.320   3.276   3.304  0.1233  0.1823  0.3938
 2117TIP3    H127766   4.317   3.181   3.292  1.4288  0.1393  0.1604
 2117TIP3    H227767   4.384   3.289   3.374  0.9659  0.9209 -0.4777
 2118TIP3   OH227768   4.052   6.657   5.417  0.6209  0.1759 -0.0672
 2118TIP3    H127769   4.007   6.576   5.440 -0.4194 -0.3338 -3.3393
 2118TIP3    H227770   4.134   6.654   5.466  0.0317 -2.1991  0.8997
 2119TIP3   OH227771   3.690   3.566   4.100  0.5293  0.2505  0.6756
 2119TIP3    H127772   3.655   3.481   4.128 -0.1470  0.4085  0.3260
 2119TIP3    H227773   3.684   3.564   4.005  1.3116  0.3582  0.6158
 2120TIP3   OH227774   2.815   1.322  11.516 -0.8029  0.1382 -0.3776
 2120TIP3    H127775   2.819   1.381  11.440  0.8198  2.5952  1.4423
 2120TIP3    H227776   2.894   1.269  11.510  0.7166  2.1224  0.8072
 2121TIP3   OH227777   4.638   2.979  16.324  0.0878 -0.3900  0.3957
 2121TIP3    H127778   4.618   3.071  16.311 -1.5494 -0.8140 -0.4584
 2121TIP3    H227779   4.563   2.933  16.286  1.3516 -2.0954 -0.1842
 2122TIP3   OH227780   4.080   0.628  10.810  0.2494 -0.3782 -0.0256
 2122TIP3    H127781   4.028   0.569  10.756 -1.0277  1.9520 -1.4849
 2122TIP3    H227782   4.157   0.649  10.756  1.0621 -1.2022  0.7725
 2123TIP3   OH227783   1.305   1.227   5.230 -0.7610 -0.2030 -0.0018
 2123TIP3    H127784   1.265   1.308   5.198 -0.2434  0.6494  1.4400
 2123TIP3    H227785   1.272   1.218   5.320  1.3241 -0.1079  0.8117
 2124TIP3   OH227786   5.555   1.990   0.548  0.2782  0.2289  0.3914
 2124TIP3    H127787   5.612   1.915   0.529  0.2737  0.5394 -0.9659
 2124TIP3    H227788   5.613   2.065   0.552 -0.0421  0.6277 -1.5188
 2125TIP3   OH227789   0.504   0.970   6.306  0.5423 -0.1346  0.3958
 2125TIP3    H127790   0.437   0.907   6.277  1.0003 -1.1297  1.4390
 2125TIP3    H227791   0.581   0.948   6.254  0.5050  0.0259  0.2704
 2126TIP3   OH227792   6.001   6.770   4.413 -0.4201 -0.1473  0.0662
 2126TIP3    H127793   6.053   6.825   4.472 -1.9163  1.8736 -0.3931
 2126TIP3    H227794   6.003   6.817   4.329  0.4614 -2.2152 -1.1445
 2127TIP3   OH227795   4.415   4.362  10.741 -0.4574  0.3011  0.5058
 2127TIP3    H127796   4.335   4.364  10.793 -2.1976  1.7032 -1.9898
 2127TIP3    H227797   4.404   4.288  10.681  0.2024  0.3841  0.2693
 2128TIP3   OH227798   4.419   2.032   0.684  0.2551 -0.1845 -0.9330
 2128TIP3    H127799   4.514   2.017   0.679  0.1829 -1.5013  0.7572
 2128TIP3    H227800   4.406   2.117   0.642  2.5786  1.4146  1.2547
 2129TIP3   OH227801   0.411   2.055   3.923  0.4185  0.6085  0.2395
 2129TIP3    H127802   0.499   2.054   3.960 -0.5649 -1.7905  3.0074
 2129TIP3    H227803   0.407   1.976   3.869  0.4521  1.6788 -1.3809
 2130TIP3   OH227804   2.789   0.065  15.743  0.1422  0.5113  0.5426
 2130TIP3    H127805   2.852   0.010  15.790 -1.1328  0.1389  1.9014
 2130TIP3    H227806   2.768   0.135  15.805 -0.9226  0.4965  0.2114
 2131TIP3   OH227807   4.094   0.106   2.075 -0.1468  0.3572  0.4617
 2131TIP3    H127808   4.047   0.187   2.095 -0.6059  0.3822 -0.6546
 2131TIP3    H227809   4.186   0.128   2.088 -0.2559  1.1060  0.0426
 2132TIP3   OH227810   0.034   0.111  15.575 -0.3451 -0.0625  0.7005
 2132TIP3    H127811   0.030   0.136  15.668 -1.5455  1.3612  0.3021
 2132TIP3    H227812  -0.054   0.078  15.556  0.3609 -1.9279  0.4459
 2133TIP3   OH227813   0.540   3.605  11.976  0.7140  0.6294 -0.3519
 2133TIP3    H127814   0.545   3.511  11.957 -2.5962  0.3180 -0.3609
 2133TIP3    H227815   0.469   3.612  12.040  0.3696  3.1943 -0.9129
 2134TIP3   OH227816   4.515   1.619   3.982  0.4273 -0.1672  0.5737
 2134TIP3    H127817   4.428   1.650   3.958  0.9071 -0.7796 -2.4738
 2134TIP3    H227818   4.575   1.684   3.945  1.2713 -0.8109  0.7624
 2135TIP3   OH227819   1.539   6.507   6.677  0.3399  0.3479 -0.2036
 2135TIP3    H127820   1.518   6.600   6.671  0.7053  0.4450 -0.0380
 2135TIP3    H227821   1.488   6.466   6.607 -1.0455  0.4460  0.7052
 2136TIP3   OH227822   5.681   3.774   4.318 -0.1487  0.3568 -0.0010
 2136TIP3    H127823   5.774   3.789   4.302 -0.2625  0.6398 -0.4059
 2136TIP3    H227824   5.638   3.853   4.284 -0.5514  0.1520  0.0288
 2137TIP3   OH227825   0.466   6.749  14.889  0.0776 -0.1485  0.3735
 2137TIP3    H127826   0.523   6.822  14.914 -1.0519  0.6410  0.7292
 2137TIP3    H227827   0.413   6.783  14.817  0.5897 -1.1356 -0.4966
 2138TIP3   OH227828   4.770   6.652   0.397  0.0819 -0.2861 -0.6618
 2138TIP3    H127829   4.854   6.618   0.425 -0.8367 -1.4240  0.8317
 2138TIP3    H227830   4.787   6.689   0.310  2.3122  0.4185  0.0154
 2139TIP3   OH227831   3.141   0.927   0.150 -0.0761 -0.4793  0.3517
 2139TIP3    H127832   3.045   0.921   0.148 -0.1257  0.0899  0.7485
 2139TIP3    H227833   3.163   0.978   0.072 -0.0296 -1.3222 -0.1962
 2140TIP3   OH227834   5.091   3.542   0.752 -0.2994 -0.0935  0.6360
 2140TIP3    H127835   5.160   3.605   0.735 -2.0374  2.2815  1.6652
 2140TIP3    H227836   5.013   3.580   0.711 -1.5857 -1.1297  1.9752
 2141TIP3   OH227837   2.305   6.414  13.450 -0.0484  0.7553 -0.3076
 2141TIP3    H127838   2.244   6.384  13.383  1.3749  0.8759 -1.6994
 2141TIP3    H227839   2.338   6.333  13.490  1.0741  0.5458 -1.5906
 2142TIP3   OH227840   1.381   0.008   1.456 -0.0177  0.1556 -0.1170
 2142TIP3    H127841   1.325   0.085   1.449  0.0592  0.6546  3.1785
 2142TIP3    H227842   1.470   0.044   1.459  0.4542 -0.4880 -3.0822
 2143TIP3   OH227843   5.951   1.928  15.422  0.3438 -0.2587  0.0932
 2143TIP3    H127844   5.930   1.905  15.512 -3.2072  2.0201  0.0574
 2143TIP3    H227845   6.003   1.854  15.390 -0.9055 -2.6466  3.0454
 2144TIP3   OH227846   5.527   6.459   3.962 -0.1991  0.1605  0.4596
 2144TIP3    H127847   5.445   6.507   3.970 -0.4334 -0.4239  1.9231
 2144TIP3    H227848   5.504   6.368   3.981  0.5884 -0.1936 -0.2370
 2145TIP3   OH227849   2.336   2.814   5.367 -0.4093  0.2262 -0.6774
 2145TIP3    H127850   2.264   2.768   5.410 -0.4040  1.1048  0.3221
 2145TIP3    H227851   2.395   2.839   5.438  1.1379 -0.8470 -1.5129
 2146TIP3   OH227852   1.687   3.628   5.299 -0.1950 -0.6761  0.4919
 2146TIP3    H127853   1.717   3.670   5.380  0.3469  1.6028 -0.8040
 2146TIP3    H227854   1.741   3.549   5.292  3.4883  1.6502 -0.1416
 2147TIP3   OH227855   6.414   4.255   4.669  0.0779  0.0718  0.0990
 2147TIP3    H127856   6.499   4.231   4.633 -0.0844  0.6910 -0.7236
 2147TIP3    H227857   6.350   4.208   4.616 -0.1688  1.0854 -0.5371
 2148TIP3   OH227858   4.330   2.481   1.827  0.1247  0.1889  0.0865
 2148TIP3    H127859   4.333   2.457   1.920  2.6002 -0.7405 -0.1458
 2148TIP3    H227860   4.256   2.431   1.792 -0.4872  0.1004  1.4421
 2149TIP3   OH227861   2.048   6.432  14.762 -0.3029  0.0038 -0.1914
 2149TIP3    H127862   2.061   6.353  14.711  1.1044 -0.8150  1.3428
 2149TIP3    H227863   2.041   6.402  14.853  1.2473  1.6744  0.5407
 2150TIP3   OH227864   2.484   0.886  13.185 -0.1337 -0.8041 -0.0558
 2150TIP3    H127865   2.423   0.839  13.129  0.4705 -4.2171  1.8638
 2150TIP3    H227866   2.565   0.891  13.134 -0.3722 -1.3582 -0.4914
 2151TIP3   OH227867   2.016   6.005  16.163 -0.1602 -0.0724 -0.2231
 2151TIP3    H127868   1.933   6.031  16.202 -0.0971 -0.9048  0.5155
 2151TIP3    H227869   2.079   6.070  16.194  0.0691 -1.2159  1.8925
 2152TIP3   OH227870   2.917   4.284  14.555 -1.0681 -0.0322 -0.2999
 2152TIP3    H127871   3.001   4.244  14.532  0.9945  3.2483  0.8102
 2152TIP3    H227872   2.867   4.284  14.473  0.6710 -0.6771 -1.4159
 2153TIP3   OH227873   1.185   2.503  11.014  0.1556 -0.1262 -0.1084
 2153TIP3    H127874   1.235   2.556  10.953 -1.1543  0.4839 -0.6824
 2153TIP3    H227875   1.108   2.475  10.965 -0.6019 -0.1732  1.0577
 2154TIP3   OH227876   4.310   0.916  14.604 -0.0055 -0.0855  0.1444
 2154TIP3    H127877   4.349   0.920  14.516  1.5039  1.1669  0.8162
 2154TIP3    H227878   4.386   0.916  14.663 -0.9995  2.5563  1.5419
 2155TIP3   OH227879   3.418   0.416  14.935 -0.3236 -0.2028  0.1969
 2155TIP3    H127880   3.377   0.502  14.939  2.0217  1.0805 -1.3697
 2155TIP3    H227881   3.363   0.365  14.875 -2.6706 -0.4576  2.3949
 2156TIP3   OH227882   0.564   4.389   0.557 -0.5296 -0.0255  0.1896
 2156TIP3    H127883   0.479   4.431   0.576 -0.8989  0.1519 -1.6885
 2156TIP3    H227884   0.542   4.317   0.498  0.7953  1.2363 -1.9558
 2157TIP3   OH227885   4.724   5.263  13.515 -0.1046 -0.5673 -0.4207
 2157TIP3    H127886   4.660   5.238  13.582  1.2646 -1.9548  0.4297
 2157TIP3    H227887   4.774   5.333  13.556 -0.6013  0.0318 -0.8201
 2158TIP3   OH227888   5.787   2.684  12.404 -0.1965  0.6814  0.0042
 2158TIP3    H127889   5.854   2.752  12.405 -0.4940  1.0520 -1.7735
 2158TIP3    H227890   5.704   2.732  12.400 -0.6071  0.2288  1.9752
 2159TIP3   OH227891   3.559   6.043  15.590 -0.3210 -0.1010  0.1104
 2159TIP3    H127892   3.571   6.133  15.619  1.4340  0.5440 -2.2423
 2159TIP3    H227893   3.467   6.038  15.564 -0.2261  1.3170 -0.5906
 2160TIP3   OH227894   1.750   1.661  16.072  0.2620  0.5490  0.0350
 2160TIP3    H127895   1.749   1.620  16.158  0.4007 -0.1562 -0.2856
 2160TIP3    H227896   1.658   1.672  16.049  0.1664 -1.2108 -0.5999
 2161TIP3   OH227897   5.388   0.071   0.188 -0.2570  0.1824  0.3366
 2161TIP3    H127898   5.347   0.102   0.269  0.8234 -0.5260  1.1857
 2161TIP3    H227899   5.395  -0.024   0.201 -0.3491  0.0274 -0.7281
 2162TIP3   OH227900   4.640   5.781   5.181  0.1912  0.0528 -0.0571
 2162TIP3    H127901   4.602   5.768   5.094  0.8789  0.6559 -0.4478
 2162TIP3    H227902   4.669   5.872   5.182  0.1266  0.0741  0.8310
 2163TIP3   OH227903   5.877   4.897   3.493  0.1590  0.3280  0.2493
 2163TIP3    H127904   5.825   4.935   3.563 -0.5509  0.9276 -0.5791
 2163TIP3    H227905   5.814   4.880   3.423  0.5453 -1.8469  0.3514
 2164TIP3   OH227906   4.079   0.606   3.073  0.2004  0.3085  0.4556
 2164TIP3    H127907   4.064   0.532   3.131 -0.1506 -0.3994 -0.5079
 2164TIP3    H227908   4.174   0.609   3.060  0.2412  0.2190  0.7352
 2165TIP3   OH227909   4.080   0.968  10.888 -0.1865  0.0302  0.2442
 2165TIP3    H127910   4.139   0.955  10.814 -0.1889  2.1281 -0.1873
 2165TIP3    H227911   4.009   1.022  10.853 -0.1740  1.0855  1.7461
 2166TIP3   OH227912   1.676   2.064   4.044 -0.0765 -0.3002  0.6174
 2166TIP3    H127913   1.664   1.998   3.976 -0.6533  1.1160 -0.7260
 2166TIP3    H227914   1.609   2.045   4.109  0.2740 -1.4801  0.6553
 2167TIP3   OH227915   1.100   2.931   1.111  0.7364  0.2161 -0.1194
 2167TIP3    H127916   1.086   3.008   1.055  0.3651  1.0229  1.0384
 2167TIP3    H227917   1.016   2.885   1.110  0.8147  0.0723 -0.4289
 2168TIP3   OH227918   6.115   0.837   3.547  0.1089  0.4967  0.4592
 2168TIP3    H127919   6.150   0.749   3.532  1.1315  1.0706 -0.6755
 2168TIP3    H227920   6.022   0.830   3.527  0.3793 -0.0992 -0.6663
 2169TIP3   OH227921   6.352   4.741   3.234  0.3788 -0.5062 -0.2017
 2169TIP3    H127922   6.375   4.823   3.189 -0.4417 -0.3790 -0.4022
 2169TIP3    H227923   6.299   4.769   3.309  1.2252 -0.7632  0.5135
 2170TIP3   OH227924   1.035   1.677  16.652  0.6890  0.2056  1.0092
 2170TIP3    H127925   1.004   1.608  16.711 -0.4357  0.8066  1.1619
 2170TIP3    H227926   1.005   1.758  16.693 -0.3408  0.6242 -0.4806
 2171TIP3   OH227927   0.593   4.387   1.452 -0.1207  0.0078  0.5424
 2171TIP3    H127928   0.642   4.443   1.391  0.3966 -1.0201 -0.0228
 2171TIP3    H227929   0.645   4.389   1.533  0.4513 -0.4698  0.1905
 2172TIP3   OH227930   5.251   4.972  12.601  0.3583 -0.2591 -0.2073
 2172TIP3    H127931   5.347   4.976  12.608  0.3140 -0.0604  0.3881
 2172TIP3    H227932   5.229   4.886  12.636  0.3718 -0.6285 -1.0850
 2173TIP3   OH227933   0.592   5.585   1.784  0.0837 -0.1189 -0.0630
 2173TIP3    H127934   0.529   5.520   1.753 -0.8918  0.2959  0.9711
 2173TIP3    H227935   0.542   5.667   1.787  0.6764  0.2247  0.7534
 2174TIP3   OH227936   3.403   3.313  14.607  0.2625  0.3846  0.4309
 2174TIP3    H127937   3.312   3.324  14.633 -0.6791 -0.6095 -2.1536
 2174TIP3    H227938   3.432   3.233  14.650 -0.8752 -0.6100 -0.6149
 2175TIP3   OH227939   4.951   0.826   4.966  0.3399 -0.1388 -0.3674
 2175TIP3    H127940   4.903   0.881   4.904 -0.5108  0.2467  0.5995
 2175TIP3    H227941   4.883   0.793   5.025  0.9338 -1.7125 -0.5431
 2176TIP3   OH227942   3.708   6.054  13.512  0.0687  0.4666  0.5745
 2176TIP3    H127943   3.802   6.047  13.531  0.9048  0.7745 -2.8720
 2176TIP3    H227944   3.697   6.142  13.476 -0.7171 -0.8051 -2.5876
 2177TIP3   OH227945   6.301   2.978   6.035 -0.1891  0.1824 -0.0992
 2177TIP3    H127946   6.207   2.997   6.029  0.1657  1.9728 -0.3510
 2177TIP3    H227947   6.328   3.013   6.119  0.0532 -1.4499  0.5483
 2178TIP3   OH227948   0.164   0.234   3.496  0.2747 -0.3552 -0.3023
 2178TIP3    H127949   0.189   0.143   3.479 -0.5019 -0.2393 -2.3251
 2178TIP3    H227950   0.070   0.231   3.512  0.3711  0.0313  0.4187
 2179TIP3   OH227951   3.373   1.219  10.773  0.1850  0.2608 -0.3855
 2179TIP3    H127952   3.323   1.221  10.692  1.1616 -1.5030 -1.0703
 2179TIP3    H227953   3.309   1.197  10.841 -0.4923  1.0146 -0.7663
 2180TIP3   OH227954   0.097   6.386  13.190  0.3198  0.0075 -0.0182
 2180TIP3    H127955   0.014   6.342  13.174 -0.7089  2.4157 -2.1087
 2180TIP3    H227956   0.087   6.427  13.276  0.5358 -2.0684  1.0433
 2181TIP3   OH227957   0.281   5.239  11.091 -0.1935  0.1418 -0.7827
 2181TIP3    H127958   0.242   5.301  11.152  1.1326 -0.8699  1.2215
 2181TIP3    H227959   0.230   5.248  11.011 -3.2322  0.2406  1.0289
 2182TIP3   OH227960   6.602   6.260   2.622 -0.2223 -0.4200  1.4811
 2182TIP3    H127961   6.668   6.203   2.662  0.4368 -2.9621 -2.6346
 2182TIP3    H227962   6.522   6.207   2.621 -0.2637 -0.3723 -0.2140
 2183TIP3   OH227963   5.006   6.548   3.158 -0.5925 -0.2041  0.0819
 2183TIP3    H127964   5.076   6.521   3.217 -1.0963 -0.9369  0.3636
 2183TIP3    H227965   4.926   6.541   3.210 -0.7956  1.6425  0.0920
 2184TIP3   OH227966   2.100   5.450   0.824 -0.1766  0.1103  0.2085
 2184TIP3    H127967   2.124   5.536   0.788 -1.8647  1.1554  1.3819
 2184TIP3    H227968   2.177   5.423   0.874  0.2169  1.1855  0.2294
 2185TIP3   OH227969   2.457   1.520   3.781  0.3901  0.0498  1.1313
 2185TIP3    H127970   2.370   1.481   3.776  0.4120  0.0794  0.4592
 2185TIP3    H227971   2.500   1.474   3.853  0.6471 -1.6233 -0.0523
 2186TIP3   OH227972   2.607   1.249  12.533  0.0973  0.8487  0.0494
 2186TIP3    H127973   2.609   1.331  12.484 -1.3228  1.9826  1.7705
 2186TIP3    H227974   2.661   1.188  12.481 -0.5703  2.2111 -2.3680
 2187TIP3   OH227975   4.596   4.437  11.643  0.1695  0.4722 -0.3180
 2187TIP3    H127976   4.567   4.385  11.718 -1.4419 -0.2671 -1.3844
 2187TIP3    H227977   4.688   4.414  11.632  0.2146 -0.0134  0.9542
 2188TIP3   OH227978   3.013   6.157  12.952 -0.3755  0.3366  0.0921
 2188TIP3    H127979   2.999   6.124  13.040  1.7526 -0.6443  0.1237
 2188TIP3    H227980   2.981   6.088  12.894 -0.3480  0.3006  0.1202
 2189TIP3   OH227981   2.483   1.526   2.797  0.0000 -0.6015  0.1704
 2189TIP3    H127982   2.504   1.590   2.729 -0.8198 -0.7425 -0.2148
 2189TIP3    H227983   2.561   1.525   2.853  0.6614 -0.4553 -0.7307
 2190TIP3   OH227984   3.978   3.293   3.217  0.1769  0.4633 -0.3222
 2190TIP3    H127985   4.017   3.258   3.296  0.4028  0.9600 -0.2039
 2190TIP3    H227986   3.893   3.329   3.245  0.5698  1.2909 -0.1485
 2191TIP3   OH227987   6.607   4.020  12.005  0.2531 -0.3984  0.5750
 2191TIP3    H127988   6.545   4.085  12.039  3.1631  2.3738  1.0801
 2191TIP3    H227989   6.640   4.058  11.924  0.5303 -2.3318 -0.2838
 2192TIP3   OH227990   5.173   6.359  15.524 -0.1581  0.7719  0.1567
 2192TIP3    H127991   5.207   6.304  15.594  0.5856  1.0063 -0.0113
 2192TIP3    H227992   5.102   6.409  15.564 -0.0582  0.5475  0.6132
 2193TIP3   OH227993   0.572   2.522   2.694  0.0488 -0.5228  0.4166
 2193TIP3    H127994   0.611   2.609   2.696  0.3676 -0.6596  0.2235
 2193TIP3    H227995   0.489   2.532   2.740 -0.6091  0.2156 -0.8786
 2194TIP3   OH227996   2.815   2.323  11.895  0.2388 -0.1936 -0.0281
 2194TIP3    H127997   2.822   2.267  11.972  0.0814 -0.9949 -0.5831
 2194TIP3    H227998   2.836   2.266  11.821  0.0712  0.4777 -0.6131
 2195TIP3   OH227999   1.236   2.434   0.766  0.0725 -0.1055  0.4951
 2195TIP3    H128000   1.284   2.458   0.845  1.7001  0.3639 -0.5987
 2195TIP3    H228001   1.284   2.359   0.731  1.5909  1.8808 -1.9470
 2196TIP3   OH228002   5.173   4.733   6.764  0.1739 -0.6491 -0.5661
 2196TIP3    H128003   5.176   4.650   6.810 -0.8355 -0.5802 -0.3580
 2196TIP3    H228004   5.116   4.718   6.689  0.8566 -0.4321 -1.1462
 2197TIP3   OH228005   4.276   1.900  12.843  0.1865 -0.1294 -0.3346
 2197TIP3    H128006   4.303   1.812  12.816  0.3075 -0.0550 -0.4561
 2197TIP3    H228007   4.224   1.933  12.770 -0.8555 -0.5526  0.1980
 2198TIP3   OH228008   1.237   5.788   0.296  0.0160 -0.1889  0.4296
 2198TIP3    H128009   1.251   5.792   0.391  0.9727 -2.5683  0.4430
 2198TIP3    H228010   1.156   5.737   0.287  1.5488 -2.6632 -0.0368
 2199TIP3   OH228011   5.629   0.645  10.934  0.4453 -0.3322  0.2323
 2199TIP3    H128012   5.571   0.700  10.987  0.6962  0.6603 -0.4859
 2199TIP3    H228013   5.602   0.661  10.844  0.3096 -1.6759  0.0186
 2200TIP3   OH228014   1.738   6.738   0.681  0.1525  0.1692 -0.7729
 2200TIP3    H128015   1.750   6.773   0.769  0.0127  0.2494 -0.7846
 2200TIP3    H228016   1.681   6.662   0.692 -0.1670  0.3974 -0.8359
 2201TIP3   OH228017   1.893   6.152   4.061 -0.5818 -0.1338  0.0708
 2201TIP3    H128018   1.949   6.104   4.000  1.2580  1.4368  0.4613
 2201TIP3    H228019   1.932   6.138   4.147 -1.1741  0.4558  0.4463
 2202TIP3   OH228020   1.617   3.330  14.131 -0.0817 -0.5382  0.2115
 2202TIP3    H128021   1.622   3.241  14.095  1.7095 -0.5921  0.5461
 2202TIP3    H228022   1.576   3.382  14.062  2.5936 -0.7961 -1.6787
 2203TIP3   OH228023   3.988   5.815   5.127 -0.0167 -0.4833 -0.4950
 2203TIP3    H128024   3.902   5.772   5.119  1.6023 -3.7783 -2.4360
 2203TIP3    H228025   3.999   5.860   5.043 -0.4192  1.2937  0.3653
 2204TIP3   OH228026   4.537   3.235  12.598  0.3586 -0.2225 -0.1647
 2204TIP3    H128027   4.617   3.226  12.650  1.3266  0.9362 -1.3813
 2204TIP3    H228028   4.563   3.211  12.510 -0.3201  1.2606 -0.8082
 2205TIP3   OH228029   2.579   1.414  16.694  0.2587  0.3722 -0.2581
 2205TIP3    H128030   2.642   1.432  16.763 -1.9946  1.0610  1.7633
 2205TIP3    H228031   2.509   1.366  16.737  0.2080 -2.1322 -2.8335
 2206TIP3   OH228032   4.251   0.920  10.671  0.0872 -0.5665  0.1703
 2206TIP3    H128033   4.280   0.990  10.612 -0.0269  0.9717  1.8540
 2206TIP3    H228034   4.331   0.882  10.706  0.1665  0.3762  1.0700
 2207TIP3   OH228035   2.669   2.249   4.908  0.0438  0.1460 -0.7713
 2207TIP3    H128036   2.589   2.302   4.911 -0.3210 -0.2905 -2.2054
 2207TIP3    H228037   2.720   2.285   4.836  0.7700 -0.1110 -0.3991
 2208TIP3   OH228038   3.999   4.013  16.021  0.9198 -0.5013  0.4843
 2208TIP3    H128039   3.915   4.035  16.063  0.6930 -1.4906  0.5734
 2208TIP3    H228040   4.056   4.086  16.044  0.1126  0.1503  0.4935
 2209TIP3   OH228041   4.183   2.738   2.078  0.0565 -0.2535  0.9283
 2209TIP3    H128042   4.211   2.647   2.071  2.4774  0.4073  1.2298
 2209TIP3    H228043   4.197   2.761   2.170 -2.1353 -0.0153  1.2533
 2210TIP3   OH228044   2.511   5.554   2.911  0.1672 -0.0711  0.1533
 2210TIP3    H128045   2.496   5.472   2.959 -1.6136 -0.2814 -0.6728
 2210TIP3    H228046   2.545   5.525   2.826  0.4390  0.1238  0.1932
 2211TIP3   OH228047   2.357   3.514   1.846  0.2277  0.2381 -0.1885
 2211TIP3    H128048   2.367   3.495   1.939 -3.6096  0.6767  0.4765
 2211TIP3    H228049   2.295   3.448   1.815  0.7442  0.6575 -2.2156
 2212TIP3   OH228050   4.083   1.102   0.329 -0.2084 -0.1449  0.2398
 2212TIP3    H128051   4.080   1.157   0.407 -1.2137  0.6837 -0.3517
 2212TIP3    H228052   4.003   1.048   0.335  0.0527 -0.5519  0.1120
 2213TIP3   OH228053   5.777   1.113   4.939 -0.7970  0.0805  0.2894
 2213TIP3    H128054   5.752   1.123   5.030 -2.0584 -1.2367  0.1107
 2213TIP3    H228055   5.860   1.066   4.942 -1.4818 -1.1414  0.7512
 2214TIP3   OH228056   4.620   2.613   0.903 -0.4495  0.0164 -0.2249
 2214TIP3    H128057   4.626   2.708   0.913 -0.5338 -0.0753  0.7952
 2214TIP3    H228058   4.669   2.594   0.823  0.9777  0.7648  0.4243
 2215TIP3   OH228059   0.132   5.091  16.735  0.4368 -0.0741  0.3745
 2215TIP3    H128060   0.177   5.059  16.813  0.0054  3.2921  2.1558
 2215TIP3    H228061   0.202   5.110  16.673  1.0548  0.3222  1.1900
 2216TIP3   OH228062   1.331   4.884  15.739  0.0050 -0.4137 -0.3197
 2216TIP3    H128063   1.383   4.958  15.772 -0.1960 -0.5962  0.4140
 2216TIP3    H228064   1.395   4.814  15.726  0.1272 -0.2529 -0.5824
 2217TIP3   OH228065   2.372   5.793  14.685 -0.1136 -0.8696  0.0049
 2217TIP3    H128066   2.437   5.815  14.751  0.0951 -1.6013  0.0467
 2217TIP3    H228067   2.305   5.861  14.695  0.5934 -0.1563  0.0130
 2218TIP3   OH228068   0.909   5.215   0.982  0.2809  0.1180 -0.0505
 2218TIP3    H128069   0.875   5.161   1.053  0.2747  0.1694 -0.0146
 2218TIP3    H228070   0.995   5.243   1.012  0.7323 -0.7197 -0.4971
 2219TIP3   OH228071   2.965   0.396  14.283 -0.2586  0.5786  0.4298
 2219TIP3    H128072   2.906   0.357  14.348  1.4430 -0.4708  1.4279
 2219TIP3    H228073   2.908   0.445  14.224 -1.9674  0.8070  2.1900
 2220TIP3   OH228074   1.119   5.063   1.583 -0.4384  0.0586 -0.1198
 2220TIP3    H128075   1.185   5.116   1.628  0.0809 -0.4233 -0.2985
 2220TIP3    H228076   1.166   5.025   1.508 -0.7952 -0.6573  0.0098
 2221TIP3   OH228077   3.026   0.130  13.767  0.2814 -0.4298 -0.4538
 2221TIP3    H128078   3.091   0.089  13.709  1.0985 -0.7146  0.6373
 2221TIP3    H228079   3.075   0.154  13.845 -0.3171  1.9985 -0.7379
 2222TIP3   OH228080   1.290   6.469  16.254  0.5956 -0.6410  0.5199
 2222TIP3    H128081   1.220   6.407  16.272 -0.5423  0.7473  1.1031
 2222TIP3    H228082   1.313   6.504  16.340  2.3707 -1.3998  0.4078
 2223TIP3   OH228083   1.753   6.258   1.942 -0.0852  0.4403  0.9221
 2223TIP3    H128084   1.790   6.327   1.887  0.9865  0.2550  1.3777
 2223TIP3    H228085   1.821   6.240   2.007 -0.7024 -0.4325  1.3512
 2224TIP3   OH228086   5.888   5.959   0.393  0.0583  0.1951  0.4056
 2224TIP3    H128087   5.878   5.974   0.487  1.5275 -1.0836  0.7972
 2224TIP3    H228088   5.867   5.867   0.380 -0.1100  0.3490 -0.5237
 2225TIP3   OH228089   3.524   6.315  12.977 -0.3125 -0.2464 -0.3691
 2225TIP3    H128090   3.557   6.284  13.061  0.0242 -0.0030 -0.4109
 2225TIP3    H228091   3.486   6.237  12.936  1.0235 -0.7420 -0.7074
 2226TIP3   OH228092   3.438   3.517   5.013  0.4678  0.3437  0.4484
 2226TIP3    H128093   3.454   3.508   5.107  2.2070  0.0753  0.1550
 2226TIP3    H228094   3.457   3.430   4.978 -0.1558  0.4493 -0.1611
 2227TIP3   OH228095   6.075   4.509  15.820  0.1605 -0.3986  0.3552
 2227TIP3    H128096   5.987   4.532  15.852  0.4823 -0.9695  1.7229
 2227TIP3    H228097   6.060   4.468  15.735 -0.6176  2.5892 -1.0855
 2228TIP3   OH228098   1.904   0.254  13.242 -0.5205  0.1147 -0.1850
 2228TIP3    H128099   1.875   0.337  13.281 -1.5521  0.1485 -0.9641
 2228TIP3    H228100   1.950   0.280  13.163  0.9959  0.0160  0.6326
 2229TIP3   OH228101   3.456   3.950  15.417  0.2767 -0.0420  0.1437
 2229TIP3    H128102   3.418   4.036  15.430  0.0296 -0.3564  1.5885
 2229TIP3    H228103   3.508   3.934  15.495  1.9981 -0.3619 -1.0144
 2230TIP3   OH228104   0.088   4.615  15.274  0.4247 -0.1457  0.5630
 2230TIP3    H128105   0.178   4.585  15.285  1.0636  1.7553  0.7888
 2230TIP3    H228106   0.095   4.692  15.217 -1.2605 -0.9978 -0.9231
 2231TIP3   OH228107   1.323   5.756   4.496  0.0338 -0.6320  0.0119
 2231TIP3    H128108   1.383   5.830   4.483  0.4629 -0.9978 -0.1303
 2231TIP3    H228109   1.378   5.686   4.531 -0.6155 -0.4936  1.3654
 2232TIP3   OH228110   0.609   5.263  14.409 -0.5632 -0.3039 -0.1569
 2232TIP3    H128111   0.676   5.204  14.374 -1.3452 -0.8507 -0.7845
 2232TIP3    H228112   0.544   5.268  14.339  0.6183  3.3364 -1.2008
 2233TIP3   OH228113   4.970   0.231   5.032 -0.0847  0.7755  0.6336
 2233TIP3    H128114   4.958   0.297   5.101 -0.1920 -0.8147  2.1945
 2233TIP3    H228115   4.883   0.194   5.020  0.2917 -0.2595  1.0262
 2234TIP3   OH228116   4.652   6.477  14.027  0.8154  0.8256 -0.0284
 2234TIP3    H128117   4.574   6.449  13.979 -0.2985  1.6532  1.2098
 2234TIP3    H228118   4.725   6.439  13.979 -0.3228  0.3850 -1.4833
 2235TIP3   OH228119   5.313   1.170  13.638  0.7687  0.6141  0.1379
 2235TIP3    H128120   5.239   1.185  13.697  0.4295 -1.6555  0.3779
 2235TIP3    H228121   5.388   1.157  13.695  0.7139 -0.1638  0.0554
 2236TIP3   OH228122   3.784   2.741   5.210  0.1035 -0.1616  0.4226
 2236TIP3    H128123   3.732   2.663   5.231  0.2219  0.0944  1.7520
 2236TIP3    H228124   3.875   2.712   5.219  0.2154 -0.5172 -1.5579
 2237TIP3   OH228125   0.484   2.862   6.401 -0.1273 -0.5082 -0.5715
 2237TIP3    H128126   0.529   2.812   6.469  0.9111  0.6776 -0.3479
 2237TIP3    H228127   0.414   2.908   6.448 -0.4033 -0.8901 -0.5968
 2238TIP3   OH228128   4.262   4.772   3.977  0.3844  0.0376  0.4325
 2238TIP3    H128129   4.313   4.701   4.016  0.8982  1.1913  1.9687
 2238TIP3    H228130   4.323   4.845   3.970 -0.8432  1.2968  1.8282
 2239TIP3   OH228131   4.721   4.019   3.864  0.0415  0.4706  0.8475
 2239TIP3    H128132   4.661   4.088   3.892 -1.9619 -0.0364 -1.7621
 2239TIP3    H228133   4.684   3.939   3.900 -1.5097  0.0454 -1.4806
 2240TIP3   OH228134   5.216   2.691   2.256  0.1977 -0.2921 -0.5924
 2240TIP3    H128135   5.282   2.622   2.251 -0.8812 -1.3477 -0.6549
 2240TIP3    H228136   5.196   2.699   2.349  1.2666  0.8843 -0.4408
 2241TIP3   OH228137   1.665   1.747   4.553 -0.2324  0.7348 -0.3037
 2241TIP3    H128138   1.716   1.807   4.499  1.3071  1.8325  2.1597
 2241TIP3    H228139   1.604   1.804   4.600 -0.8832 -0.0533 -0.1776
 2242TIP3   OH228140   1.548   3.511  15.595  0.1056  0.1520  0.1185
 2242TIP3    H128141   1.623   3.452  15.601  0.8754  0.7314 -2.3560
 2242TIP3    H228142   1.471   3.454  15.592  0.7976 -0.7501 -1.6054
 2243TIP3   OH228143   5.909   0.511  12.788 -0.1243  0.0142 -0.7954
 2243TIP3    H128144   5.955   0.490  12.707  0.7062  1.4409 -0.7335
 2243TIP3    H228145   5.922   0.605  12.799 -0.3482 -0.1195  0.9091
 2244TIP3   OH228146   2.591   6.234   5.283 -0.0553 -0.5042 -0.6062
 2244TIP3    H128147   2.666   6.242   5.341 -1.5921 -1.1569  1.6201
 2244TIP3    H228148   2.556   6.147   5.302 -1.3200 -0.2451 -1.6243
 2245TIP3   OH228149   4.774   1.999   2.406 -0.2646  0.2628  0.8363
 2245TIP3    H128150   4.774   2.058   2.481  0.2026  0.4371  0.7025
 2245TIP3    H228151   4.708   1.933   2.427  0.8120 -0.4861  2.0402
 2246TIP3   OH228152   2.270   3.083  12.649 -0.6654  0.1119 -0.3718
 2246TIP3    H128153   2.243   3.086  12.741  1.8840  0.1676  0.4555
 2246TIP3    H228154   2.188   3.092  12.600 -1.8309  4.4060  1.8387
 2247TIP3   OH228155   4.142   2.526  12.174 -0.1512  0.4821  0.6217
 2247TIP3    H128156   4.127   2.592  12.107 -0.7790  0.5393  0.8114
 2247TIP3    H228157   4.231   2.542  12.204 -0.1860  1.0424  0.4418
 2248TIP3   OH228158   4.287   4.827  11.642  0.4847  0.0253  0.4049
 2248TIP3    H128159   4.305   4.733  11.652 -1.1780 -0.4665 -0.7229
 2248TIP3    H228160   4.342   4.854  11.569 -1.4211 -0.9413 -1.5343
 2249TIP3   OH228161   1.633   1.343  11.492  0.1435 -0.0076  0.4725
 2249TIP3    H128162   1.689   1.401  11.545  1.6944 -1.6177  0.6781
 2249TIP3    H228163   1.657   1.363  11.402  1.1368 -0.7493  0.5624
 2250TIP3   OH228164   4.786   2.481  12.114  0.2045 -0.3099  0.0164
 2250TIP3    H128165   4.762   2.497  12.022  0.7335  0.9687  0.0788
 2250TIP3    H228166   4.763   2.390  12.129 -2.3586  0.1476 -0.6247
 2251TIP3   OH228167   0.234   2.600   2.668 -0.4244  0.1360  0.1102
 2251TIP3    H128168   0.289   2.678   2.656  1.6469 -1.3765 -0.6513
 2251TIP3    H228169   0.240   2.580   2.761  1.1679 -0.5717 -0.1190
 2252TIP3   OH228170   5.800   1.539   4.969  0.0962 -0.0080  0.0931
 2252TIP3    H128171   5.752   1.509   4.893  1.4652 -0.0686 -0.7871
 2252TIP3    H228172   5.797   1.635   4.963  1.3924  0.0002 -0.8640
 2253TIP3   OH228173   5.596   3.967  12.013 -0.3106 -0.5500  0.2029
 2253TIP3    H128174   5.574   4.060  12.003  0.7578 -0.1493  1.3258
 2253TIP3    H228175   5.593   3.951  12.107 -1.2338 -1.8772 -0.0214
 2254TIP3   OH228176   2.356   5.406  11.424 -0.0239 -0.0813 -1.0225
 2254TIP3    H128177   2.328   5.352  11.498 -1.2204 -0.0264 -1.4018
 2254TIP3    H228178   2.277   5.414  11.370 -0.0323  2.3339 -0.7902
 2255TIP3   OH228179   5.596   2.506  15.019  0.2294  0.0107  0.2175
 2255TIP3    H128180   5.568   2.437  15.080  0.1124 -0.9191 -0.8416
 2255TIP3    H228181   5.671   2.468  14.974  0.8984  1.0568  0.4396
 2256TIP3   OH228182   4.107   3.184  15.897  0.0000 -0.3063 -0.0211
 2256TIP3    H128183   4.153   3.267  15.884  0.7100 -0.3913  1.6421
 2256TIP3    H228184   4.152   3.123  15.839  1.8787 -0.3181  1.3580
 2257TIP3   OH228185   0.196   0.178  13.634 -0.0858  0.0519 -0.0267
 2257TIP3    H128186   0.184   0.270  13.658  0.4115 -0.0486  0.6177
 2257TIP3    H228187   0.282   0.175  13.592 -0.3190 -0.0320 -0.5017
 2258TIP3   OH228188   3.196   0.857  15.452  0.6716  0.0906  0.3703
 2258TIP3    H128189   3.146   0.780  15.424 -0.1246  1.1919 -1.3467
 2258TIP3    H228190   3.255   0.823  15.520 -0.2260 -1.8604  0.2454
 2259TIP3   OH228191   0.081   6.295  10.622 -0.2397  0.0314 -0.5919
 2259TIP3    H128192   0.169   6.295  10.659  0.1052  2.9627 -1.1404
 2259TIP3    H228193   0.093   6.307  10.528 -1.2348 -0.5577 -0.8192
 2260TIP3   OH228194   0.567   3.841   0.972 -0.3247 -0.1190  0.1516
 2260TIP3    H128195   0.593   3.750   0.989 -1.1813 -1.0923 -3.0814
 2260TIP3    H228196   0.471   3.839   0.973 -0.4786 -0.1176 -3.1545
 2261TIP3   OH228197   4.257   2.483  11.804 -0.1372 -0.0737 -0.2006
 2261TIP3    H128198   4.217   2.402  11.771 -1.1141  0.7210 -1.0104
 2261TIP3    H228199   4.188   2.523  11.858 -0.1712  0.9078 -0.9454
 2262TIP3   OH228200   0.189   0.148  16.141 -0.0229  0.1703 -0.1556
 2262TIP3    H128201   0.171   0.233  16.101  1.2510 -0.3049 -1.8378
 2262TIP3    H228202   0.214   0.092  16.068 -1.3667 -1.8370  0.8441
 2263TIP3   OH228203   1.769   2.499  15.487  0.9857  0.4408  0.1978
 2263TIP3    H128204   1.814   2.536  15.411 -0.3597  0.5309 -0.5874
 2263TIP3    H228205   1.793   2.556  15.560  0.4143  1.7793 -0.6286
 2264TIP3   OH228206   5.114   3.280  15.315 -0.8362  0.3367  0.2425
 2264TIP3    H128207   5.061   3.329  15.252  1.7209  0.8299 -1.7553
 2264TIP3    H228208   5.195   3.331  15.321  0.7408 -2.0410  0.4564
 2265TIP3   OH228209   2.097   3.897  15.016 -0.4525 -0.0399 -0.0901
 2265TIP3    H128210   2.179   3.854  15.042  0.6977  0.2215 -2.8492
 2265TIP3    H228211   2.031   3.862  15.076  1.3685 -1.5801  1.1454
 2266TIP3   OH228212   5.820   0.847  16.244 -0.0116  0.4003 -0.4098
 2266TIP3    H128213   5.823   0.884  16.332 -0.2069 -1.0951  0.2635
 2266TIP3    H228214   5.849   0.918  16.187 -1.2174  1.8456  0.6937
 2267TIP3   OH228215   4.691   4.716  11.628 -0.1702  0.5661 -0.2898
 2267TIP3    H128216   4.638   4.778  11.577 -2.2556 -0.1706  0.8548
 2267TIP3    H228217   4.632   4.644  11.647  1.6307 -0.8858  0.1057
 2268TIP3   OH228218   2.788   3.242  14.854 -0.0579  0.5193  0.0202
 2268TIP3    H128219   2.827   3.186  14.922 -0.1865 -0.9097 -1.0275
 2268TIP3    H228220   2.765   3.181  14.784  0.5868  2.0220 -1.5564
 2269TIP3   OH228221   5.448   0.644   2.372  0.1055 -0.1178 -0.3696
 2269TIP3    H128222   5.430   0.731   2.336 -0.4811  0.0620  0.3221
 2269TIP3    H228223   5.410   0.584   2.309  0.0360  0.1501 -0.5874
 2270TIP3   OH228224   0.490   5.704  14.167 -0.1409  0.2553  0.2870
 2270TIP3    H128225   0.585   5.704  14.162 -0.1383  0.4353  0.3089
 2270TIP3    H228226   0.462   5.630  14.114 -0.0742  1.3634 -1.3597
 2271TIP3   OH228227   4.818   5.561  16.744  0.1290 -0.1067  0.2035
 2271TIP3    H128228   4.771   5.514  16.813 -1.0822  1.6889  0.6537
 2271TIP3    H228229   4.764   5.549  16.666  0.8518 -1.0806 -0.1702
 2272TIP3   OH228230   4.877   5.179   0.355  0.0765  0.7476 -0.1135
 2272TIP3    H128231   4.859   5.085   0.362  0.8281  0.6640  0.9250
 2272TIP3    H228232   4.960   5.184   0.307  0.3485  0.8538  0.3682
 2273TIP3   OH228233   1.185   5.288  16.981  0.4040  0.1862  0.2120
 2273TIP3    H128234   1.173   5.234  16.903  1.7506  0.0750  0.0544
 2273TIP3    H228235   1.119   5.357  16.973 -0.6886 -0.8549 -0.0754
 2274TIP3   OH228236   2.836   4.382   5.016  0.1826 -0.2255 -0.0218
 2274TIP3    H128237   2.821   4.457   4.958 -0.1549  0.2148  0.6194
 2274TIP3    H228238   2.749   4.362   5.052  0.3543 -0.6171  0.1808
 2275TIP3   OH228239   5.505   6.259  15.988 -0.1902  0.0172  0.1409
 2275TIP3    H128240   5.452   6.336  16.007  0.2635  0.2862  0.3359
 2275TIP3    H228241   5.494   6.243  15.895  0.3190  0.7759 -0.0528
 2276TIP3   OH228242   2.151   6.008  15.538 -0.0080 -0.1899  0.1197
 2276TIP3    H128243   2.068   6.042  15.573 -0.6296 -0.8448 -0.6915
 2276TIP3    H228244   2.164   5.925  15.585 -0.3675 -0.6157 -0.5293
 2277TIP3   OH228245   5.318   2.223  10.690  0.3170 -0.1063  0.1567
 2277TIP3    H128246   5.345   2.287  10.756 -0.3706 -1.0246  1.3800
 2277TIP3    H228247   5.399   2.188  10.655  0.6970  1.0809 -0.1986
 2278TIP3   OH228248   0.220   2.296   2.914 -0.0400  0.0498 -0.1370
 2278TIP3    H128249   0.287   2.362   2.903 -0.7625  0.8256  0.0343
 2278TIP3    H228250   0.163   2.306   2.837 -1.0509  0.7053  0.6803
 2279TIP3   OH228251   6.026   4.587   1.962 -0.0081 -0.0964 -0.0130
 2279TIP3    H128252   6.115   4.594   1.928 -0.0698 -0.1288 -0.1815
 2279TIP3    H228253   6.018   4.497   1.992 -0.4256 -0.4882 -1.2411
 2280TIP3   OH228254   6.710   5.030   3.246 -0.1110  0.0261 -0.3267
 2280TIP3    H128255   6.769   5.104   3.234  1.5172 -1.1217  0.2039
 2280TIP3    H228256   6.679   5.038   3.336 -1.9640  1.4107 -1.0242
 2281TIP3   OH228257   4.246   3.457   2.297 -0.1951  0.0126  0.1854
 2281TIP3    H128258   4.178   3.481   2.233  1.5561  1.1193 -1.3792
 2281TIP3    H228259   4.296   3.538   2.309  1.5752 -1.0454  0.3168
 2282TIP3   OH228260   1.881   4.374   5.255  0.3567 -0.7403  0.2823
 2282TIP3    H128261   1.888   4.405   5.345 -0.2836  0.5908 -0.0947
 2282TIP3    H228262   1.788   4.352   5.245  0.3222 -0.4057 -0.1804
 2283TIP3   OH228263   1.659   3.445  13.206 -0.4556 -0.1959  0.1354
 2283TIP3    H128264   1.657   3.531  13.247  0.3104  0.3682 -0.9655
 2283TIP3    H228265   1.570   3.411  13.217 -0.1560 -0.3465  2.7529
 2284TIP3   OH228266   5.980   0.674   1.424 -0.1260 -0.2261 -0.3360
 2284TIP3    H128267   5.956   0.743   1.362  1.2790  0.4285 -0.2128
 2284TIP3    H228268   6.073   0.657   1.405  0.1843 -0.4105  1.1904
 2285TIP3   OH228269   3.512   0.521   0.454  0.2059  0.1574 -0.2409
 2285TIP3    H128270   3.472   0.524   0.367  0.6787 -1.1924 -0.5317
 2285TIP3    H228271   3.592   0.573   0.445 -0.7894  1.8089  0.0026
 2286TIP3   OH228272   1.525   1.920  15.513  0.4430  0.2023 -0.1668
 2286TIP3    H128273   1.490   1.831  15.510  2.3357 -0.5670 -2.0264
 2286TIP3    H228274   1.545   1.935  15.605  1.6989 -2.0248  0.0071
 2287TIP3   OH228275   5.139   3.800  14.691 -0.3677  0.4977 -0.0753
 2287TIP3    H128276   5.158   3.865  14.758  0.9596 -0.8339  0.9094
 2287TIP3    H228277   5.184   3.832  14.613  1.2173  0.2601  0.6958
 2288TIP3   OH228278   5.250   1.079   6.011 -0.2004  0.1490 -0.1232
 2288TIP3    H128279   5.284   0.990   6.025  0.4582  0.5554  0.9833
 2288TIP3    H228280   5.161   1.076   6.045  0.6462  0.5314  2.3025
 2289TIP3   OH228281   1.807   1.867  15.069  0.6617 -0.1915 -0.1949
 2289TIP3    H128282   1.713   1.857  15.083  0.5309 -1.1770 -1.5930
 2289TIP3    H228283   1.818   1.959  15.046  0.1963  0.1724  0.9443
 2290TIP3   OH228284   0.073   4.359  16.761 -0.0134 -0.5607  0.3395
 2290TIP3    H128285  -0.000   4.418  16.743 -0.3039 -0.1131  2.6183
 2290TIP3    H228286   0.132   4.410  16.817  1.0619 -1.5637  0.1582
 2291TIP3   OH228287   3.489   3.244   4.913 -0.7225  0.1989 -0.0493
 2291TIP3    H128288   3.559   3.181   4.931 -1.7022 -0.8745  0.1000
 2291TIP3    H228289   3.408   3.195   4.927 -1.5275  0.8858 -1.9535
 2292TIP3   OH228290   0.362   2.242   3.403 -0.2910 -0.5016 -0.1418
 2292TIP3    H128291   0.352   2.177   3.474  2.4325  0.6331  1.4362
 2292TIP3    H228292   0.317   2.320   3.435 -1.2630 -0.7453 -0.8599
 2293TIP3   OH228293   3.050   6.383   0.643 -0.3436 -0.6871  0.1894
 2293TIP3    H128294   2.958   6.379   0.668 -0.4309  0.7511  0.1504
 2293TIP3    H228295   3.049   6.404   0.550  0.0075  1.0430  0.5461
 2294TIP3   OH228296   1.651   3.877  16.614 -0.1711 -0.4478  0.2187
 2294TIP3    H128297   1.657   3.947  16.678 -0.9264  0.2987 -0.4944
 2294TIP3    H228298   1.721   3.895  16.552 -0.7204  0.0240 -0.2795
 2295TIP3   OH228299   2.356   1.586  13.608 -0.4659  0.4874  0.1847
 2295TIP3    H128300   2.365   1.630  13.692  0.2774 -0.5538  0.6836
 2295TIP3    H228301   2.288   1.521  13.622 -1.6684  1.5455 -0.5895
 2296TIP3   OH228302   2.616   2.017   5.163 -0.2484 -0.6820 -0.3658
 2296TIP3    H128303   2.657   2.063   5.236 -2.2837  2.3362 -0.9597
 2296TIP3    H228304   2.603   2.084   5.097  0.2883 -3.0472 -3.0374
 2297TIP3   OH228305   2.038   2.514   1.771 -0.1459 -0.2350 -0.2287
 2297TIP3    H128306   2.085   2.571   1.833  0.0299  0.1333 -0.6885
 2297TIP3    H228307   2.079   2.428   1.781 -0.5261 -0.3271  0.5971
 2298TIP3   OH228308   1.050   1.411  12.952 -0.0230  0.1363  0.2485
 2298TIP3    H128309   1.026   1.466  12.877 -0.5348  0.8909  0.9573
 2298TIP3    H228310   0.984   1.430  13.018  0.7855 -0.0550  1.1267
 2299TIP3   OH228311   2.205   2.596   5.014  0.2772  0.2245  0.1365
 2299TIP3    H128312   2.291   2.626   5.044 -0.1138  0.8552  0.6464
 2299TIP3    H228313   2.225   2.537   4.941  1.1321  0.5976  0.0537
 2300TIP3   OH228314   0.234   4.031  15.044  0.1776  0.5094 -0.3795
 2300TIP3    H128315   0.155   4.073  15.010 -0.1061 -0.0581 -0.4213
 2300TIP3    H228316   0.302   4.098  15.034 -0.2154  0.8696 -0.6905
 2301TIP3   OH228317   4.167   2.616   5.498  0.0187  0.1681 -0.1782
 2301TIP3    H128318   4.134   2.536   5.458  0.2602 -0.0150 -0.0226
 2301TIP3    H228319   4.252   2.630   5.457 -0.2291  0.6101 -0.5461
 2302TIP3   OH228320   4.102   5.000  11.957 -0.0564  0.2123  0.3323
 2302TIP3    H128321   4.192   4.990  11.985  0.2613 -1.1964 -1.0623
 2302TIP3    H228322   4.108   5.028  11.865 -1.0545  1.1256  0.5124
 2303TIP3   OH228323   0.120   5.278   1.743  0.0072 -0.2474 -0.5529
 2303TIP3    H128324   0.104   5.318   1.828  0.6520 -0.5104 -0.3028
 2303TIP3    H228325   0.117   5.351   1.681  0.1516  0.0341 -0.2303
 2304TIP3   OH228326   5.127   4.490  10.749  0.1630  0.1328 -0.1519
 2304TIP3    H128327   5.130   4.497  10.844  0.8938  0.1228 -0.1691
 2304TIP3    H228328   5.081   4.568  10.720  1.8604  1.2832  0.0879
 2305TIP3   OH228329   6.260   3.487  16.627  0.0665 -0.3089  0.2091
 2305TIP3    H128330   6.330   3.552  16.625  0.2268 -0.4539  0.7483
 2305TIP3    H228331   6.248   3.469  16.721 -0.0505 -0.9698  0.0665
 2306TIP3   OH228332   4.010   6.677  14.754 -0.2976 -0.0336  0.1062
 2306TIP3    H128333   4.001   6.767  14.785  0.9588 -0.3087  1.4177
 2306TIP3    H228334   3.984   6.623  14.829 -1.3741 -0.7725 -0.7753
 2307TIP3   OH228335   2.738   0.207  11.705 -0.4940  0.4107 -0.1070
 2307TIP3    H128336   2.825   0.182  11.735  0.2325 -0.2210 -2.5120
 2307TIP3    H228337   2.698   0.252  11.780  0.9731 -1.3801  1.8428
 2308TIP3   OH228338   2.110   5.816  13.196  0.0268 -0.3875  0.5343
 2308TIP3    H128339   2.201   5.810  13.226 -0.1245  0.7569  1.2756
 2308TIP3    H228340   2.078   5.726  13.197  0.6745 -0.6147  1.7839
 2309TIP3   OH228341   4.739   6.211   4.864 -0.1960  0.7537 -0.0622
 2309TIP3    H128342   4.809   6.251   4.914  0.5010 -0.1488 -0.2978
 2309TIP3    H228343   4.748   6.249   4.776  0.0574  0.5669 -0.1174
 2310TIP3   OH228344   4.680   2.431   0.394  0.0256  0.5079  0.0165
 2310TIP3    H128345   4.623   2.359   0.420  1.2634  0.4767  3.1115
 2310TIP3    H228346   4.768   2.402   0.417  0.9002  1.9580 -1.2462
 2311TIP3   OH228347   5.244   1.114   4.336 -0.1534  0.6831  1.0274
 2311TIP3    H128348   5.207   1.166   4.407  0.7495  0.9421  1.3157
 2311TIP3    H228349   5.181   1.122   4.264  0.2015  2.5964  0.8811
 2312TIP3   OH228350   5.018   0.144  16.379 -0.7272 -0.2775 -0.2638
 2312TIP3    H128351   5.089   0.102  16.330 -0.4973  0.6068 -0.6965
 2312TIP3    H228352   4.950   0.161  16.314 -0.5056  0.7169 -0.2439
 2313TIP3   OH228353   2.625   6.280   3.843 -0.0840  0.0904  0.1375
 2313TIP3    H128354   2.593   6.230   3.918  0.8375  0.4916  0.8199
 2313TIP3    H228355   2.719   6.290   3.860 -0.3053  2.4113  0.2290
 2314TIP3   OH228356   0.584   4.396  12.424 -0.1334  0.1817 -0.5105
 2314TIP3    H128357   0.635   4.454  12.481  0.5582  0.7168 -1.6246
 2314TIP3    H228358   0.608   4.424  12.335 -1.3269 -0.4924 -1.0625
 2315TIP3   OH228359   6.471   4.761  14.194  0.4697  0.6520 -0.6533
 2315TIP3    H128360   6.415   4.817  14.249  2.7405  0.7560  1.7163
 2315TIP3    H228361   6.551   4.750  14.245  1.4971 -1.8781 -2.6360
 2316TIP3   OH228362   1.220   1.323   0.302 -0.0567  0.1722 -0.1024
 2316TIP3    H128363   1.219   1.235   0.340 -1.0659  0.8230  1.4384
 2316TIP3    H228364   1.311   1.351   0.310 -0.4242  0.7862  3.1560
 2317TIP3   OH228365   4.180   3.337   5.092  0.3169 -0.0880 -0.5745
 2317TIP3    H128366   4.264   3.308   5.056  0.5953  1.4994 -1.2885
 2317TIP3    H228367   4.127   3.358   5.015  0.2325  1.5098 -0.1163
 2318TIP3   OH228368   5.425   3.144   2.151  0.2794  0.6079 -0.4139
 2318TIP3    H128369   5.339   3.138   2.108  0.1585  0.2445 -0.1252
 2318TIP3    H228370   5.481   3.186   2.086  0.3356 -0.7702 -1.2908
 2319TIP3   OH228371   1.960   4.410  14.128 -0.2853 -0.1677  0.6407
 2319TIP3    H128372   1.935   4.359  14.205  1.3501 -0.4309  1.0324
 2319TIP3    H228373   1.993   4.492  14.163  3.6036 -1.5013  0.5989
 2320TIP3   OH228374   0.180   1.771  16.017 -0.8075 -0.4951 -0.1342
 2320TIP3    H128375   0.199   1.844  16.076  0.6855 -0.2210 -0.9177
 2320TIP3    H228376   0.108   1.725  16.059 -2.0522  1.6283  0.2010
 2321TIP3   OH228377   1.689   0.530  12.157  0.2057 -0.5455  0.6608
 2321TIP3    H128378   1.722   0.526  12.067 -1.6905  2.1715 -0.2783
 2321TIP3    H228379   1.759   0.570  12.207  1.3989 -2.3549  0.5448
 2322TIP3   OH228380   3.342   5.985   1.601  0.0851  0.1957  0.4839
 2322TIP3    H128381   3.316   5.984   1.509  0.7701  1.0393  0.2638
 2322TIP3    H228382   3.324   6.075   1.629  0.9152  0.2494  0.8589
 2323TIP3   OH228383   0.892   2.596  12.744  0.2704 -0.3351  0.0203
 2323TIP3    H128384   0.881   2.567  12.653 -0.5392  1.8184 -0.6446
 2323TIP3    H228385   0.803   2.621  12.771  0.3613 -1.6269  1.7086
 2324TIP3   OH228386   3.664   0.365  16.738 -0.0747 -0.0938  0.4868
 2324TIP3    H128387   3.631   0.446  16.777  0.1627 -0.2307  0.9910
 2324TIP3    H228388   3.595   0.338  16.677 -0.3869  0.2086  0.6972
 2325TIP3   OH228389   4.647   1.307  14.172 -0.9593 -0.0675 -0.3772
 2325TIP3    H128390   4.670   1.367  14.243  1.3274 -0.7164 -0.4992
 2325TIP3    H228391   4.628   1.224  14.217  0.9081 -0.5977 -0.4752
 2326TIP3   OH228392   6.336   5.754  12.182  0.6500  0.1620  0.4522
 2326TIP3    H128393   6.416   5.798  12.155  0.1834  0.1559 -1.0239
 2326TIP3    H228394   6.298   5.813  12.248  2.0580 -0.0625  1.5148
 2327TIP3   OH228395   6.143   2.387   4.781 -0.2500 -0.3042  0.0180
 2327TIP3    H128396   6.096   2.450   4.726  0.2171  0.9902  1.0465
 2327TIP3    H228397   6.080   2.317   4.797 -1.6889  1.1492  0.9633
 2328TIP3   OH228398   0.621   4.114   4.329  0.0523 -0.3944 -0.0223
 2328TIP3    H128399   0.551   4.049   4.341 -0.4734  0.3168  0.8622
 2328TIP3    H228400   0.679   4.074   4.264 -0.1164 -1.8744  0.6889
 2329TIP3   OH228401   3.119   0.990  15.871 -0.0193 -0.0721  0.5725
 2329TIP3    H128402   3.134   0.968  15.963  0.6587 -0.0729  0.4704
 2329TIP3    H228403   3.046   0.935  15.844  0.4340 -0.8259  0.8405
 2330TIP3   OH228404   5.087   5.578  17.115 -0.4318 -0.1494  0.3205
 2330TIP3    H128405   5.072   5.605  17.024  0.6600  0.5462  0.3369
 2330TIP3    H228406   5.133   5.652  17.154  0.9778 -1.2921  0.8806
 2331TIP3   OH228407   0.402   0.051   4.637 -0.0485  0.0536 -0.2991
 2331TIP3    H128408   0.405   0.025   4.544  0.2291 -0.5525 -0.1275
 2331TIP3    H228409   0.313   0.084   4.649  0.0049  0.4159 -0.8551
 2332TIP3   OH228410   4.404   2.735   1.743 -0.1228 -0.0268 -0.1478
 2332TIP3    H128411   4.499   2.724   1.738 -0.1456 -0.4954  0.3737
 2332TIP3    H228412   4.372   2.656   1.786 -0.4790  1.1753  1.9453
 2333TIP3   OH228413   5.713   4.181   5.298 -0.1819 -0.3392 -0.3305
 2333TIP3    H128414   5.684   4.273   5.294  0.2635 -0.1489  0.6378
 2333TIP3    H228415   5.808   4.186   5.287 -0.1667 -0.6996 -0.3528
 2334TIP3   OH228416   2.038   0.669  13.010 -0.4908  0.0535 -0.7465
 2334TIP3    H128417   2.049   0.723  13.088 -0.4695  1.0876 -1.4496
 2334TIP3    H228418   1.948   0.684  12.983 -0.0821  0.8721 -1.7458
 2335TIP3   OH228419   3.816   1.688  12.512  0.0762  0.1128  0.2942
 2335TIP3    H128420   3.838   1.599  12.540 -0.2609  0.0459  0.3529
 2335TIP3    H228421   3.731   1.705  12.552 -0.2193  0.1701 -0.3567
 2336TIP3   OH228422   4.863   0.288   4.697  0.1964 -0.0721 -0.8714
 2336TIP3    H128423   4.908   0.218   4.650  1.9679  0.5405 -0.1600
 2336TIP3    H228424   4.824   0.342   4.628  0.6329 -0.5817 -1.5266
 2337TIP3   OH228425   4.053   3.200   1.051  0.3151 -0.0589 -0.5275
 2337TIP3    H128426   4.017   3.142   1.118  0.8323  0.5495  0.3032
 2337TIP3    H228427   4.000   3.280   1.057 -0.7555 -0.6151 -2.0442
 2338TIP3   OH228428   2.768   4.512  12.484  0.4272 -0.2653 -0.1878
 2338TIP3    H128429   2.677   4.540  12.487  1.3269  3.0345  1.9151
 2338TIP3    H228430   2.765   4.418  12.504 -2.4587 -0.1065  0.5377
 2339TIP3   OH228431   5.394   2.144  13.200  0.1801 -0.1743 -0.0281
 2339TIP3    H128432   5.477   2.162  13.157 -1.0304  0.7880 -2.1048
 2339TIP3    H228433   5.382   2.217  13.260  0.0847  0.5725 -0.9390
 2340TIP3   OH228434   3.293   6.253  13.204  0.0263 -0.2176  0.5285
 2340TIP3    H128435   3.208   6.210  13.190  0.0766 -0.2510  0.3255
 2340TIP3    H228436   3.313   6.237  13.296 -0.2250 -0.1473  0.5968
 2341TIP3   OH228437   3.939   0.796  17.038 -0.0961 -0.3242  0.1365
 2341TIP3    H128438   3.973   0.860  16.976  2.3936 -1.9856 -0.3743
 2341TIP3    H228439   3.976   0.823  17.123 -1.6706  0.6693  0.5480
 2342TIP3   OH228440   6.113   0.488  16.657 -0.0028 -0.4831 -0.0748
 2342TIP3    H128441   6.172   0.449  16.722  1.0317  1.2307  0.0835
 2342TIP3    H228442   6.091   0.417  16.598  2.8212 -1.0696 -0.5410
 2343TIP3   OH228443   0.294   0.478  16.899  0.3501  0.5626 -0.3146
 2343TIP3    H128444   0.278   0.571  16.916  2.1118  0.7702  0.3853
 2343TIP3    H228445   0.239   0.458  16.824 -1.5164  1.6813  0.6681
 2344TIP3   OH228446   0.650   2.674  13.918  0.3168  0.2280 -0.2112
 2344TIP3    H128447   0.583   2.629  13.969  0.6592 -0.7349 -0.5861
 2344TIP3    H228448   0.714   2.704  13.982  1.9910 -3.0103 -0.1096
 2345TIP3   OH228449   3.841   6.158   4.877  0.2145 -0.3374 -0.2699
 2345TIP3    H128450   3.821   6.197   4.962  1.9086  1.8809 -0.7826
 2345TIP3    H228451   3.775   6.195   4.818  0.9388  0.6908 -0.4723
 2346TIP3   OH228452   1.503   2.435   0.402 -0.0410 -0.1606  0.7547
 2346TIP3    H128453   1.463   2.471   0.323  1.0662 -0.7340 -0.1031
 2346TIP3    H228454   1.537   2.511   0.449 -0.0738  0.1400  0.3023
 2347TIP3   OH228455   5.495   0.554   1.910  0.1039 -0.1128 -0.0140
 2347TIP3    H128456   5.426   0.616   1.885  0.6631  1.0584  1.1988
 2347TIP3    H228457   5.549   0.544   1.831  0.5504  1.7179  0.0224
 2348TIP3   OH228458   0.751   1.646  14.109 -0.4679 -0.0833 -0.3140
 2348TIP3    H128459   0.733   1.674  14.019 -1.4725  1.6679  0.3732
 2348TIP3    H228460   0.786   1.558  14.100  1.5998  0.8560 -2.5759
 2349TIP3   OH228461   2.039   0.592  12.267 -0.5673 -0.0460 -0.0889
 2349TIP3    H128462   2.011   0.673  12.226 -0.6575 -0.8054 -1.5719
 2349TIP3    H228463   2.106   0.556  12.209 -0.6557 -1.1297  0.4372
 2350TIP3   OH228464   5.754   2.475   2.773 -0.4806 -0.1866 -0.1503
 2350TIP3    H128465   5.750   2.385   2.805 -0.2396 -0.7202 -1.5553
 2350TIP3    H228466   5.844   2.486   2.742 -0.5486  0.4851 -0.1286
 2351TIP3   OH228467   1.002   4.736  10.408  0.0126 -0.2545 -0.0196
 2351TIP3    H128468   0.993   4.804  10.341 -0.1636  1.1666  1.3785
 2351TIP3    H228469   0.912   4.716  10.433  0.0988  0.5523  1.0273
 2352TIP3   OH228470   3.986   1.740   1.452  0.0843  0.1036  0.2416
 2352TIP3    H128471   4.004   1.831   1.428  0.9143 -0.3731 -1.0497
 2352TIP3    H228472   3.930   1.707   1.382 -0.8012 -0.2039  1.0688
 2353TIP3   OH228473   6.538   4.751  15.142 -0.5895  0.1026 -0.0163
 2353TIP3    H128474   6.553   4.674  15.195  0.8287 -0.4158 -1.0886
 2353TIP3    H228475   6.479   4.722  15.072 -1.0933  0.3309  0.3136
 2354TIP3   OH228476   1.400   2.327   4.881 -0.1309 -0.2045 -0.2045
 2354TIP3    H128477   1.320   2.319   4.933 -1.0627  2.3402 -1.0638
 2354TIP3    H228478   1.397   2.253   4.821  0.8179 -3.0553  2.9681
 2355TIP3   OH228479   4.906   1.210  17.023  0.4740  0.9326 -0.1890
 2355TIP3    H128480   4.865   1.209  17.110  1.0134  0.5480  0.0656
 2355TIP3    H228481   4.951   1.294  17.019  0.7982  0.7772  0.0761
 2356TIP3   OH228482   2.875   2.941   0.279 -1.0764 -0.1285  0.2779
 2356TIP3    H128483   2.849   3.030   0.254  0.3246 -0.0326 -0.9311
 2356TIP3    H228484   2.835   2.885   0.213 -0.8493 -0.2731  0.2625
 2357TIP3   OH228485   6.651   1.299  11.954 -0.1218 -0.1615  0.3862
 2357TIP3    H128486   6.632   1.385  11.918 -2.3883 -0.2234  1.2429
 2357TIP3    H228487   6.729   1.312  12.008  0.2876  1.0505 -0.4675
 2358TIP3   OH228488   0.852   5.924  14.887  0.4256 -0.0826 -0.0672
 2358TIP3    H128489   0.797   5.997  14.858 -0.2227 -0.4193  0.2888
 2358TIP3    H228490   0.829   5.853  14.828 -0.3782 -0.5630  0.7991
 2359TIP3   OH228491   0.404   4.198   0.967  0.2827  0.6062  0.0187
 2359TIP3    H128492   0.440   4.284   0.988 -0.7490  1.4548 -1.5077
 2359TIP3    H228493   0.309   4.211   0.967  0.1209 -0.4404 -0.6303
 2360TIP3   OH228494   0.479   1.780  12.455  0.4122 -0.9463 -0.5684
 2360TIP3    H128495   0.470   1.697  12.408  1.4710  0.0526 -2.7066
 2360TIP3    H228496   0.572   1.802  12.448  0.5961 -0.6455  1.9699
 2361TIP3   OH228497   4.852   2.232  14.387 -0.5730  0.4449  0.2309
 2361TIP3    H128498   4.929   2.246  14.332 -2.0366  1.1084 -1.7663
 2361TIP3    H228499   4.886   2.189  14.465  1.6092 -0.5484 -1.1713
 2362TIP3   OH228500   2.842   4.591  11.202 -0.2551 -0.2197  0.0559
 2362TIP3    H128501   2.914   4.648  11.227 -0.5571  0.0959  0.2094
 2362TIP3    H228502   2.853   4.514  11.258  0.9753 -0.9429 -1.1298
 2363TIP3   OH228503   6.305   4.709  11.524  0.5653 -0.2626  0.1890
 2363TIP3    H128504   6.240   4.773  11.552 -0.1173 -0.1628 -1.5105
 2363TIP3    H228505   6.360   4.757  11.462  0.6823 -1.0298 -0.3150
 2364TIP3   OH228506   6.402   5.407   1.682  0.1051  0.4754 -0.0994
 2364TIP3    H128507   6.369   5.318   1.685  1.7551 -0.1550  1.0486
 2364TIP3    H228508   6.473   5.409   1.747  0.0263  2.6569  0.0194
 2365TIP3   OH228509   2.109   6.518   1.407  0.1209  0.2093 -0.2493
 2365TIP3    H128510   2.131   6.427   1.426 -1.8384 -0.3872 -0.5748
 2365TIP3    H228511   2.108   6.562   1.492  1.9889  0.1731 -0.1866
 2366TIP3   OH228512   1.982   3.390   2.970  0.0354 -0.1407 -0.5090
 2366TIP3    H128513   2.020   3.402   2.882 -0.3921  0.5268 -0.6117
 2366TIP3    H228514   1.891   3.366   2.954 -0.1277  0.2875 -0.2525
 2367TIP3   OH228515   3.730   5.424  11.746 -0.3851 -0.0042 -0.1789
 2367TIP3    H128516   3.779   5.420  11.827 -1.5007  1.7440  0.6304
 2367TIP3    H228517   3.769   5.496  11.697  1.0274 -1.7563 -1.7617
 2368TIP3   OH228518   0.903   0.069  15.828  0.0659 -0.2698 -0.0057
 2368TIP3    H128519   0.856   0.065  15.745  0.4196  3.6110 -0.6137
 2368TIP3    H228520   0.994   0.052  15.805 -0.2744 -3.0201  0.3617
 2369TIP3   OH228521   5.071   3.106   2.303  0.8569 -0.2352  0.5907
 2369TIP3    H128522   5.009   3.084   2.372  0.9364 -1.8147  0.1952
 2369TIP3    H228523   5.053   3.198   2.283 -2.0528 -0.8647 -0.1705
 2370TIP3   OH228524   5.468   5.925  11.067  0.2807  0.5133 -0.0444
 2370TIP3    H128525   5.472   5.910  10.973 -0.9950  2.5732 -0.4985
 2370TIP3    H228526   5.385   5.885  11.094  0.1661  0.7927  0.0174
 2371TIP3   OH228527   4.704   3.685  15.491  0.0754 -0.0421 -0.3057
 2371TIP3    H128528   4.780   3.634  15.516 -0.1065  0.1692  0.7049
 2371TIP3    H228529   4.668   3.717  15.573 -1.2642 -0.3518 -0.7473
 2372TIP3   OH228530   5.477   5.225  16.084 -0.3960  0.8471 -0.3020
 2372TIP3    H128531   5.429   5.177  16.016  0.2684 -0.4894  0.1307
 2372TIP3    H228532   5.408   5.267  16.136 -1.0301  0.1089 -0.5157
 2373TIP3   OH228533   2.368   6.313   0.716  0.2967  0.0412 -0.1094
 2373TIP3    H128534   2.350   6.374   0.644  0.2107 -1.4268 -1.4084
 2373TIP3    H228535   2.442   6.260   0.685  0.5848 -0.3076  1.1068
 2374TIP3   OH228536   3.693   3.074  10.774 -0.5090  0.0713 -0.5450
 2374TIP3    H128537   3.598   3.075  10.772 -0.5866  0.5731  1.5942
 2374TIP3    H228538   3.717   3.129  10.848  1.3491 -2.4728  0.9138
 2375TIP3   OH228539   0.562   0.359  13.226  0.3077  0.1374  0.1207
 2375TIP3    H128540   0.491   0.318  13.176 -0.7795  0.6849  1.1377
 2375TIP3    H228541   0.642   0.324  13.188 -0.4738  0.2732 -1.7470
 2376TIP3   OH228542   5.535   1.044   4.614 -0.2425 -0.1228 -0.4484
 2376TIP3    H128543   5.459   1.078   4.661  0.8055  0.0751  1.1794
 2376TIP3    H228544   5.529   0.949   4.626 -1.1525 -0.2793 -1.8433
 2377TIP3   OH228545   3.928   0.098   5.321 -0.2977  0.2599  0.0537
 2377TIP3    H128546   3.939   0.020   5.376  0.5399  0.9301  0.8801
 2377TIP3    H228547   4.009   0.103   5.270 -1.7688 -1.3347 -2.6197
 2378TIP3   OH228548   6.533   0.855  11.939  0.0626  0.2411 -0.1907
 2378TIP3    H128549   6.599   0.910  11.982  0.7757 -0.0985 -0.8372
 2378TIP3    H228550   6.480   0.822  12.011  0.3044  0.9024  0.3003
 2379TIP3   OH228551   4.364   6.358  14.807  0.6830  0.4482  0.2107
 2379TIP3    H128552   4.447   6.315  14.830  0.3405  0.1252  0.8504
 2379TIP3    H228553   4.298   6.289  14.813 -0.1580  1.3694  2.9430
 2380TIP3   OH228554   6.248   1.801   5.767  0.1843  0.5175 -0.1550
 2380TIP3    H128555   6.209   1.715   5.778  0.6869  0.2793 -0.2230
 2380TIP3    H228556   6.181   1.853   5.723  0.6767 -0.4585 -2.1600
 2381TIP3   OH228557   1.271   4.747   2.253 -0.0072  0.1242  0.0419
 2381TIP3    H128558   1.307   4.660   2.270 -1.5300 -0.1970  1.8931
 2381TIP3    H228559   1.265   4.788   2.339  1.2932  2.3757 -0.8555
 2382TIP3   OH228560   1.791   6.785   5.846 -0.3950  0.2597  0.4945
 2382TIP3    H128561   1.765   6.865   5.892 -0.2188  0.7820 -0.3117
 2382TIP3    H228562   1.745   6.788   5.763 -0.3555 -0.4621  0.4397
 2383TIP3   OH228563   2.358   3.015  17.010  0.2243  0.2162 -0.4230
 2383TIP3    H128564   2.371   3.110  17.017  0.6892  0.2941 -1.9010
 2383TIP3    H228565   2.447   2.980  17.000 -0.0487 -0.2041 -1.4863
 2384TIP3   OH228566   1.114   3.410  16.392 -0.1564 -0.1434 -0.1138
 2384TIP3    H128567   1.150   3.327  16.363 -0.5715 -0.5604  0.5460
 2384TIP3    H228568   1.177   3.442  16.457 -1.1106 -1.0359  1.2908
 2385TIP3   OH228569   3.778   0.340  16.130  0.6376 -0.2390 -1.0023
 2385TIP3    H128570   3.702   0.310  16.080  0.4197  0.6734 -1.2485
 2385TIP3    H228571   3.835   0.381  16.065 -0.1253  1.8927 -0.4143
 2386TIP3   OH228572   5.262   2.898  17.164  0.3021 -0.3225  0.0983
 2386TIP3    H128573   5.303   2.906  17.250  1.7377  1.1841 -0.6687
 2386TIP3    H228574   5.242   2.805  17.156  3.5431 -1.1961  0.5851
 2387TIP3   OH228575   1.513   1.160   2.001  0.2081  0.2702 -0.0495
 2387TIP3    H128576   1.478   1.167   1.912  1.0320 -1.5725 -0.5628
 2387TIP3    H228577   1.435   1.151   2.056 -0.2673 -0.6560 -0.8309
 2388TIP3   OH228578   4.550   0.486   5.377  0.5004  0.1948  0.5969
 2388TIP3    H128579   4.569   0.392   5.385  0.8761  0.0302 -1.6557
 2388TIP3    H228580   4.519   0.497   5.287  2.5964  2.5749  0.0565
 2389TIP3   OH228581   3.437   2.858   4.225 -0.1639 -0.4031 -0.7343
 2389TIP3    H128582   3.504   2.908   4.178  1.4711 -1.5813  0.2399
 2389TIP3    H228583   3.452   2.879   4.317 -1.5237 -0.2688 -0.5131
 2390TIP3   OH228584   6.602   1.860   1.910 -0.0897  0.1135 -0.2479
 2390TIP3    H128585   6.518   1.843   1.867 -0.1560  0.6758 -0.3596
 2390TIP3    H228586   6.668   1.833   1.846 -0.1892  0.5916 -0.5596
 2391TIP3   OH228587   5.247   1.084  14.325 -0.3609  0.2306 -0.1105
 2391TIP3    H128588   5.211   1.002  14.359  1.4976 -1.7367 -2.4512
 2391TIP3    H228589   5.170   1.134  14.298 -1.5455 -1.1088  0.6181
 2392TIP3   OH228590   5.927   0.224   1.065 -0.3902  0.6087 -0.6605
 2392TIP3    H128591   6.006   0.244   1.116 -0.8798  1.4087 -0.1997
 2392TIP3    H228592   5.875   0.304   1.069 -2.0559 -0.4944  0.5361
 2393TIP3   OH228593   0.882   4.849  14.908  0.2419  0.9769 -0.2555
 2393TIP3    H128594   0.899   4.926  14.853  1.6183  1.5474  0.8928
 2393TIP3    H228595   0.968   4.806  14.916 -0.5378 -0.8154 -1.0387
 2394TIP3   OH228596   4.379   5.181   3.373 -0.2574 -0.2062  0.0144
 2394TIP3    H128597   4.459   5.231   3.352  0.3738 -1.4317 -0.6437
 2394TIP3    H228598   4.308   5.244   3.361  0.6371  1.0847  1.2077
 2395TIP3   OH228599   2.179   2.625  14.786  0.1276  0.4949 -0.4317
 2395TIP3    H128600   2.232   2.553  14.821 -1.8525 -0.7143  0.2595
 2395TIP3    H228601   2.144   2.668  14.864 -2.2029 -0.5611 -0.8388
 2396TIP3   OH228602   5.313   0.169  16.723 -0.3953  0.4494  0.0812
 2396TIP3    H128603   5.349   0.103  16.664 -0.6157  0.1645  0.2676
 2396TIP3    H228604   5.355   0.251  16.695  0.7781  0.0477  0.5935
 2397TIP3   OH228605   6.224   6.420  16.246 -0.5463 -0.3517 -0.1129
 2397TIP3    H128606   6.154   6.357  16.228  0.3017 -1.3522  0.0155
 2397TIP3    H228607   6.289   6.404  16.179 -0.5185  0.7266 -0.3610
 2398TIP3   OH228608   2.298   2.396   4.328 -0.1246  0.2539  0.1594
 2398TIP3    H128609   2.260   2.309   4.343  0.2431 -0.1374 -1.0711
 2398TIP3    H228610   2.332   2.392   4.239  0.7139  1.3669  0.4087
 2399TIP3   OH228611   5.725   3.671  16.819  0.2063  0.2553 -0.5952
 2399TIP3    H128612   5.653   3.713  16.773 -0.4151 -0.0158  0.0939
 2399TIP3    H228613   5.772   3.743  16.861  1.9470  0.7182 -3.1591
 2400TIP3   OH228614   1.723   4.904   3.384 -0.3336  0.1382  0.4711
 2400TIP3    H128615   1.718   4.953   3.466  0.7275  2.1950 -0.6034
 2400TIP3    H228616   1.741   4.970   3.317 -2.0758 -1.3295 -1.6046
 2401TIP3   OH228617   5.950   5.394  14.400  0.0294 -0.4804  0.7533
 2401TIP3    H128618   5.888   5.373  14.330  0.0025 -0.9681  0.9187
 2401TIP3    H228619   5.909   5.361  14.479 -0.3277  0.8183  1.1392
 2402TIP3   OH228620   1.450   1.690  12.582 -0.4700  0.3862 -0.0326
 2402TIP3    H128621   1.447   1.599  12.611 -3.6876 -0.3335 -2.0967
 2402TIP3    H228622   1.458   1.685  12.487 -0.7072  2.2648 -0.1895
 2403TIP3   OH228623   2.940   2.472  11.281 -0.4988 -0.0914  0.5046
 2403TIP3    H128624   3.008   2.450  11.345 -0.3734 -2.3193 -0.3081
 2403TIP3    H228625   2.983   2.465  11.196 -1.7771 -2.1129 -0.0651
 2404TIP3   OH228626   5.074   6.778   0.392 -0.3018  0.2285 -0.6199
 2404TIP3    H128627   5.129   6.851   0.363  0.2243 -0.1144 -0.4911
 2404TIP3    H228628   5.107   6.703   0.343  1.2141 -0.5667  1.4878
 2405TIP3   OH228629   5.081   4.073   0.794 -0.0692 -0.4912 -0.4797
 2405TIP3    H128630   5.148   4.063   0.726 -0.9933 -0.6980 -1.3801
 2405TIP3    H228631   5.017   4.005   0.775 -0.4608 -0.4165  0.4913
 2406TIP3   OH228632   5.025   2.035  12.822 -0.1529  0.5295  0.2050
 2406TIP3    H128633   5.113   2.068  12.839  1.1416 -1.8192 -1.3374
 2406TIP3    H228634   4.993   2.089  12.749  2.3061 -1.8558 -2.9529
 2407TIP3   OH228635   1.117   4.568   4.572 -0.1058 -0.0654  0.2475
 2407TIP3    H128636   1.144   4.627   4.643 -2.6332  0.1733  1.1185
 2407TIP3    H228637   1.077   4.626   4.508 -0.7817 -0.6227  0.1594
 2408TIP3   OH228638   1.710   4.525   0.592 -0.0885 -0.8553  0.4287
 2408TIP3    H128639   1.640   4.589   0.592  0.3749 -0.2764 -1.3046
 2408TIP3    H228640   1.731   4.513   0.499  1.5674 -1.5858  0.8581
 2409TIP3   OH228641   6.440   3.020   3.299  0.0577 -0.1309  0.3908
 2409TIP3    H128642   6.427   3.067   3.381  0.8039  2.1165 -0.6998
 2409TIP3    H228643   6.355   3.025   3.255  0.0453 -0.1109  0.4172
 2410TIP3   OH228644   5.778   3.626   3.568  0.0680  0.0519  0.4716
 2410TIP3    H128645   5.857   3.642   3.621  1.0586  0.1923 -1.0010
 2410TIP3    H228646   5.749   3.713   3.542  0.3227 -0.0731 -0.2441
 2411TIP3   OH228647   0.290   6.199  16.379 -0.0860 -0.1657  0.0187
 2411TIP3    H128648   0.303   6.117  16.332 -1.2820 -0.0153 -0.6154
 2411TIP3    H228649   0.264   6.262  16.312  0.8321  0.7478  0.4919
 2412TIP3   OH228650   2.895   0.197  17.174  0.1799  0.0302  0.6683
 2412TIP3    H128651   2.925   0.268  17.117  2.4777 -1.3806 -0.0328
 2412TIP3    H228652   2.879   0.239  17.259  0.8672  1.4774  0.1071
 2413TIP3   OH228653   4.042   0.146  14.819  0.3089  0.3353  0.0934
 2413TIP3    H128654   4.017   0.209  14.751  2.5452  2.1899  0.8398
 2413TIP3    H228655   3.990   0.171  14.895 -1.8651 -1.4604 -0.6888
 2414TIP3   OH228656   3.003   1.472  14.427  0.7222 -0.4574 -0.1749
 2414TIP3    H128657   3.072   1.456  14.490 -0.5859 -1.0539  1.1729
 2414TIP3    H228658   3.040   1.534  14.365  1.9761  0.3411  1.3144
 2415TIP3   OH228659   1.905   1.774   4.112 -0.3460  0.5020  0.2299
 2415TIP3    H128660   1.921   1.864   4.084  1.5552  0.0408 -0.3377
 2415TIP3    H228661   1.948   1.767   4.197 -0.1408  0.0409  0.0954
 2416TIP3   OH228662   3.311   3.431   2.745  0.1405  0.0601 -0.4029
 2416TIP3    H128663   3.282   3.340   2.752 -0.5661  0.3170  0.2118
 2416TIP3    H228664   3.384   3.439   2.806 -0.0365 -0.0110 -0.1797
 2417TIP3   OH228665   4.697   5.973   4.466 -0.9591 -0.2643 -0.4397
 2417TIP3    H128666   4.685   6.046   4.406  1.0057 -0.4074 -1.0509
 2417TIP3    H228667   4.607   5.944   4.486 -1.7488  1.7929 -0.7572
 2418TIP3   OH228668   5.183   1.698  15.694  0.3347 -0.2450  0.1097
 2418TIP3    H128669   5.165   1.787  15.662  1.1968  0.0939  0.5307
 2418TIP3    H228670   5.138   1.695  15.779  0.0086 -0.3433 -0.0619
 2419TIP3   OH228671   0.242   1.028   2.350 -0.3036  0.1946 -0.1492
 2419TIP3    H128672   0.156   0.987   2.347  0.5030 -1.7530  1.5913
 2419TIP3    H228673   0.223   1.121   2.365 -2.0957  0.1372 -1.6300
 2420TIP3   OH228674   1.032   0.345  13.442  0.3602 -0.2350 -0.9945
 2420TIP3    H128675   1.067   0.403  13.374  1.5792  0.1192 -0.0935
 2420TIP3    H228676   1.109   0.307  13.484 -0.2923  0.7095  1.1906
 2421TIP3   OH228677   6.686   2.176   2.379 -0.3667 -0.2442  0.0530
 2421TIP3    H128678   6.688   2.116   2.454 -1.4886  0.9547  1.1019
 2421TIP3    H228679   6.752   2.142   2.319 -0.4430 -2.0740  0.9406
 2422TIP3   OH228680   2.765   2.769   5.702 -0.4548  0.1157 -0.1462
 2422TIP3    H128681   2.830   2.838   5.691 -1.0358  1.0119  1.6360
 2422TIP3    H228682   2.801   2.714   5.772 -2.3032  1.6399  2.1670
 2423TIP3   OH228683   1.950   2.266  15.884  0.4112  0.3581 -0.3530
 2423TIP3    H128684   1.857   2.288  15.881  0.7455  2.0321  0.3273
 2423TIP3    H228685   1.966   2.239  15.975  0.4703 -0.5582 -0.6280
 2424TIP3   OH228686   0.871   3.198   3.402 -0.1393  0.1227 -0.6663
 2424TIP3    H128687   0.910   3.263   3.460  0.4181 -0.0797 -0.8068
 2424TIP3    H228688   0.939   3.180   3.337  0.3123 -1.7215  0.2534
 2425TIP3   OH228689   2.175   3.657   0.841 -0.0976  0.1435  0.8842
 2425TIP3    H128690   2.109   3.589   0.851 -0.1717  0.3508  1.8582
 2425TIP3    H228691   2.243   3.617   0.786 -1.4796  0.2576 -1.0041
 2426TIP3   OH228692   3.983   3.851  11.783 -0.1571 -0.2631  0.0284
 2426TIP3    H128693   3.946   3.840  11.870 -0.9681 -0.9042 -0.3773
 2426TIP3    H228694   3.911   3.829  11.724 -0.7954  3.4790 -0.8862
 2427TIP3   OH228695   4.274   4.625   5.480 -0.1683 -0.1806  0.1395
 2427TIP3    H128696   4.363   4.591   5.469  1.2316  3.1250 -0.0116
 2427TIP3    H228697   4.250   4.659   5.394  0.5132  3.2401  1.1582
 2428TIP3   OH228698   4.409   5.704   2.361  0.0694 -0.3861  0.0856
 2428TIP3    H128699   4.461   5.769   2.407 -0.4230 -1.0222  1.5918
 2428TIP3    H228700   4.329   5.752   2.336  1.4416  0.6991 -2.5872
 2429TIP3   OH228701   5.788   2.031   2.598 -0.4044  0.1132 -0.5909
 2429TIP3    H128702   5.772   1.943   2.631 -2.2394  0.4011 -0.6373
 2429TIP3    H228703   5.810   2.082   2.676  0.5432 -0.3333 -0.5484
 2430TIP3   OH228704   4.901   1.296   4.414 -0.0791  0.2986 -0.0482
 2430TIP3    H128705   4.866   1.290   4.325 -2.0074 -1.3682  0.7345
 2430TIP3    H228706   4.826   1.317   4.469  1.0451  1.1849  1.2311
 2431TIP3   OH228707   0.192   6.149   2.654 -0.5586 -0.0603  0.2132
 2431TIP3    H128708   0.287   6.150   2.663 -0.6164 -2.8061  2.2373
 2431TIP3    H228709   0.170   6.238   2.625  2.4127  1.3141  1.7303
 2432TIP3   OH228710   6.542   1.521  11.355  0.2258  0.2859  0.1164
 2432TIP3    H128711   6.483   1.497  11.426 -0.8091  0.5575 -0.6184
 2432TIP3    H228712   6.486   1.569  11.294  1.0977  0.0748 -0.8665
 2433TIP3   OH228713   5.166   5.739   4.540  0.0150 -0.1909 -0.5683
 2433TIP3    H128714   5.120   5.710   4.461  0.1035  0.2358 -0.7806
 2433TIP3    H228715   5.196   5.827   4.519  1.5025 -0.6903 -0.6779
 2434TIP3   OH228716   4.518   5.334   1.275  0.0979 -0.5251  0.8051
 2434TIP3    H128717   4.578   5.284   1.220  1.0324  0.6345  0.7106
 2434TIP3    H228718   4.574   5.400   1.317 -0.9896  0.1212  1.2947
 2435TIP3   OH228719   0.554   1.846   0.163  0.3493  0.0298  0.7124
 2435TIP3    H128720   0.493   1.887   0.224  0.9123 -0.3817  1.5820
 2435TIP3    H228721   0.579   1.764   0.207 -1.0580 -1.4983 -1.1208
 2436TIP3   OH228722   5.347   3.136  15.821 -0.4817 -0.4084  0.1065
 2436TIP3    H128723   5.262   3.118  15.782 -0.2076 -1.8321  0.0802
 2436TIP3    H228724   5.402   3.163  15.748 -0.6802 -0.3527 -0.0232
 2437TIP3   OH228725   1.784   2.169   2.098  0.0693  0.4871  0.0543
 2437TIP3    H128726   1.708   2.228   2.104 -0.2826  0.0245  0.2792
 2437TIP3    H228727   1.857   2.220   2.132 -0.5151  0.3196  1.6501
 2438TIP3   OH228728   5.674   3.522  16.486  0.1334  0.1573 -0.3838
 2438TIP3    H128729   5.643   3.558  16.403  1.3750  1.1238 -0.4567
 2438TIP3    H228730   5.763   3.492  16.468  0.1403 -0.3308  0.4118
 2439TIP3   OH228731   6.310   5.634  10.859 -0.3178  0.1734 -0.0751
 2439TIP3    H128732   6.381   5.612  10.919  1.1298  0.4498 -1.6073
 2439TIP3    H228733   6.348   5.701  10.801 -2.3638  1.5589  0.0748
 2440TIP3   OH228734   0.001   4.293   3.871  0.2840  0.1479 -0.1762
 2440TIP3    H128735  -0.074   4.293   3.931  0.1166 -0.0115 -0.3843
 2440TIP3    H228736  -0.034   4.327   3.789  0.8302  1.6574  0.1894
 2441TIP3   OH228737   1.762   1.385  11.124 -0.3513 -0.1632 -0.2877
 2441TIP3    H128738   1.802   1.401  11.209  0.1933 -4.1863  0.4063
 2441TIP3    H228739   1.829   1.337  11.074 -0.9990  1.2737 -2.6873
 2442TIP3   OH228740   1.309   0.925  16.496  0.1102 -0.0017 -0.0739
 2442TIP3    H128741   1.323   0.831  16.484  0.3997  0.0592 -0.2065
 2442TIP3    H228742   1.274   0.933  16.585 -1.6266 -0.4123 -0.6757
 2443TIP3   OH228743   2.425   5.259   2.739  0.6653 -0.4319  0.4478
 2443TIP3    H128744   2.443   5.272   2.833  0.3503 -1.2915  0.6326
 2443TIP3    H228745   2.492   5.196   2.711  1.5109  0.7084 -0.1929
 2444TIP3   OH228746   6.555   3.892   5.393 -0.1688 -0.0357 -0.7088
 2444TIP3    H128747   6.491   3.878   5.462  0.7821  1.3480  0.4935
 2444TIP3    H228748   6.637   3.858   5.429  0.2758  0.4139 -1.2705
 2445TIP3   OH228749   5.645   5.441  15.971  0.3971 -0.3044  0.4232
 2445TIP3    H128750   5.592   5.377  16.017  0.6151  0.7008  2.1742
 2445TIP3    H228751   5.582   5.504  15.935  0.3353  0.8345  2.4124
 2446TIP3   OH228752   5.901   5.538   6.208  0.6373  0.9842 -0.2872
 2446TIP3    H128753   5.948   5.620   6.222  1.3832  0.7420 -1.2854
 2446TIP3    H228754   5.810   5.559   6.228  1.2864  1.1094  3.1756
 2447TIP3   OH228755   6.102   2.288   0.593  0.3155  0.0774  0.1693
 2447TIP3    H128756   6.040   2.358   0.615  0.3866 -0.2079  1.3418
 2447TIP3    H228757   6.145   2.267   0.676 -1.6122 -3.2065  0.5521
 2448TIP3   OH228758   5.433   5.433  16.547  0.6623 -0.3055 -0.3441
 2448TIP3    H128759   5.506   5.494  16.562  1.4849 -1.3248 -0.0318
 2448TIP3    H228760   5.388   5.427  16.631  0.3426  0.1716 -0.4819
 2449TIP3   OH228761   5.382   5.019  16.293  0.4223  0.2763 -0.1651
 2449TIP3    H128762   5.455   5.054  16.344  0.3472  0.6780 -0.3324
 2449TIP3    H228763   5.304   5.043  16.343  0.3574  0.5415 -0.3926
 2450TIP3   OH228764   1.750   4.766  14.445  0.2603  0.1192 -0.5473
 2450TIP3    H128765   1.791   4.683  14.422  0.7066  0.4464 -0.9550
 2450TIP3    H228766   1.731   4.759  14.538 -0.0694 -0.5935 -0.6625
 2451TIP3   OH228767   3.785   5.735   0.103  0.0897 -0.2248 -0.0883
 2451TIP3    H128768   3.821   5.669   0.162 -0.2129  0.0186  0.3740
 2451TIP3    H228769   3.803   5.818   0.147 -1.8627 -0.1393  0.6160
 2452TIP3   OH228770   0.063   1.038   2.869  0.4470  0.0196  0.3432
 2452TIP3    H128771   0.054   0.944   2.886  1.4575  0.1363  1.6534
 2452TIP3    H228772   0.024   1.081   2.946 -1.1730  0.7339 -0.8129
 2453TIP3   OH228773   0.816   4.905   5.879 -0.6871  0.1110 -0.4893
 2453TIP3    H128774   0.851   4.821   5.850  1.2378  0.6179  0.2285
 2453TIP3    H228775   0.815   4.899   5.975  1.0517  1.4477 -0.3374
 2454TIP3   OH228776   3.755   1.100  16.716 -0.0454  0.8000 -0.1437
 2454TIP3    H128777   3.716   1.034  16.772 -0.5753  2.3251  1.3899
 2454TIP3    H228778   3.801   1.051  16.648 -0.8941 -1.0945  0.5955
 2455TIP3   OH228779   4.299   6.254  15.732 -0.6083  0.0937  0.2191
 2455TIP3    H128780   4.380   6.252  15.681 -0.9078  1.1400 -0.3278
 2455TIP3    H228781   4.291   6.166  15.768  0.3279 -0.2708 -0.4319
 2456TIP3   OH228782   2.342   0.245   1.359  0.0608 -0.2500  0.5258
 2456TIP3    H128783   2.275   0.303   1.323 -3.3042 -2.9108  1.9165
 2456TIP3    H228784   2.341   0.168   1.302  1.2920 -0.7400  1.1250
 2457TIP3   OH228785   4.025   3.001   5.576  0.8380 -0.2367  0.1424
 2457TIP3    H128786   4.051   3.091   5.595 -0.5773  0.7352 -2.2536
 2457TIP3    H228787   3.956   2.982   5.639  0.8134  0.5278  0.3545
 2458TIP3   OH228788   1.219   3.814   2.376  1.0182 -0.4566  0.0781
 2458TIP3    H128789   1.273   3.888   2.405 -0.0068  0.2109  0.3601
 2458TIP3    H228790   1.222   3.753   2.450  0.9395 -0.1705  0.3224
 2459TIP3   OH228791   2.334   0.181   5.544  0.5952 -0.7440  0.4946
 2459TIP3    H128792   2.421   0.142   5.546  0.9090 -0.0776  0.3114
 2459TIP3    H228793   2.345   0.265   5.588 -0.3266 -1.3598  1.9876
 2460TIP3   OH228794   6.402   0.830  16.657  0.3198  0.2930  0.1583
 2460TIP3    H128795   6.425   0.763  16.722 -0.1669  0.4099  0.4542
 2460TIP3    H228796   6.315   0.805  16.627  0.8195 -0.1647 -0.9810
 2461TIP3   OH228797   5.451   3.673   4.745 -0.2359 -0.1536 -0.5581
 2461TIP3    H128798   5.370   3.662   4.794 -0.4834  0.7382 -0.7568
 2461TIP3    H228799   5.447   3.762   4.711  0.5450 -0.3095 -1.0860
 2462TIP3   OH228800   2.814   0.043  13.264  0.0087  0.3278 -0.1982
 2462TIP3    H128801   2.738  -0.008  13.238 -0.7078  1.8782 -1.3195
 2462TIP3    H228802   2.825   0.024  13.357 -0.7025 -1.2165 -0.4017
 2463TIP3   OH228803   4.719   6.525  16.297 -0.2785  0.7277  0.0987
 2463TIP3    H128804   4.768   6.444  16.285 -1.3819 -0.1781  1.3597
 2463TIP3    H228805   4.771   6.592  16.252  0.9728 -0.5556 -0.4424
 2464TIP3   OH228806   6.072   4.611  12.797 -0.4674  0.3586  0.2580
 2464TIP3    H128807   6.028   4.528  12.778  0.1045 -0.1337  1.0115
 2464TIP3    H228808   6.005   4.678  12.782 -0.3652 -0.0277 -2.3677
 2465TIP3   OH228809   2.816   5.973  11.334  0.0362 -0.2187 -0.6104
 2465TIP3    H128810   2.824   5.880  11.356  0.0517 -0.5587 -1.9997
 2465TIP3    H228811   2.721   5.987  11.323  0.0408 -0.0885 -0.4902
 2466TIP3   OH228812   6.186   1.223  11.248  0.2468 -0.2634 -0.1764
 2466TIP3    H128813   6.181   1.195  11.339  0.1623  0.0805 -0.0741
 2466TIP3    H228814   6.219   1.146  11.201  1.4009 -0.0794  0.3171
 2467TIP3   OH228815   5.703   5.413   0.906 -0.3088 -0.2866 -0.2096
 2467TIP3    H128816   5.748   5.416   0.822  0.8519  0.6000  0.4108
 2467TIP3    H228817   5.758   5.466   0.964 -0.7943 -1.3242  1.2465
 2468TIP3   OH228818   4.970   4.662  10.914  0.1190 -0.3791 -0.1120
 2468TIP3    H128819   4.938   4.687  10.828  0.4118  1.1294  0.1864
 2468TIP3    H228820   5.043   4.722  10.931 -0.7308  0.2318  1.6973
 2469TIP3   OH228821   3.864   0.651  12.066  0.3018 -0.4979  0.0990
 2469TIP3    H128822   3.959   0.663  12.073  0.0828  0.9270  0.9697
 2469TIP3    H228823   3.854   0.564  12.027  1.9556 -0.9852  0.6626
 2470TIP3   OH228824   4.282   3.140  14.881 -0.2229 -0.0332 -0.6871
 2470TIP3    H128825   4.330   3.081  14.823 -0.2549  0.6971 -1.4571
 2470TIP3    H228826   4.342   3.213  14.897  0.1205 -0.6159  0.8965
 2471TIP3   OH228827   4.614   2.535  10.839 -0.3422  0.3583 -0.3595
 2471TIP3    H128828   4.639   2.569  10.925 -0.6922  0.1202 -0.1598
 2471TIP3    H228829   4.696   2.532  10.789 -0.2159  0.9502 -0.1945
 2472TIP3   OH228830   0.441   5.980   0.822 -0.2887  0.6278  0.0518
 2472TIP3    H128831   0.430   5.885   0.823 -0.0909  0.5949  1.4534
 2472TIP3    H228832   0.378   6.011   0.757  1.0376 -0.5869 -1.9166
 2473TIP3   OH228833   2.265   1.441  15.579  0.1516  0.0590  0.3514
 2473TIP3    H128834   2.172   1.418  15.577 -0.0153  0.7711 -0.3898
 2473TIP3    H228835   2.274   1.497  15.656 -0.8640  3.2762 -1.6922
 2474TIP3   OH228836   3.202   5.741  10.809  0.1011 -0.5557  0.8584
 2474TIP3    H128837   3.199   5.665  10.867 -0.0062 -0.7061  0.6583
 2474TIP3    H228838   3.111   5.751  10.779  0.0200 -0.0517  1.2691
 2475TIP3   OH228839   0.766   0.233  11.568  0.5762  0.1183 -0.2971
 2475TIP3    H128840   0.816   0.161  11.530  2.2707  0.0757  1.8720
 2475TIP3    H228841   0.820   0.310  11.553  2.4168 -0.1662  3.6169
 2476TIP3   OH228842   2.876   1.796  15.005 -0.1727 -0.1337 -0.0786
 2476TIP3    H128843   2.869   1.702  15.022  1.4048 -0.1797  0.4927
 2476TIP3    H228844   2.956   1.822  15.050 -1.0262  1.6642  0.4827
 2477TIP3   OH228845   0.053   1.119   3.703  0.2588 -0.1298  0.4982
 2477TIP3    H128846  -0.029   1.157   3.733  0.0790  0.5458 -0.8052
 2477TIP3    H228847   0.028   1.060   3.632  0.8339 -0.5378  0.6206
 2478TIP3   OH228848   2.641   0.875   5.137 -0.1925 -0.2823 -0.6691
 2478TIP3    H128849   2.674   0.795   5.095 -0.0998 -1.4786  1.5402
 2478TIP3    H228850   2.546   0.864   5.138 -0.2257 -0.0497 -0.8941
 2479TIP3   OH228851   4.595   2.532   4.415 -0.0185  0.2427  0.2347
 2479TIP3    H128852   4.585   2.465   4.483  0.6683 -1.5599 -1.3412
 2479TIP3    H228853   4.656   2.494   4.353  0.6044  2.4935 -0.6262
 2480TIP3   OH228854   3.541   1.078  16.280  0.5354 -0.0774 -0.0363
 2480TIP3    H128855   3.617   1.025  16.258 -0.4136 -1.6971  0.4404
 2480TIP3    H228856   3.521   1.126  16.199  0.4732 -1.6660 -1.0051
 2481TIP3   OH228857   2.689   6.073   1.188  0.6341  0.3782  0.1826
 2481TIP3    H128858   2.648   5.986   1.191  1.5612 -0.0725  0.3238
 2481TIP3    H228859   2.777   6.056   1.154  1.3351  1.0543  1.5706
 2482TIP3   OH228860   5.173   0.320  16.143 -0.1311  0.3281  0.0034
 2482TIP3    H128861   5.096   0.263  16.155  1.0297 -0.8925  2.4591
 2482TIP3    H228862   5.219   0.282  16.069 -2.1687  1.5263 -2.0215
 2483TIP3   OH228863   2.298   3.199   5.461 -0.8754 -0.5457 -0.2925
 2483TIP3    H128864   2.225   3.226   5.406 -2.3158 -1.3323  1.1466
 2483TIP3    H228865   2.373   3.195   5.401 -2.4183 -1.6909 -2.2849
 2484TIP3   OH228866   1.259   4.144  14.876  0.0374 -0.0007 -0.7347
 2484TIP3    H128867   1.197   4.076  14.850 -0.0446 -0.2149 -0.0061
 2484TIP3    H228868   1.334   4.133  14.817 -0.2259 -0.3413 -1.0030
 2485TIP3   OH228869   2.699   4.227  13.420  0.0204 -0.1489 -0.3445
 2485TIP3    H128870   2.629   4.260  13.476  0.8015  2.1165 -0.6070
 2485TIP3    H228871   2.768   4.200  13.480  0.3326  1.0503 -0.1311
 2486TIP3   OH228872   3.276   1.700   2.788 -0.3085  0.9182  0.3388
 2486TIP3    H128873   3.202   1.722   2.844 -2.1622 -0.4518 -1.3869
 2486TIP3    H228874   3.335   1.650   2.844 -1.7780  0.1556  1.2663
 2487TIP3   OH228875   1.320   3.202  12.109  0.2047 -0.7943  0.1484
 2487TIP3    H128876   1.386   3.251  12.158  0.7039 -1.0279 -0.2772
 2487TIP3    H228877   1.369   3.131  12.068 -0.5479 -1.8061  0.9533
 2488TIP3   OH228878   4.152   3.736  13.748  0.6827  0.5293  0.6366
 2488TIP3    H128879   4.104   3.715  13.667  0.5300 -1.1035  1.1067
 2488TIP3    H228880   4.105   3.811  13.785  1.0318  1.6092 -0.9896
 2489TIP3   OH228881   5.311   0.041   0.631 -0.3536  0.3418 -0.5217
 2489TIP3    H128882   5.391  -0.003   0.600 -0.8199  0.2332 -1.6004
 2489TIP3    H228883   5.280   0.091   0.555  0.1134  2.5253  0.6322
 2490TIP3   OH228884   1.629   5.263   5.166 -0.5777  0.0619  0.3843
 2490TIP3    H128885   1.676   5.334   5.210 -0.6696 -0.6617  1.7172
 2490TIP3    H228886   1.619   5.293   5.076  1.1288  0.8765  0.4194
 2491TIP3   OH228887   4.172   6.461  15.851 -0.2113 -0.0821  0.2224
 2491TIP3    H128888   4.187   6.412  15.932  0.2890 -0.2959  0.0025
 2491TIP3    H228889   4.205   6.404  15.782 -1.0587 -0.0999 -0.1825
 2492TIP3   OH228890   4.827   3.636   2.932  0.0072 -0.4074 -0.0717
 2492TIP3    H128891   4.788   3.608   3.015  0.4164  2.1380  1.0780
 2492TIP3    H228892   4.759   3.688   2.889  0.0708 -1.0542 -0.9736
 2493TIP3   OH228893   5.228   1.507   5.644 -0.1762 -0.6748 -0.3146
 2493TIP3    H128894   5.264   1.571   5.705 -2.0374 -0.2640  0.4240
 2493TIP3    H228895   5.304   1.467   5.602  1.0681  0.6954  0.5758
 2494TIP3   OH228896   6.410   4.355   3.535 -0.5644 -0.2461 -0.8827
 2494TIP3    H128897   6.350   4.413   3.489 -0.3720 -0.3888 -1.3224
 2494TIP3    H228898   6.441   4.406   3.610 -1.9521 -0.4949 -0.1069
 2495TIP3   OH228899   4.830   1.793  15.075 -0.0619  0.2430  0.0704
 2495TIP3    H128900   4.912   1.769  15.032 -0.9622  1.0891 -2.2504
 2495TIP3    H228901   4.794   1.710  15.106  0.5755 -0.4342 -0.9573
 2496TIP3   OH228902   6.638   3.781  17.011 -0.3390  0.6446 -0.4096
 2496TIP3    H128903   6.565   3.837  16.985 -0.0557  0.8809 -0.6945
 2496TIP3    H228904   6.618   3.696  16.971 -0.7863  0.5246  0.0546
 2497TIP3   OH228905   6.478   5.290  13.189 -0.1627 -0.3926  0.0818
 2497TIP3    H128906   6.427   5.307  13.269  0.7175  1.4777  0.3036
 2497TIP3    H228907   6.568   5.311  13.214  0.4675 -1.9087 -0.8163
 2498TIP3   OH228908   0.179   5.672   1.228 -0.2838  0.5774  0.3235
 2498TIP3    H128909   0.219   5.617   1.295 -0.0786 -0.5687 -0.6944
 2498TIP3    H228910   0.128   5.737   1.276  0.1932  0.0373  1.5808
 2499TIP3   OH228911   4.695   1.640   2.364 -0.3338  0.1004  0.2764
 2499TIP3    H128912   4.709   1.568   2.303 -0.9167 -0.0715  0.3355
 2499TIP3    H228913   4.762   1.628   2.431 -0.0061  0.0031 -0.0654
 2500TIP3   OH228914   0.846   5.992   5.660 -0.0552 -0.6891 -0.0480
 2500TIP3    H128915   0.761   6.024   5.629  0.4400  0.1771 -0.5465
 2500TIP3    H228916   0.906   6.065   5.646  0.9509 -1.5649 -0.4723
 2501TIP3   OH228917   2.615   6.461  13.448 -0.1937 -0.4360 -0.2650
 2501TIP3    H128918   2.578   6.406  13.379  0.0929 -1.7273  0.5715
 2501TIP3    H228919   2.580   6.549  13.430 -1.8335 -1.1501 -0.8028
 2502TIP3   OH228920   0.141   1.956   6.149  0.0530  0.1274 -0.3373
 2502TIP3    H128921   0.103   1.950   6.061 -0.5164 -0.9737 -0.0214
 2502TIP3    H228922   0.189   1.874   6.161 -1.5515 -0.6486  1.1434
 2503TIP3   OH228923   5.181   4.767   2.584  0.1493 -0.0329  0.2499
 2503TIP3    H128924   5.136   4.683   2.581  0.7974 -0.4144  0.8923
 2503TIP3    H228925   5.251   4.760   2.519 -0.1929  0.2531 -0.1553
 2504TIP3   OH228926   3.875   3.220  15.304  0.0017  0.6095 -0.1981
 2504TIP3    H128927   3.879   3.126  15.320 -1.2369  0.7991  1.4748
 2504TIP3    H228928   3.870   3.228  15.208  1.1567 -0.9481 -0.4166
 2505TIP3   OH228929   1.292   2.032  15.751  0.3174 -0.4931 -0.1357
 2505TIP3    H128930   1.320   2.121  15.727  0.9612 -1.2371 -2.4045
 2505TIP3    H228931   1.222   2.046  15.815 -0.7593  1.7311 -1.6564
 2506TIP3   OH228932   5.480   2.122  14.401 -0.1797  1.0196 -0.6012
 2506TIP3    H128933   5.444   2.210  14.390 -1.3405  0.7503  0.7541
 2506TIP3    H228934   5.510   2.119  14.491 -1.1156 -0.2788 -0.2909
 2507TIP3   OH228935   6.713   1.459   1.303 -0.0944 -0.1031 -0.1210
 2507TIP3    H128936   6.680   1.519   1.370  0.0010  0.9933 -1.0192
 2507TIP3    H228937   6.636   1.409   1.275 -0.3013  0.0227  0.2206
 2508TIP3   OH228938   3.666   2.778   2.792  0.0397  0.0513 -0.1515
 2508TIP3    H128939   3.637   2.708   2.851  0.8829 -0.4172 -0.2709
 2508TIP3    H228940   3.672   2.855   2.847 -1.9236  0.3093 -0.2343
 2509TIP3   OH228941   2.191   3.217  15.677 -0.2441 -0.5163 -0.4196
 2509TIP3    H128942   2.113   3.272  15.688  1.2668  1.9755 -1.1265
 2509TIP3    H228943   2.189   3.157  15.751 -1.8051  0.7950  0.6867
 2510TIP3   OH228944   2.156   6.259   1.494 -0.1032  0.4297 -0.4897
 2510TIP3    H128945   2.107   6.190   1.449 -0.5024 -0.3316  1.0153
 2510TIP3    H228946   2.200   6.213   1.566 -0.0171  1.6758  0.2771
 2511TIP3   OH228947   5.592   0.752  13.215  0.0018  0.0062  0.3143
 2511TIP3    H128948   5.687   0.736  13.207  0.0390 -0.1416  1.0354
 2511TIP3    H228949   5.552   0.671  13.183  0.1220 -0.0775  0.3767
 2512TIP3   OH228950   0.298   0.214   4.916 -0.5302  0.0830 -0.1318
 2512TIP3    H128951   0.307   0.169   4.832  1.1879 -0.5044  0.3312
 2512TIP3    H228952   0.225   0.170   4.959 -1.7856  0.7325 -1.4902
 2513TIP3   OH228953   1.544   5.109   4.217 -0.4013  0.0980  0.7508
 2513TIP3    H128954   1.500   5.174   4.272 -3.9257 -0.1726 -1.4064
 2513TIP3    H228955   1.480   5.037   4.210  1.8709 -2.0044  0.1265
 2514TIP3   OH228956   0.580   2.899  14.897  0.5150  0.4436  0.2058
 2514TIP3    H128957   0.538   2.818  14.870 -0.4372  1.1377 -0.4605
 2514TIP3    H228958   0.630   2.875  14.975 -2.4452 -0.1107  2.1013
 2515TIP3   OH228959   3.945   0.512   4.757 -0.4130 -0.1491  0.3691
 2515TIP3    H128960   3.924   0.582   4.696  0.7264 -0.5460 -0.5077
 2515TIP3    H228961   3.925   0.549   4.843 -0.9947  0.8048 -0.1587
 2516TIP3   OH228962   6.069   3.944  14.303  0.3210  0.3996  0.3184
 2516TIP3    H128963   6.042   3.864  14.347  1.4205  1.0585  2.3133
 2516TIP3    H228964   6.150   3.919  14.257  0.3915  0.2487  0.5223
 2517TIP3   OH228965   6.451   5.055  11.796  0.0125 -0.1764  0.0006
 2517TIP3    H128966   6.400   5.127  11.833  1.4702 -0.1521  2.1405
 2517TIP3    H228967   6.503   5.095  11.727  0.8145  0.8725  1.1732
 2518TIP3   OH228968   3.763   0.827   2.890  0.1042  0.5938  0.4402
 2518TIP3    H128969   3.787   0.817   2.798 -0.5747  1.1727  0.1951
 2518TIP3    H228970   3.691   0.890   2.890 -0.3733  0.0688  1.3020
 2519TIP3   OH228971   1.701   0.193   2.930 -0.2471 -0.0487 -0.3556
 2519TIP3    H128972   1.780   0.140   2.921  1.6008  1.8879  2.6385
 2519TIP3    H228973   1.634   0.132   2.961  1.1989 -1.1038  0.8500
 2520TIP3   OH228974   2.853   4.119   3.031  0.3177  0.1696 -0.3548
 2520TIP3    H128975   2.792   4.192   3.017 -0.3124 -0.4611 -0.9871
 2520TIP3    H228976   2.874   4.089   2.942  2.3941  1.0315 -0.2277
 2521TIP3   OH228977   3.948   4.159  13.246 -0.4246 -0.6917 -0.0046
 2521TIP3    H128978   4.005   4.120  13.180  1.3821  0.3552  0.8485
 2521TIP3    H228979   3.877   4.096  13.257 -0.6934 -1.0087 -2.7443
 2522TIP3   OH228980   1.935   1.392  12.083 -0.2750  0.6737 -0.2876
 2522TIP3    H128981   2.025   1.404  12.052 -0.3131  2.4432  0.1857
 2522TIP3    H228982   1.923   1.460  12.149 -1.1501 -1.1365  1.5251
 2523TIP3   OH228983   0.605   0.878   3.115  0.5503  0.2444 -0.0691
 2523TIP3    H128984   0.650   0.962   3.125  0.0159  0.3108  2.3905
 2523TIP3    H228985   0.521   0.890   3.159  0.4761 -1.5740  0.3886
 2524TIP3   OH228986   2.583   5.448   2.636 -0.0816  0.1856  0.0040
 2524TIP3    H128987   2.517   5.383   2.661  0.7472 -0.4967  0.4838
 2524TIP3    H228988   2.653   5.397   2.595  1.3579  0.5145  1.8889
 2525TIP3   OH228989   6.158   2.981   6.365 -0.5600 -0.2043  0.1769
 2525TIP3    H128990   6.082   3.016   6.318  0.4852  0.0290 -1.4336
 2525TIP3    H228991   6.226   3.047   6.351  0.6562 -1.5568 -0.5681
 2526TIP3   OH228992   4.177   6.158   1.996 -0.0692  0.2338 -0.2999
 2526TIP3    H128993   4.146   6.069   1.981  3.0342 -1.3933  1.7930
 2526TIP3    H228994   4.110   6.198   2.051 -1.3368 -0.9188 -0.9548
 2527TIP3   OH228995   6.267   2.854   3.461  0.2439 -0.4605 -0.0847
 2527TIP3    H128996   6.185   2.896   3.437 -0.4537 -3.2314 -3.3725
 2527TIP3    H228997   6.328   2.878   3.391  1.7641  0.1428  1.3792
 2528TIP3   OH228998   3.125   1.620  14.257  1.0458 -0.5173 -0.4151
 2528TIP3    H128999   3.093   1.608  14.168  0.6155 -0.4541 -0.2711
 2528TIP3    H229000   3.215   1.651  14.247 -0.0487  2.8474 -0.8898
 2529TIP3   OH229001   3.230   2.413  16.480  0.0718 -0.3533  0.2149
 2529TIP3    H129002   3.169   2.340  16.466  0.0541 -0.3392  0.2185
 2529TIP3    H229003   3.288   2.409  16.404  1.0989 -1.3910  1.0102
 2530TIP3   OH229004   2.894   4.962  16.761  0.1047 -0.2619  0.3637
 2530TIP3    H129005   2.878   5.044  16.807  0.2020 -0.8036  1.3954
 2530TIP3    H229006   2.952   4.985  16.689 -1.0388  0.8159 -0.2433
 2531TIP3   OH229007   0.703   4.773  12.556 -0.8316 -0.2815  0.7336
 2531TIP3    H129008   0.672   4.687  12.586 -3.3251  0.6320  0.9909
 2531TIP3    H229009   0.667   4.835  12.619 -0.7764  1.1218 -0.5639
 2532TIP3   OH229010   0.576   3.958  12.256  0.5472 -0.5029  0.4277
 2532TIP3    H129011   0.539   4.044  12.234 -0.5171 -1.0952 -0.1498
 2532TIP3    H229012   0.600   3.921  12.171  0.9102 -0.8235  0.6698
 2533TIP3   OH229013   0.603   5.327  17.119 -0.3733 -0.0534 -0.6536
 2533TIP3    H129014   0.576   5.389  17.187 -2.2457  0.0530 -1.4405
 2533TIP3    H229015   0.629   5.382  17.045 -0.8510 -0.1685 -0.9166
 2534TIP3   OH229016   4.616   1.798   3.218  0.0367 -0.3463  0.2837
 2534TIP3    H129017   4.662   1.758   3.291  1.7187 -0.6428 -0.8643
 2534TIP3    H229018   4.578   1.724   3.170 -0.6899 -0.1890  0.6035
 2535TIP3   OH229019   1.206   3.237   1.187 -0.0116  0.6411 -0.1099
 2535TIP3    H129020   1.111   3.237   1.199  0.0776  0.1488  0.6516
 2535TIP3    H229021   1.240   3.276   1.267  0.5356 -1.3673  0.6955
 2536TIP3   OH229022   2.507   6.441  15.448  0.4761  0.2200 -0.1910
 2536TIP3    H129023   2.599   6.460  15.431  0.8112 -0.7158  0.4686
 2536TIP3    H229024   2.507   6.402  15.536 -0.4129 -0.7772 -0.6164
 2537TIP3   OH229025   6.779   4.069  11.256  0.0800 -0.2663 -0.0249
 2537TIP3    H129026   6.730   4.021  11.190 -0.8931  0.5531  0.0665
 2537TIP3    H229027   6.732   4.152  11.265  1.4646  0.5455  0.1040
 2538TIP3   OH229028   5.804   4.258  15.857  0.1790  0.4315 -0.1379
 2538TIP3    H129029   5.812   4.169  15.891 -0.5331  0.0260 -1.0034
 2538TIP3    H229030   5.835   4.314  15.929 -2.2289 -0.3132  1.6025
 2539TIP3   OH229031   4.710   4.780   2.867 -0.5069  0.2233 -0.4657
 2539TIP3    H129032   4.766   4.715   2.910  0.4363  1.9368  1.0120
 2539TIP3    H229033   4.726   4.861   2.914 -0.8789  1.8088 -2.8783
 2540TIP3   OH229034   5.866   2.398  11.977 -0.3962  0.1450  0.3065
 2540TIP3    H129035   5.840   2.412  12.068 -1.8402 -0.5449  0.0239
 2540TIP3    H229036   5.786   2.371  11.933  0.4325 -0.2231 -1.0289
 2541TIP3   OH229037   3.712   2.569   3.549 -0.0320  0.2741  0.7612
 2541TIP3    H129038   3.712   2.518   3.469 -0.4311  1.0963  0.2187
 2541TIP3    H229039   3.760   2.649   3.526 -1.9724  1.4762  0.6917
 2542TIP3   OH229040   6.460   4.249  13.776  0.5281 -0.0873  0.0812
 2542TIP3    H129041   6.555   4.241  13.766  0.3198 -0.9766 -1.3590
 2542TIP3    H229042   6.437   4.328  13.727  0.5051  0.1063  0.3985
 2543TIP3   OH229043   0.457   4.228  11.014  0.5387  0.6571 -0.0653
 2543TIP3    H129044   0.483   4.138  10.991  2.1959  1.2814 -0.7953
 2543TIP3    H229045   0.413   4.261  10.935 -0.6402  0.3181  0.4195
 2544TIP3   OH229046   4.747   1.063   4.256 -0.4865  0.1285 -0.6028
 2544TIP3    H129047   4.740   1.056   4.161 -2.7426 -1.9524 -0.3931
 2544TIP3    H229048   4.658   1.083   4.285  0.3946  2.0350  1.0550
 2545TIP3   OH229049   4.604   2.047   2.811  0.0423  0.2271  0.2045
 2545TIP3    H129050   4.665   2.048   2.885 -0.0143  0.1771  0.2525
 2545TIP3    H229051   4.589   1.955   2.793 -1.0415  0.2152  1.0530
 2546TIP3   OH229052   5.196   3.888  17.159 -0.3255  0.0414  0.5003
 2546TIP3    H129053   5.218   3.835  17.083 -0.4882 -0.1020  0.5522
 2546TIP3    H229054   5.125   3.945  17.129 -0.4087 -0.0344  0.5517
 2547TIP3   OH229055   0.216   1.417  14.325 -0.0614 -0.4802 -0.3467
 2547TIP3    H129056   0.256   1.471  14.257  0.5871 -1.1410 -0.5069
 2547TIP3    H229057   0.268   1.434  14.404  0.3671 -1.1067 -0.4798
 2548TIP3   OH229058   1.681   3.470  10.820  0.4490  0.1185 -0.2841
 2548TIP3    H129059   1.669   3.449  10.728 -0.9945  0.5980 -0.2393
 2548TIP3    H229060   1.609   3.424  10.864  1.5076 -0.6472  0.6929
 2549TIP3   OH229061   3.778   6.559  11.549 -0.4496 -0.3584  0.1218
 2549TIP3    H129062   3.763   6.634  11.491 -0.1484  0.0560  0.5685
 2549TIP3    H229063   3.781   6.484  11.490 -0.3758  0.0267 -0.3816
 2550TIP3   OH229064   1.152   3.989   0.979  0.6701  0.1985  0.6569
 2550TIP3    H129065   1.127   3.953   1.064  1.6359  0.5742  1.1119
 2550TIP3    H229066   1.071   4.028   0.945 -0.1088 -1.3206  0.6872
 2551TIP3   OH229067   4.167   6.371   5.046  0.0785  0.7367  0.1396
 2551TIP3    H129068   4.181   6.279   5.068 -0.7441  0.7253  0.6806
 2551TIP3    H229069   4.241   6.417   5.085 -0.1098  0.4262  0.8807
 2552TIP3   OH229070   2.080   1.530  16.918  0.4570  0.0740  0.0193
 2552TIP3    H129071   2.032   1.461  16.873 -1.0595  0.7018  0.5778
 2552TIP3    H229072   2.056   1.611  16.872 -0.1187  0.5632  1.1153
 2553TIP3   OH229073   6.627   3.927  11.056  0.1440 -1.1212 -0.0629
 2553TIP3    H129074   6.549   3.928  11.001  0.8222  2.7984 -1.3012
 2553TIP3    H229075   6.696   3.889  11.001  0.3132  0.7598 -1.2506
 2554TIP3   OH229076   5.218   4.383  12.878  0.6183  0.3509  0.1146
 2554TIP3    H129077   5.202   4.318  12.947  0.8458 -0.9833 -1.0317
 2554TIP3    H229078   5.217   4.467  12.924  1.0065 -0.4927  1.7877
 2555TIP3   OH229079   2.393   5.682   1.374 -0.5759  0.5233  0.4007
 2555TIP3    H129080   2.361   5.610   1.428  0.1828 -0.6130 -0.6142
 2555TIP3    H229081   2.397   5.757   1.433 -0.1453 -0.5780  1.8065
 2556TIP3   OH229082   1.704   5.759  11.064  0.3468 -0.2082  0.0700
 2556TIP3    H129083   1.694   5.754  10.969 -0.3243  0.0899  0.1170
 2556TIP3    H229084   1.769   5.828  11.078 -1.1825  1.3592 -0.1247
 2557TIP3   OH229085   1.861   2.673   3.999 -0.5577  0.3509 -0.6732
 2557TIP3    H129086   1.876   2.762   4.029  0.1038 -0.4149  1.4738
 2557TIP3    H229087   1.790   2.640   4.054 -0.0912 -0.7672 -0.7026
 2558TIP3   OH229088   6.594   4.375  15.520  0.6775 -0.2916 -0.1889
 2558TIP3    H129089   6.577   4.282  15.530 -1.2950 -0.0535 -0.9124
 2558TIP3    H229090   6.514   4.417  15.551  1.2646  1.1454 -0.5401
 2559TIP3   OH229091   6.613   3.401  14.115 -0.0880 -0.4506  0.4226
 2559TIP3    H129092   6.568   3.364  14.191 -0.3786  0.2380  0.5927
 2559TIP3    H229093   6.665   3.473  14.150 -1.2403  0.7140 -0.1892
 2560TIP3   OH229094   6.549   6.026   2.315 -0.2078  0.2620 -0.2972
 2560TIP3    H129095   6.525   5.944   2.359 -0.0397  0.7706  0.7827
 2560TIP3    H229096   6.541   6.093   2.384  1.7434  0.8388 -0.5693
 2561TIP3   OH229097   1.869   1.394  15.385 -0.1181 -0.3177 -0.3381
 2561TIP3    H129098   1.900   1.458  15.449  0.9114  0.4987 -1.5986
 2561TIP3    H229099   1.930   1.321  15.392  0.0968 -0.1544 -0.5013
 2562TIP3   OH229100   5.328   3.624  12.622 -0.4413  0.5381 -0.4063
 2562TIP3    H129101   5.244   3.582  12.640  0.3137 -0.8196  0.0656
 2562TIP3    H229102   5.332   3.697  12.684 -1.3351  0.7163 -0.5438
 2563TIP3   OH229103   1.642   6.020  14.705 -0.3309  0.3807  0.3945
 2563TIP3    H129104   1.680   6.082  14.643 -0.2035 -1.3173 -1.2930
 2563TIP3    H229105   1.681   6.044  14.789  2.3632  0.4595 -0.7725
 2564TIP3   OH229106   4.332   3.602   3.620  0.1781  0.2467 -0.1429
 2564TIP3    H129107   4.417   3.607   3.664  0.1082 -0.7890  0.1300
 2564TIP3    H229108   4.277   3.665   3.668  0.3503 -0.2367  0.7171
 2565TIP3   OH229109   0.893   3.913   4.495  0.1709 -0.0394  0.2409
 2565TIP3    H129110   0.914   3.942   4.584  0.1406  0.6292  0.0332
 2565TIP3    H229111   0.854   3.826   4.507 -0.3006  0.2617  0.9204
 2566TIP3   OH229112   6.037   5.089   3.273 -0.0838  0.6064 -0.2338
 2566TIP3    H129113   6.051   5.174   3.231  1.5065  0.8787  0.7804
 2566TIP3    H229114   5.985   5.108   3.351 -1.7261  0.2974 -1.1975
 2567TIP3   OH229115   0.906   3.072   5.769 -0.6037 -0.1192 -0.0402
 2567TIP3    H129116   0.968   3.005   5.796  1.0687  1.2243 -0.3825
 2567TIP3    H229117   0.877   3.112   5.851  0.9659  0.9107  0.0602
 2568TIP3   OH229118   4.582   4.630  12.588  0.3135 -0.8165 -0.3758
 2568TIP3    H129119   4.550   4.541  12.605 -0.6793 -0.0846  1.9887
 2568TIP3    H229120   4.566   4.677  12.669  0.6835  1.5974 -1.6151
 2569TIP3   OH229121   2.070   5.577  13.325 -0.2063  0.3967  0.4033
 2569TIP3    H129122   2.042   5.515  13.393  2.4044 -0.5155  0.7619
 2569TIP3    H229123   2.113   5.522  13.259  0.7913  1.6586 -0.0427
 2570TIP3   OH229124   5.337   2.674  11.459  0.0511  0.1737  0.0111
 2570TIP3    H129125   5.291   2.702  11.380  0.5383  0.6844 -0.0943
 2570TIP3    H229126   5.322   2.579  11.463 -1.9438  0.4670  0.5885
 2571TIP3   OH229127   4.808   5.572   3.898  0.3926  0.4256 -0.4093
 2571TIP3    H129128   4.756   5.629   3.840 -0.9279 -0.1896  0.1200
 2571TIP3    H229129   4.773   5.590   3.985  2.7045  1.7204  0.3309
 2572TIP3   OH229130   5.391   0.856   5.112  0.3252  0.0147  0.3285
 2572TIP3    H129131   5.369   0.873   5.020  0.4111 -0.2243  0.2643
 2572TIP3    H229132   5.380   0.941   5.155 -0.3072 -0.0040  0.2119
 2573TIP3   OH229133   4.520   0.588   4.519 -0.2280 -0.2053 -0.0153
 2573TIP3    H129134   4.592   0.623   4.467 -0.4074  1.9142  1.0691
 2573TIP3    H229135   4.457   0.556   4.454 -0.1677  1.7900 -1.1449
 2574TIP3   OH229136   6.659   2.504  12.930 -0.1295 -0.1153 -0.5759
 2574TIP3    H129137   6.739   2.555  12.944 -0.7844  0.8288 -0.1552
 2574TIP3    H229138   6.655   2.492  12.835 -0.9423  2.3551 -0.9414
 2575TIP3   OH229139   5.303   5.553  14.896  0.0588  0.5623  0.5325
 2575TIP3    H129140   5.359   5.602  14.957  1.4074  2.4721 -2.0543
 2575TIP3    H229141   5.314   5.597  14.812 -1.5556 -2.0488 -1.2077
 2576TIP3   OH229142   4.775   1.027  12.161 -0.1183 -0.1065 -0.7190
 2576TIP3    H129143   4.740   1.116  12.160 -0.3833 -0.1387  1.6026
 2576TIP3    H229144   4.781   1.003  12.068  2.9396  3.4207 -1.6947
 2577TIP3   OH229145   3.460   4.339  17.106  0.1414 -0.0671 -0.6460
 2577TIP3    H129146   3.433   4.388  17.184  0.8158  1.9844 -1.6295
 2577TIP3    H229147   3.542   4.297  17.132 -0.6922 -1.1422  0.3692
 2578TIP3   OH229148   2.159   1.779  15.065 -0.0949  0.1164 -0.3282
 2578TIP3    H129149   2.190   1.868  15.052 -1.4459  1.1195  2.5694
 2578TIP3    H229150   2.145   1.771  15.159 -1.0376 -2.8154 -0.6056
 2579TIP3   OH229151   5.924   2.031   0.768 -0.3785  0.2651  0.4392
 2579TIP3    H129152   6.000   2.066   0.721  0.2419  0.7894  1.7497
 2579TIP3    H229153   5.855   2.097   0.754 -0.7067 -0.3567 -0.9960
 2580TIP3   OH229154   4.960   6.543  11.688  0.0276 -0.2433 -0.3268
 2580TIP3    H129155   4.956   6.524  11.782  2.5274 -2.0500 -0.4608
 2580TIP3    H229156   4.927   6.463  11.646 -0.6210  0.3634 -0.9757
 2581TIP3   OH229157   2.830   1.928   4.804 -0.8161 -0.3755 -0.5267
 2581TIP3    H129158   2.854   1.966   4.888 -0.7196  0.3077 -0.8494
 2581TIP3    H229159   2.868   1.988   4.739 -1.2252 -0.6719 -1.0510
 2582TIP3   OH229160   1.408   5.945   1.808  0.6009  0.5212  0.2039
 2582TIP3    H129161   1.390   5.900   1.726 -0.7245  1.1591  0.1288
 2582TIP3    H229162   1.438   6.032   1.782  0.8678  0.4887  0.3943
 2583TIP3   OH229163   4.198   6.059  13.688  0.0791 -0.0520  0.1658
 2583TIP3    H129164   4.228   6.108  13.612 -1.0353 -0.8422 -0.8078
 2583TIP3    H229165   4.277   6.015  13.721  0.7485  1.0080  0.0502
 2584TIP3   OH229166   5.373   6.353   2.469  0.2838 -0.2226  0.1440
 2584TIP3    H129167   5.308   6.295   2.509 -1.7167  1.0742 -1.0419
 2584TIP3    H229168   5.398   6.412   2.540  2.2921 -2.3528  1.3439
 2585TIP3   OH229169   2.761   0.395   2.928  0.1000  0.0398 -0.1000
 2585TIP3    H129170   2.714   0.435   2.854 -0.8588 -2.1828 -0.7622
 2585TIP3    H229171   2.711   0.422   3.005 -1.3067 -0.9012 -0.6535
 2586TIP3   OH229172   4.655   1.638   1.421 -1.0874  0.2302  0.4663
 2586TIP3    H129173   4.678   1.573   1.354  0.2067  1.6971 -0.5905
 2586TIP3    H229174   4.697   1.605   1.500 -0.1169 -0.0593 -0.1425
 2587TIP3   OH229175   2.348   1.685  12.237 -0.1107  0.0405  0.1206
 2587TIP3    H129176   2.380   1.716  12.322 -1.2059  1.0723  0.1842
 2587TIP3    H229177   2.411   1.719  12.174 -0.5340  1.2495  0.3237
 2588TIP3   OH229178   3.442   3.425  14.335  0.1065  0.0409  0.0795
 2588TIP3    H129179   3.362   3.405  14.288 -0.2978  0.8819  0.3832
 2588TIP3    H229180   3.427   3.391  14.423  0.3151 -0.3140 -0.0213
 2589TIP3   OH229181   4.610   1.589  13.186 -0.0594 -0.1424  0.2777
 2589TIP3    H129182   4.667   1.536  13.130  0.9990  0.0345  1.1658
 2589TIP3    H229183   4.585   1.663  13.130  1.3873  0.2946  0.1632
 2590TIP3   OH229184   4.335   1.184  12.048  0.0362  0.4824 -0.2284
 2590TIP3    H129185   4.362   1.269  12.084 -0.3762  0.9788 -1.0337
 2590TIP3    H229186   4.417   1.136  12.037  0.1197  0.0086  2.0168
 2591TIP3   OH229187   4.342   0.370  13.416  0.0302  0.4197  0.5769
 2591TIP3    H129188   4.317   0.448  13.465  0.9044  1.2875 -0.3199
 2591TIP3    H229189   4.269   0.356  13.355  0.5583  1.4555 -0.3110
 2592TIP3   OH229190   5.560   3.998   3.752 -0.1581 -0.1412 -0.0791
 2592TIP3    H129191   5.524   4.070   3.700  1.6611 -1.0346 -2.7785
 2592TIP3    H229192   5.652   4.021   3.765  0.2043 -1.4703 -0.1015
 2593TIP3   OH229193   6.630   4.834   5.773  0.0889  0.0184 -0.1851
 2593TIP3    H129194   6.649   4.882   5.692 -1.0170 -0.4476 -0.7405
 2593TIP3    H229195   6.586   4.899   5.828 -3.0784 -0.7075 -1.6232
 2594TIP3   OH229196   5.626   6.419  14.479 -0.4926 -0.0020 -0.5410
 2594TIP3    H129197   5.593   6.333  14.505 -0.8657  0.2092 -0.3187
 2594TIP3    H229198   5.631   6.414  14.383  0.2892 -0.5606 -0.4815
 2595TIP3   OH229199   0.304   6.438   0.835 -0.4741 -0.6101 -0.4241
 2595TIP3    H129200   0.378   6.495   0.812 -3.0022  2.8986 -0.7516
 2595TIP3    H229201   0.246   6.442   0.759 -1.5413 -2.3582  0.2404
 2596TIP3   OH229202   0.199   5.566  12.134  0.5453 -0.6157 -0.5385
 2596TIP3    H129203   0.194   5.564  12.039 -0.9123 -0.1977 -0.4867
 2596TIP3    H229204   0.210   5.659  12.156 -3.3127 -0.0944 -0.1903
 2597TIP3   OH229205   1.135   4.772  12.759  0.3451  0.0376  0.4494
 2597TIP3    H129206   1.228   4.749  12.759  0.2436 -0.4167  0.8116
 2597TIP3    H229207   1.129   4.853  12.709  1.1045  0.7396  1.4410
 2598TIP3   OH229208   3.795   4.863   2.850  0.4316 -0.4494  0.2930
 2598TIP3    H129209   3.786   4.819   2.766 -1.2339  0.9179 -0.2939
 2598TIP3    H229210   3.713   4.846   2.896 -0.2033  1.7631  0.1160
 2599TIP3   OH229211   6.104   4.065  14.904 -0.4101 -0.2606 -0.2710
 2599TIP3    H129212   6.130   3.977  14.931  1.3716  0.0682 -0.7872
 2599TIP3    H229213   6.181   4.119  14.918 -1.3096  1.1386 -0.4373
 2600TIP3   OH229214   3.703   0.995   5.189  0.2348  0.2226 -0.7291
 2600TIP3    H129215   3.636   0.968   5.253  2.9940  1.4502  3.0228
 2600TIP3    H229216   3.733   0.913   5.150 -0.1948 -0.8299  1.0500
 2601TIP3   OH229217   3.289   5.681  15.027 -0.1000 -0.4950 -0.1433
 2601TIP3    H129218   3.249   5.718  15.106 -0.6678 -0.3461 -0.4916
 2601TIP3    H229219   3.370   5.641  15.057  2.0446  3.3987 -0.1034
 2602TIP3   OH229220   2.546   1.088  11.193 -0.1591 -0.5693 -0.1153
 2602TIP3    H129221   2.582   1.160  11.142 -0.1864  0.9284  1.8669
 2602TIP3    H229222   2.544   1.120  11.283 -0.3567 -2.9923  0.8324
 2603TIP3   OH229223   5.338   0.838   0.855  0.5359 -0.6954 -0.3474
 2603TIP3    H129224   5.311   0.778   0.786  0.9503 -0.5532 -0.6327
 2603TIP3    H229225   5.258   0.852   0.907  0.1313 -0.5164 -1.0059
 2604TIP3   OH229226   0.120   5.707  14.405 -0.0732 -0.1023 -0.0373
 2604TIP3    H129227   0.039   5.658  14.424  0.6742 -0.7952  1.5647
 2604TIP3    H229228   0.173   5.646  14.354 -0.8087  0.6168 -1.7387
 2605TIP3   OH229229   4.537   6.098  14.598  0.8164 -1.0076  0.0352
 2605TIP3    H129230   4.487   6.020  14.576  0.2916 -0.7120  0.1716
 2605TIP3    H229231   4.478   6.150  14.652 -0.4512  1.4064 -3.3315
 2606TIP3   OH229232   0.651   4.441   1.983  0.3319  0.0625  0.2120
 2606TIP3    H129233   0.593   4.459   2.057 -0.3806  0.4292 -0.4233
 2606TIP3    H229234   0.609   4.483   1.908  1.5829  0.6106 -0.2184
 2607TIP3   OH229235   3.472   4.945   5.416  0.3104 -0.4459 -0.4952
 2607TIP3    H129236   3.521   4.868   5.443 -1.0672 -0.2887  2.9536
 2607TIP3    H229237   3.536   5.016   5.417  0.9989 -1.0520 -0.9057
 2608TIP3   OH229238   1.903   1.852  12.955  0.1938 -0.5163  0.3242
 2608TIP3    H129239   1.996   1.873  12.948  0.4597 -1.9869 -1.1329
 2608TIP3    H229240   1.878   1.820  12.868 -1.8569  0.4780  0.4727
 2609TIP3   OH229241   1.502   1.438   5.075  0.1117 -0.2387  0.0046
 2609TIP3    H129242   1.526   1.362   5.128 -4.9850 -0.9959  1.7811
 2609TIP3    H229243   1.437   1.405   5.014 -0.9769  2.3912 -0.3701
 2610TIP3   OH229244   6.185   4.778   4.652  0.3758  0.2169 -0.1709
 2610TIP3    H129245   6.186   4.861   4.604 -1.7753 -0.7011 -1.9751
 2610TIP3    H229246   6.257   4.727   4.614  1.0176  0.8329  0.1947
 2611TIP3   OH229247   1.365   5.860  15.337  0.2453  0.3839 -0.2059
 2611TIP3    H129248   1.398   5.923  15.274  1.0145  0.9305  0.7136
 2611TIP3    H229249   1.316   5.797  15.285  0.3063  1.1820 -1.2602
 2612TIP3   OH229250   1.050   6.295   2.687  0.2444  0.1010 -0.9448
 2612TIP3    H129251   1.098   6.225   2.731  1.8308  0.6068 -1.7966
 2612TIP3    H229252   0.972   6.308   2.741  0.4241 -1.6058 -0.2084
 2613TIP3   OH229253   1.152   6.457  12.144  0.6481  0.1326  1.0143
 2613TIP3    H129254   1.206   6.497  12.212 -0.7170  2.0648  1.0296
 2613TIP3    H229255   1.113   6.380  12.186  0.3173  0.9474  2.2486
 2614TIP3   OH229256   1.015   5.427   0.195 -0.1616 -0.3586 -0.0764
 2614TIP3    H129257   0.991   5.339   0.225 -1.4629 -0.7742 -2.1325
 2614TIP3    H229258   1.021   5.419   0.100 -2.4941  2.2435 -0.5685
 2615TIP3   OH229259   2.261   6.099   5.672  0.1542  0.5858 -0.6346
 2615TIP3    H129260   2.176   6.104   5.716  0.2099  0.6354 -0.5333
 2615TIP3    H229261   2.292   6.010   5.689 -0.4936  0.1273 -1.8053
 2616TIP3   OH229262   5.753   0.939  11.054  0.2843  0.3499 -0.6427
 2616TIP3    H129263   5.745   1.034  11.046  0.8869  0.7825  2.5939
 2616TIP3    H229264   5.847   0.922  11.047  0.3865  0.2748  0.6701
 2617TIP3   OH229265   5.975   1.107  14.724  0.1125 -0.7934 -0.6262
 2617TIP3    H129266   5.969   1.180  14.662  0.0693 -0.0091  0.2894
 2617TIP3    H229267   5.929   1.036  14.680 -0.1584 -0.1724 -1.3834
 2618TIP3   OH229268   5.842   2.526  13.883 -0.5161  0.7080 -0.0308
 2618TIP3    H129269   5.774   2.570  13.831 -1.3743 -0.9182 -0.3700
 2618TIP3    H229270   5.924   2.552  13.843 -1.0184  1.6623 -0.4686
 2619TIP3   OH229271   1.792   6.293   4.557 -0.8020  0.5023 -0.2050
 2619TIP3    H129272   1.874   6.339   4.575 -0.1148  0.0395 -1.9737
 2619TIP3    H229273   1.724   6.358   4.575  0.0292  1.4314 -0.3074
 2620TIP3   OH229274   6.726   4.481   3.665  0.5656  0.6435  0.1379
 2620TIP3    H129275   6.775   4.563   3.668 -0.9993  1.6981 -1.1571
 2620TIP3    H229276   6.731   4.452   3.574  1.0460 -0.7048  0.5594
 2621TIP3   OH229277   6.132   5.731  13.049  0.5607  0.7111 -0.1110
 2621TIP3    H129278   6.101   5.718  12.959 -0.2748  1.3098  0.0732
 2621TIP3    H229279   6.156   5.643  13.079 -1.9664 -0.0088  0.0542
 2622TIP3   OH229280   6.473   5.067  11.029  0.1109  0.1541 -0.1249
 2622TIP3    H129281   6.421   5.116  10.965  0.6700 -0.2295 -0.9002
 2622TIP3    H229282   6.409   5.030  11.090 -0.7211 -1.6106 -1.9389
 2623TIP3   OH229283   3.664   2.270   1.131 -0.2071  0.0177  0.4756
 2623TIP3    H129284   3.731   2.247   1.066 -1.5723  0.5872 -1.1789
 2623TIP3    H229285   3.581   2.253   1.088 -1.1746  0.2676  2.1474
 2624TIP3   OH229286   5.333   0.859  12.166  0.3399 -0.7877  0.1800
 2624TIP3    H129287   5.398   0.851  12.236 -1.6432 -0.2518  2.2224
 2624TIP3    H229288   5.275   0.784  12.178  0.2122 -0.9468 -1.2375
 2625TIP3   OH229289   1.152   5.329  16.496  0.2727 -0.2037 -0.2734
 2625TIP3    H129290   1.105   5.391  16.441 -0.8774 -1.0451 -0.2908
 2625TIP3    H229291   1.229   5.304  16.445  0.6993  1.1097 -0.2998
 2626TIP3   OH229292   3.961   1.458  11.626  0.1482  0.3499 -0.4875
 2626TIP3    H129293   3.887   1.518  11.638  1.1976  1.3785  1.2504
 2626TIP3    H229294   3.978   1.460  11.532 -0.3661  2.1698 -0.5802
 2627TIP3   OH229295   1.598   2.288   1.311  0.2007  0.2395  0.2844
 2627TIP3    H129296   1.691   2.275   1.291  0.1935 -0.0511  0.4331
 2627TIP3    H229297   1.579   2.376   1.279  0.5307  0.3062  0.2637
 2628TIP3   OH229298   2.701   3.735  10.360  0.1652 -0.5369  0.0225
 2628TIP3    H129299   2.771   3.784  10.403  0.6099 -2.7728  2.0456
 2628TIP3    H229300   2.625   3.745  10.419 -1.1789  1.4215 -1.8729
 2629TIP3   OH229301   2.414   5.105   4.218  0.0695 -0.5919  0.2262
 2629TIP3    H129302   2.493   5.156   4.203  0.4412 -1.1274  0.3237
 2629TIP3    H229303   2.343   5.159   4.184  0.4605 -0.0464  0.2625
 2630TIP3   OH229304   2.747   2.043  15.738  0.8467  0.7234 -0.4206
 2630TIP3    H129305   2.801   2.057  15.815  1.5250  1.8164 -1.0815
 2630TIP3    H229306   2.792   1.974  15.689  1.2738  1.1464 -0.6263
 2631TIP3   OH229307   1.926   0.494   4.663  0.3771  0.5306 -0.2199
 2631TIP3    H129308   1.910   0.574   4.614  1.0957  0.8501  0.0501
 2631TIP3    H229309   1.927   0.521   4.755 -0.0380  0.0962 -0.0814
 2632TIP3   OH229310   4.004   5.014  17.011  0.1425  0.6592  0.3358
 2632TIP3    H129311   4.079   5.013  17.070  0.1932 -0.1935  0.2607
 2632TIP3    H229312   4.018   5.092  16.957 -0.0424  1.6090  1.5989
 2633TIP3   OH229313   5.298   1.399   2.266 -0.7534  0.2296  0.2046
 2633TIP3    H129314   5.308   1.317   2.218  0.6150  1.8869 -2.6360
 2633TIP3    H229315   5.281   1.373   2.356 -1.3485 -3.1313 -0.7509
 2634TIP3   OH229316   0.818   1.835  14.592  0.1898 -0.1027 -0.0983
 2634TIP3    H129317   0.742   1.869  14.544  0.7100  1.8069  0.3259
 2634TIP3    H229318   0.879   1.808  14.523 -0.6553 -1.1572 -0.4468
 2635TIP3   OH229319   3.149   1.635  12.867  0.4585 -0.9162  0.1842
 2635TIP3    H129320   3.096   1.556  12.860 -2.6043  1.0591 -0.7905
 2635TIP3    H229321   3.149   1.672  12.779 -2.2948  2.4854  1.3791
 2636TIP3   OH229322   5.829   3.838   5.945  0.0359 -0.0807  0.0550
 2636TIP3    H129323   5.842   3.750   5.979  0.2680 -0.4504 -0.9376
 2636TIP3    H229324   5.856   3.896   6.016 -1.5021 -0.7672  1.2677
 2637TIP3   OH229325   6.436   6.578   5.936 -0.8819 -0.0985 -0.4452
 2637TIP3    H129326   6.413   6.498   5.983  2.4774 -1.8647 -1.5145
 2637TIP3    H229327   6.518   6.606   5.976 -1.5861  2.4504 -0.6263
 2638TIP3   OH229328   1.493   5.088   5.373 -0.5540 -0.4485  0.5848
 2638TIP3    H129329   1.498   5.125   5.461  1.9210 -0.8419  0.6814
 2638TIP3    H229330   1.543   5.149   5.319 -0.8079 -0.9826 -0.2695
 2639TIP3   OH229331   3.491   2.535   1.676  0.0519  0.5242 -0.1156
 2639TIP3    H129332   3.433   2.610   1.690  0.2353  0.9910 -1.6668
 2639TIP3    H229333   3.458   2.468   1.737  0.0472  1.9118  1.4780
 2640TIP3   OH229334   1.724   0.029   3.408 -0.2709  0.2758  0.7845
 2640TIP3    H129335   1.816   0.038   3.430 -0.1386  1.7588 -0.2125
 2640TIP3    H229336   1.723  -0.035   3.336 -0.3213 -1.6531  2.4286
 2641TIP3   OH229337   2.226   3.662  12.534  0.4966 -0.7096 -0.2824
 2641TIP3    H129338   2.240   3.734  12.596 -1.1054 -1.1413  0.6575
 2641TIP3    H229339   2.189   3.592  12.588 -1.1107 -1.0416 -1.7394
 2642TIP3   OH229340   2.739   1.405  14.807 -0.1983 -0.7760 -0.2766
 2642TIP3    H129341   2.644   1.409  14.800 -0.3457 -2.9138 -0.1200
 2642TIP3    H229342   2.769   1.376  14.721  0.3159 -0.2663 -0.2783
 2643TIP3   OH229343   4.113   5.659   1.721  0.3639 -0.4406 -0.4766
 2643TIP3    H129344   4.054   5.608   1.776 -0.2246 -0.4469 -1.1015
 2643TIP3    H229345   4.101   5.749   1.751  0.1213 -0.4562 -0.5250
 2644TIP3   OH229346   5.183   1.810  16.141  0.3634  0.0653  1.0122
 2644TIP3    H129347   5.242   1.885  16.139  0.0227  0.4555  3.0248
 2644TIP3    H229348   5.237   1.738  16.174 -0.1416  0.3423  2.5370
 2645TIP3   OH229349   1.685   2.758  14.443 -0.0883 -0.0530  0.0835
 2645TIP3    H129350   1.643   2.714  14.368  0.8634  0.1133 -0.5607
 2645TIP3    H229351   1.777   2.765  14.418  0.3674 -0.5920  1.5724
 2646TIP3   OH229352   2.109   4.782   5.398 -0.3119 -0.3188  0.0304
 2646TIP3    H129353   2.039   4.778   5.333 -0.2915 -3.0673  0.0528
 2646TIP3    H229354   2.186   4.809   5.349 -0.6294 -0.8833 -0.8041
 2647TIP3   OH229355   0.286   6.120  11.986  0.3723 -0.5149 -0.1038
 2647TIP3    H129356   0.334   6.038  11.986 -0.3066 -0.9653 -2.0159
 2647TIP3    H229357   0.217   6.108  11.920 -0.0288  1.4203 -0.1027
 2648TIP3   OH229358   5.895   4.233  11.925 -0.2532  0.4092  0.1190
 2648TIP3    H129359   5.917   4.296  11.994 -1.1065  0.4532  0.3646
 2648TIP3    H229360   5.803   4.249  11.907 -0.7485 -1.3710  0.8451
 2649TIP3   OH229361   1.984   5.482  14.500  0.1082 -0.5148  0.0408
 2649TIP3    H129362   1.920   5.411  14.510  1.3159 -1.5137  1.0713
 2649TIP3    H229363   2.013   5.501  14.589 -1.9855  3.1107  0.1248
 2650TIP3   OH229364   4.338   0.790   1.575 -0.2984  0.0343 -0.6346
 2650TIP3    H129365   4.260   0.738   1.559  0.4183 -1.0630 -0.6131
 2650TIP3    H229366   4.395   0.733   1.626  0.0169  1.2623  0.4536
 2651TIP3   OH229367   1.632   3.212  14.649 -0.0126  0.3256  0.5803
 2651TIP3    H129368   1.726   3.217  14.665  0.1291 -1.1277  0.2893
 2651TIP3    H229369   1.615   3.120  14.627 -1.2516  0.8634 -0.9435
 2652TIP3   OH229370   5.007   5.939  14.281 -0.4011  0.2058 -0.2280
 2652TIP3    H129371   5.017   5.866  14.343 -2.1003 -0.3035 -0.4977
 2652TIP3    H229372   4.919   5.971  14.297  0.2711  2.1701 -0.1981
 2653TIP3   OH229373   1.081   5.702   3.654 -0.2142 -0.0820  0.0364
 2653TIP3    H129374   0.987   5.708   3.671  0.0941  2.8044  1.3528
 2653TIP3    H229375   1.092   5.738   3.566 -0.3304 -0.4716 -0.1400
 2654TIP3   OH229376   0.793   2.530   3.317  0.6905 -0.5884 -0.1982
 2654TIP3    H129377   0.853   2.488   3.255  1.7724  0.1290  0.3311
 2654TIP3    H229378   0.749   2.597   3.266  0.3829 -1.0692 -0.5746
 2655TIP3   OH229379   4.830   1.597  14.635  0.1225 -0.1721 -0.2281
 2655TIP3    H129380   4.772   1.666  14.668 -0.7517 -1.3016  0.6638
 2655TIP3    H229381   4.877   1.638  14.562 -0.8070  1.1776 -0.0995
 2656TIP3   OH229382   6.439   0.982   2.932 -1.0053 -0.4586 -0.5745
 2656TIP3    H129383   6.406   1.071   2.945 -1.7169 -1.0289  1.9038
 2656TIP3    H229384   6.378   0.943   2.869 -1.5570  0.3200 -0.5335
 2657TIP3   OH229385   2.471   3.304   4.150 -0.0182 -0.0137 -0.5849
 2657TIP3    H129386   2.560   3.304   4.187 -0.7396  0.2891  1.2861
 2657TIP3    H229387   2.482   3.337   4.061  1.5027  2.2475  0.3423
 2658TIP3   OH229388   5.841   6.159   2.739 -0.3230 -0.3221  0.3293
 2658TIP3    H129389   5.750   6.152   2.710  0.0844 -0.8950 -0.8720
 2658TIP3    H229390   5.884   6.080   2.705  0.6218 -0.0703  0.8907
 2659TIP3   OH229391   6.013   2.802  14.552  0.2360 -0.2742  0.2154
 2659TIP3    H129392   5.972   2.724  14.589 -1.6682  0.2974 -0.5909
 2659TIP3    H229393   5.942   2.866  14.547  1.2468  0.7840 -1.1734
 2660TIP3   OH229394   2.546   3.878   4.928 -0.0234  0.3436  0.0924
 2660TIP3    H129395   2.509   3.899   5.014 -0.6238 -1.7860  0.4185
 2660TIP3    H229396   2.635   3.848   4.947 -0.1890 -0.2214  0.0114
 2661TIP3   OH229397   4.828   6.000   0.725 -0.1764 -0.0749 -0.1942
 2661TIP3    H129398   4.894   6.014   0.658  2.1336 -3.8757  1.0033
 2661TIP3    H229399   4.859   6.051   0.800 -0.9003  1.3894 -0.8463
 2662TIP3   OH229400   3.894   1.354  14.225  0.3823  0.2856  0.2158
 2662TIP3    H129401   3.907   1.427  14.285  1.1560 -0.1245  0.5608
 2662TIP3    H229402   3.905   1.392  14.138 -1.1593  0.9686  0.2969
 2663TIP3   OH229403   0.433   4.199   0.391  0.5463 -0.2710  0.3246
 2663TIP3    H129404   0.341   4.188   0.414  0.4450  1.0423  0.6438
 2663TIP3    H229405   0.465   4.110   0.374 -1.1957 -0.6107 -1.4554
 2664TIP3   OH229406   4.213   5.678   5.221  0.1440  0.5291  0.2056
 2664TIP3    H129407   4.148   5.719   5.164  0.7076  0.1143 -0.7698
 2664TIP3    H229408   4.225   5.740   5.293 -1.1885  0.6929  0.3095
 2665TIP3   OH229409   6.029   3.252  15.858  0.0690  0.6317  0.0245
 2665TIP3    H129410   6.068   3.164  15.865 -0.2632  0.4040 -0.8272
 2665TIP3    H229411   6.009   3.277  15.948 -2.2967 -1.2814  0.1306
 2666TIP3   OH229412   1.702   5.767  10.774 -0.0362 -0.6762  0.2942
 2666TIP3    H129413   1.739   5.729  10.695  2.0312  0.9605  0.4015
 2666TIP3    H229414   1.757   5.843  10.793 -4.0276  2.6896 -0.1288
 2667TIP3   OH229415   2.579   1.977  12.279  0.0424 -0.3772 -0.2576
 2667TIP3    H129416   2.617   1.896  12.314  0.9354 -0.0410 -0.4176
 2667TIP3    H229417   2.521   2.008  12.348 -0.0420 -0.9773 -0.0540
 2668TIP3   OH229418   2.466   1.325  14.326  0.4487  0.1844 -0.5251
 2668TIP3    H129419   2.401   1.259  14.300  0.6730 -0.7817  1.2226
 2668TIP3    H229420   2.491   1.367  14.244 -0.6241 -1.0731 -1.5428
 2669TIP3   OH229421   4.822   5.785  13.448  0.2523 -0.1542 -0.1879
 2669TIP3    H129422   4.898   5.797  13.505  1.5709  0.0428 -1.8797
 2669TIP3    H229423   4.770   5.716  13.489  0.4825  0.8296  1.8563
 2670TIP3   OH229424   1.308   0.973  11.836  0.3228 -0.2782 -0.1197
 2670TIP3    H129425   1.353   0.913  11.775  1.2150 -0.4097  0.6463
 2670TIP3    H229426   1.294   1.053  11.785  1.7473 -0.1142 -0.2858
 2671TIP3   OH229427   4.651   2.304  16.062 -0.3163  0.1923 -0.1259
 2671TIP3    H129428   4.639   2.355  15.982  0.6359 -2.0987 -1.8587
 2671TIP3    H229429   4.565   2.264  16.078  0.0869 -1.3801 -1.5848
 2672TIP3   OH229430   4.382   1.567   5.104  0.2373 -0.2451  0.6239
 2672TIP3    H129431   4.383   1.474   5.080 -0.2521  0.2876 -1.7341
 2672TIP3    H229432   4.394   1.613   5.021 -2.0447  1.8595  1.3330
 2673TIP3   OH229433   6.415   2.950   4.733 -0.7850 -0.2060  0.0448
 2673TIP3    H129434   6.470   3.026   4.715 -0.3660 -0.0364  1.8359
 2673TIP3    H229435   6.331   2.987   4.758 -0.0410 -0.1722  2.7767
 2674TIP3   OH229436   1.206   1.774  12.510 -0.0807  0.0513 -0.0364
 2674TIP3    H129437   1.149   1.813  12.576 -1.1152  1.9647 -1.9366
 2674TIP3    H229438   1.287   1.754  12.557 -0.7302  1.3999  1.7838
 2675TIP3   OH229439   6.775   6.244  13.885  0.5667  0.0166 -0.6295
 2675TIP3    H129440   6.742   6.330  13.912 -1.3841 -0.7925 -0.2622
 2675TIP3    H229441   6.819   6.209  13.963  0.2529  0.1613 -0.3862
 2676TIP3   OH229442   4.924   4.599   1.231 -0.1220  0.4998  0.7589
 2676TIP3    H129443   4.988   4.538   1.266  0.1328  1.5315  2.1784
 2676TIP3    H229444   4.897   4.561   1.147  1.2566 -0.6827  0.8231
 2677TIP3   OH229445   5.158   0.823   1.039 -0.3062 -0.8338  0.5441
 2677TIP3    H129446   5.114   0.746   1.074 -0.3149 -1.2259 -0.3013
 2677TIP3    H229447   5.123   0.896   1.090  0.2201 -1.4525  1.8126
 2678TIP3   OH229448   0.281   4.470   4.517 -0.0071  0.0225 -0.1878
 2678TIP3    H129449   0.333   4.433   4.447 -0.3100 -0.4876 -0.1489
 2678TIP3    H229450   0.261   4.396   4.575 -1.9155 -0.0904 -0.9250
 2679TIP3   OH229451   3.086   5.282  12.678  0.0804 -0.0897  0.3387
 2679TIP3    H129452   3.049   5.275  12.766 -0.7410 -1.1875 -0.0718
 2679TIP3    H229453   3.169   5.329  12.691 -0.7328  1.1031  1.4832
 2680TIP3   OH229454   0.271   4.256  13.035 -0.3728  0.0058  0.5095
 2680TIP3    H129455   0.273   4.219  13.123 -1.3301  1.3436  1.1340
 2680TIP3    H229456   0.288   4.349  13.048 -1.4995  0.3979 -0.5882
 2681TIP3   OH229457   5.869   5.794   2.996 -0.0484 -0.0119  0.1691
 2681TIP3    H129458   5.824   5.743   2.929 -0.7028  0.4817  0.2261
 2681TIP3    H229459   5.937   5.841   2.949 -0.0567 -0.2011 -0.0357
 2682TIP3   OH229460   5.411   1.035  11.447 -0.1066 -0.3487 -0.6088
 2682TIP3    H129461   5.459   1.004  11.524  0.4696 -1.9373 -1.5611
 2682TIP3    H229462   5.421   1.130  11.449 -2.6248  0.0665  2.9109
 2683TIP3   OH229463   0.582   2.274  16.241  0.3773  0.0180  0.5562
 2683TIP3    H129464   0.592   2.367  16.262  0.9707  0.2005 -0.4579
 2683TIP3    H229465   0.605   2.228  16.321 -1.1057  0.7647  1.4509
 2684TIP3   OH229466   6.215   5.738  13.455 -0.0618  0.2557 -0.3405
 2684TIP3    H129467   6.270   5.810  13.487  0.2721 -1.2499  2.8389
 2684TIP3    H229468   6.268   5.695  13.388  1.1061  1.0353  0.0497
 2685TIP3   OH229469   1.649   0.369   3.587  0.4632  0.7086  0.4441
 2685TIP3    H129470   1.595   0.374   3.508  0.4327  1.8269  0.5231
 2685TIP3    H229471   1.626   0.285   3.626  0.5834  0.0643 -0.8060
 2686TIP3   OH229472   4.868   4.341   1.686  0.6149  0.0464 -0.0927
 2686TIP3    H129473   4.788   4.299   1.718 -1.8239  2.6510 -2.2371
 2686TIP3    H229474   4.922   4.352   1.764 -1.5935 -0.8746  1.6718
 2687TIP3   OH229475   5.643   5.680   3.659  0.1777 -0.8040 -0.5434
 2687TIP3    H129476   5.597   5.742   3.602  0.3819  1.0267  1.1702
 2687TIP3    H229477   5.577   5.615   3.682 -0.8503  0.3078 -0.2365
 2688TIP3   OH229478   2.322   4.522  12.611  0.1605 -0.3563 -0.4045
 2688TIP3    H129479   2.329   4.602  12.559  0.1208 -0.3590 -0.4137
 2688TIP3    H229480   2.229   4.515  12.631  0.5532  2.0649  3.3857
 2689TIP3   OH229481   5.014   3.796  11.498  0.3325  0.5944  0.2830
 2689TIP3    H129482   4.945   3.760  11.553 -0.1933 -0.1217 -0.7991
 2689TIP3    H229483   4.967   3.833  11.423  1.0621  1.0099  0.0232
 2690TIP3   OH229484   1.410   3.893   4.050  0.0806  0.7009  0.0987
 2690TIP3    H129485   1.489   3.847   4.076  0.1055 -1.8936 -3.7018
 2690TIP3    H229486   1.437   3.984   4.039  1.3777  0.7225  2.8403
 2691TIP3   OH229487   4.691   6.001  13.109  0.0637 -0.2690  0.3389
 2691TIP3    H129488   4.783   6.028  13.116 -0.1000  1.0495 -1.7343
 2691TIP3    H229489   4.691   5.935  13.040 -0.6344  0.3938 -0.3115
 2692TIP3   OH229490   1.381   2.208   3.143  0.0993 -0.1424 -0.4913
 2692TIP3    H129491   1.461   2.193   3.194 -0.6871 -0.9937  0.5509
 2692TIP3    H229492   1.342   2.121   3.134 -1.1540  0.3729 -0.2138
 2693TIP3   OH229493   0.094   1.600   2.171 -0.2575  0.1672 -0.4504
 2693TIP3    H129494   0.013   1.560   2.142 -0.8136  0.4884  0.6280
 2693TIP3    H229495   0.072   1.692   2.186 -0.2678 -0.1401  1.8478
 2694TIP3   OH229496   6.654   4.055  12.730  0.1114  0.2419 -0.1346
 2694TIP3    H129497   6.714   4.103  12.787  1.7497 -1.0661 -0.6673
 2694TIP3    H229498   6.639   4.113  12.656  1.6252  0.2118 -0.5088
 2695TIP3   OH229499   2.617   4.588  11.455  0.0390 -0.5218  0.0975
 2695TIP3    H129500   2.687   4.654  11.451  0.1632 -0.5502  1.3448
 2695TIP3    H229501   2.664   4.505  11.457 -0.0404 -0.5590  0.4832
 2696TIP3   OH229502   3.167   0.243  15.169 -0.1459  0.6601 -0.2904
 2696TIP3    H129503   3.091   0.296  15.191  0.1705  1.5705 -1.3268
 2696TIP3    H229504   3.240   0.304  15.169 -0.1185  0.8053 -3.8037
 2697TIP3   OH229505   4.085   0.788  14.933 -0.5951 -0.3232  0.2539
 2697TIP3    H129506   4.167   0.801  14.979  0.8149 -0.1051 -2.1372
 2697TIP3    H229507   4.042   0.873  14.935 -0.9005 -0.4948  1.7023
 2698TIP3   OH229508   0.729   3.437   1.415 -0.1304  0.3105 -0.2663
 2698TIP3    H129509   0.746   3.431   1.509  0.7159  0.8058 -0.3799
 2698TIP3    H229510   0.713   3.346   1.388  0.5823  0.0444  0.1828
 2699TIP3   OH229511   4.462   2.238   0.479 -1.2480  0.4912  0.0582
 2699TIP3    H129512   4.412   2.303   0.528  1.0713  1.8206  0.8324
 2699TIP3    H229513   4.450   2.263   0.387 -0.0204  2.4318  0.3484
 2700TIP3   OH229514   3.661   4.442   4.466  0.2012 -0.8410 -0.4011
 2700TIP3    H129515   3.719   4.460   4.393 -0.2497 -0.9803 -0.7991
 2700TIP3    H229516   3.656   4.524   4.514 -0.8563 -0.2404 -1.4933
 2701TIP3   OH229517   5.571   1.369  16.896  0.2201  0.2154  0.3434
 2701TIP3    H129518   5.486   1.324  16.899 -0.0077  0.6507  0.5010
 2701TIP3    H229519   5.614   1.343  16.977  0.8109 -1.1028 -0.3666
 2702TIP3   OH229520   5.333   6.676   5.292  0.0609  0.5623  0.2005
 2702TIP3    H129521   5.304   6.652   5.380 -1.5711 -1.7976 -0.9084
 2702TIP3    H229522   5.281   6.752   5.269  1.5218  2.1266  1.7440
 2703TIP3   OH229523   4.539   5.783   1.690  0.1207  0.2468  0.2209
 2703TIP3    H129524   4.604   5.839   1.647 -0.0991  1.1055  0.9834
 2703TIP3    H229525   4.485   5.749   1.618 -0.1747  1.5742 -0.2066
 2704TIP3   OH229526   4.373   2.079   1.093  0.2027 -0.0013  0.3897
 2704TIP3    H129527   4.440   2.013   1.077 -1.4568 -1.4930 -0.7704
 2704TIP3    H229528   4.336   2.056   1.178  0.8263  0.5308  0.8086
 2705TIP3   OH229529   6.572   3.527  14.843  0.3309 -0.1780  0.2572
 2705TIP3    H129530   6.636   3.551  14.910 -0.2636  1.3789  0.3050
 2705TIP3    H229531   6.619   3.537  14.760 -0.1047  2.0463  0.2227
 2706TIP3   OH229532   0.194   0.819  16.124  0.1685  0.3745 -0.2184
 2706TIP3    H129533   0.114   0.857  16.159 -0.0367  1.6798 -1.9437
 2706TIP3    H229534   0.263   0.849  16.182 -0.1475  2.5325 -0.8839
 2707TIP3   OH229535   4.387   3.545   2.851 -0.0252  0.0036 -0.1947
 2707TIP3    H129536   4.470   3.510   2.882  0.4735  1.6459  0.4104
 2707TIP3    H229537   4.406   3.577   2.763  0.1358  0.8640  0.1458
 2708TIP3   OH229538   1.024   5.438  16.247  0.1720 -0.1778 -0.2279
 2708TIP3    H129539   0.992   5.515  16.200 -1.7613 -0.2850  0.7993
 2708TIP3    H229540   0.948   5.380  16.254 -0.3282  0.6056  4.5449
 2709TIP3   OH229541   3.458   5.637  13.048  0.2604 -0.2452 -0.1596
 2709TIP3    H129542   3.502   5.591  12.977 -1.3589  1.5108 -2.4600
 2709TIP3    H229543   3.525   5.694  13.085  0.9817 -0.7252 -0.7011
 2710TIP3   OH229544   6.584   0.137  12.005 -0.1671  0.1680 -0.4952
 2710TIP3    H129545   6.551   0.076  11.939  1.9824 -1.3825 -0.2536
 2710TIP3    H229546   6.626   0.081  12.070  0.8640  1.8596  0.3587
 2711TIP3   OH229547   5.519   0.451   5.732  0.1308 -0.2051 -0.0868
 2711TIP3    H129548   5.573   0.372   5.726 -0.6205 -0.9185  1.6259
 2711TIP3    H229549   5.509   0.481   5.642  3.6848  0.2243 -0.4805
 2712TIP3   OH229550   3.282   1.788  14.448  0.5519  0.0748 -0.0305
 2712TIP3    H129551   3.300   1.710  14.500  1.3030 -0.8448 -1.6057
 2712TIP3    H229552   3.364   1.807  14.404 -0.1324  0.6506 -1.1067
 2713TIP3   OH229553   3.954   5.816  11.158 -0.3232 -0.1472  0.1108
 2713TIP3    H129554   3.972   5.850  11.070 -2.1595 -1.1779 -0.7036
 2713TIP3    H229555   4.001   5.733  11.162 -0.4267 -0.2089  0.0310
 2714TIP3   OH229556   6.404   3.647  15.900  0.1726 -0.3231 -0.0846
 2714TIP3    H129557   6.324   3.632  15.951 -0.0355 -1.0445 -0.6125
 2714TIP3    H229558   6.404   3.578  15.834 -0.6473  1.7689 -2.4025
 2715TIP3   OH229559   6.169   0.667  15.622 -0.0477  0.5679 -0.2162
 2715TIP3    H129560   6.091   0.668  15.567 -0.0939  0.8523 -0.1460
 2715TIP3    H229561   6.191   0.759  15.634  0.1081  0.4976  0.0351
 2716TIP3   OH229562   1.892   0.409  15.115 -0.2181  0.3589 -0.3553
 2716TIP3    H129563   1.936   0.421  15.199  0.9499 -0.0533 -0.8922
 2716TIP3    H229564   1.960   0.422  15.050 -1.0365  0.3461 -1.2435
 2717TIP3   OH229565   3.516   4.373  15.605  0.2535 -0.1116  0.3836
 2717TIP3    H129566   3.526   4.452  15.553 -2.6427 -0.5207 -0.9815
 2717TIP3    H229567   3.581   4.312  15.570  1.7184  1.2231  0.6723
 2718TIP3   OH229568   2.398   3.527  11.492  0.3302 -0.4313  0.0189
 2718TIP3    H129569   2.410   3.599  11.430  0.3406 -1.8025 -1.6259
 2718TIP3    H229570   2.326   3.556  11.548 -0.4695  0.3774 -1.3715
 2719TIP3   OH229571   5.622   0.313   3.998  0.4034  0.0437 -0.5380
 2719TIP3    H129572   5.617   0.288   4.090 -0.4265 -0.6572 -0.7628
 2719TIP3    H229573   5.559   0.384   3.989 -1.2310 -1.3963 -1.0186
 2720TIP3   OH229574   4.556   1.582  15.782  0.1398 -0.0980 -0.5878
 2720TIP3    H129575   4.520   1.648  15.841 -0.7198 -1.3284  0.3294
 2720TIP3    H229576   4.642   1.616  15.757  0.4125  0.6050  1.1585
 2721TIP3   OH229577   4.411   2.845  12.677 -0.7829 -0.0954 -0.3814
 2721TIP3    H129578   4.425   2.818  12.586  0.1948 -0.7878 -0.0491
 2721TIP3    H229579   4.334   2.901  12.674 -0.2202  0.6729 -1.7852
 2722TIP3   OH229580   2.395   4.629   0.701  0.1546  0.2981 -0.7251
 2722TIP3    H129581   2.461   4.663   0.641  0.5829 -0.7694 -0.8837
 2722TIP3    H229582   2.363   4.706   0.747  1.4985  0.8542 -0.6646
 2723TIP3   OH229583   3.220   3.216  15.209 -0.4262 -0.0572  0.1247
 2723TIP3    H129584   3.207   3.219  15.114  0.8395  0.9646 -0.0407
 2723TIP3    H229585   3.222   3.123  15.230  1.3287 -0.3526 -1.1809
 2724TIP3   OH229586   6.003   5.061  16.970 -0.3036  0.1011 -0.0838
 2724TIP3    H129587   5.944   4.985  16.965  0.1803 -0.1928 -1.8758
 2724TIP3    H229588   6.091   5.022  16.976 -0.0720  0.5263 -0.6960
 2725TIP3   OH229589   3.993   4.816   5.113 -0.4067 -0.0677 -0.5496
 2725TIP3    H129590   3.926   4.779   5.172 -0.1732 -0.8005 -0.7309
 2725TIP3    H229591   3.971   4.909   5.108  0.2205  0.2550  1.5895
 2726TIP3   OH229592   5.947   3.944  15.703 -0.0494  0.1396 -0.6266
 2726TIP3    H129593   5.996   3.897  15.770  2.6234 -0.6946 -2.9727
 2726TIP3    H229594   5.989   4.030  15.698 -0.8504  0.5431 -0.6136
 2727TIP3   OH229595   4.795   6.011  14.621 -0.1332  0.5934  0.8692
 2727TIP3    H129596   4.783   6.025  14.528  0.7916  1.7603  0.9068
 2727TIP3    H229597   4.712   6.039  14.660 -0.3826  0.4566  0.4474
 2728TIP3   OH229598   2.590   6.690   0.369  0.3378 -0.3904  0.2123
 2728TIP3    H129599   2.615   6.770   0.323 -2.5562  0.3844 -0.2394
 2728TIP3    H229600   2.593   6.714   0.462 -2.5698  1.1057  0.0531
 2729TIP3   OH229601   3.837   2.029   5.478 -0.0883  0.3044  0.1551
 2729TIP3    H129602   3.755   2.000   5.438  0.7934 -0.6876 -0.9959
 2729TIP3    H229603   3.837   1.989   5.565 -2.3087  2.9596  1.5342
 2730TIP3   OH229604   5.927   5.311   0.727  0.2822 -0.4839 -0.6929
 2730TIP3    H129605   6.012   5.269   0.716 -0.1052 -1.0972 -1.4317
 2730TIP3    H229606   5.894   5.322   0.638  0.2811  1.2250 -0.5080
 2731TIP3   OH229607   0.172   6.165   6.433 -0.0830  0.3545 -0.2324
 2731TIP3    H129608   0.199   6.077   6.458  0.2843  1.1856  2.5951
 2731TIP3    H229609   0.079   6.155   6.410 -0.7124 -0.4397  2.3472
 2732TIP3   OH229610   1.281   6.284   3.344 -0.1860  0.1164  0.5331
 2732TIP3    H129611   1.348   6.257   3.281 -0.2686 -0.3415  0.6353
 2732TIP3    H229612   1.327   6.339   3.406 -0.2557  1.2043 -0.3484
 2733TIP3   OH229613   1.214   6.759  15.411 -0.0389 -0.6122 -0.0856
 2733TIP3    H129614   1.121   6.754  15.434  0.4499  0.6160  2.6267
 2733TIP3    H229615   1.220   6.835  15.353 -0.7901 -0.9661 -0.6365
 2734TIP3   OH229616   5.677   4.190  14.575 -0.1740  0.2701 -0.1799
 2734TIP3    H129617   5.714   4.243  14.504  1.6643  0.9107  1.1724
 2734TIP3    H229618   5.753   4.144  14.613 -1.4974 -2.2284 -0.3506
 2735TIP3   OH229619   4.239   3.257   5.416 -0.2481 -0.6433 -0.3500
 2735TIP3    H129620   4.300   3.287   5.348  1.4911  0.0907  1.4112
 2735TIP3    H229621   4.281   3.179   5.452 -0.3199 -0.1282  0.8970
 2736TIP3   OH229622   1.921   2.780   0.777 -0.2444  0.1398  0.3612
 2736TIP3    H129623   1.948   2.692   0.750  0.2976  0.0244  1.2294
 2736TIP3    H229624   1.959   2.791   0.864 -0.1940  1.2837  0.2145
 2737TIP3   OH229625   6.471   4.968  12.068 -0.2588  0.3702  0.3495
 2737TIP3    H129626   6.451   5.008  11.983 -1.9865  1.0465  1.0243
 2737TIP3    H229627   6.480   5.043  12.128  2.7186  0.0063  0.4740
 2738TIP3   OH229628   0.942   5.620  15.972  0.2025 -0.4088 -0.3391
 2738TIP3    H129629   0.926   5.582  15.886  1.3257 -0.6231 -0.4732
 2738TIP3    H229630   1.037   5.635  15.974 -0.0997  1.8329 -0.0677
 2739TIP3   OH229631   2.458   5.722  15.042  0.1289  0.0932 -0.1882
 2739TIP3    H129632   2.443   5.783  15.115 -2.6243  0.7049 -1.1098
 2739TIP3    H229633   2.503   5.648  15.082 -0.6190  0.7160  1.9984
 2740TIP3   OH229634   3.091   3.178  17.124 -0.8125 -0.0835  0.3447
 2740TIP3    H129635   2.999   3.154  17.110 -0.6869 -1.6105  1.7875
 2740TIP3    H229636   3.094   3.206  17.216  0.2596 -0.5522  0.4599
 2741TIP3   OH229637   3.772   5.347  14.442 -0.6202  0.0316 -0.2275
 2741TIP3    H129638   3.866   5.350  14.460 -1.0833  2.1262  2.5901
 2741TIP3    H229639   3.742   5.267  14.485 -0.5053  0.9878  1.7618
 2742TIP3   OH229640   3.130   4.622  11.546  0.3107  1.0222  0.3117
 2742TIP3    H129641   3.152   4.662  11.630 -0.9664  1.6821  0.3547
 2742TIP3    H229642   3.036   4.640  11.535  0.4524  0.9114 -1.2319
 2743TIP3   OH229643   0.465   0.733  13.826 -0.3369  0.2030 -0.5599
 2743TIP3    H129644   0.435   0.712  13.914  2.4954 -0.9716  0.2521
 2743TIP3    H229645   0.448   0.655  13.775 -1.3874  0.6525 -0.9252
 2744TIP3   OH229646   0.628   4.652  15.426  0.2417 -0.0842 -0.2561
 2744TIP3    H129647   0.673   4.629  15.507  0.2282 -0.9666 -0.4810
 2744TIP3    H229648   0.691   4.706  15.378  0.7703 -0.6707 -0.2337
 2745TIP3   OH229649   6.443   3.224  12.678  0.3441 -0.0790 -0.3817
 2745TIP3    H129650   6.403   3.292  12.623 -0.4914 -1.3794 -1.4505
 2745TIP3    H229651   6.497   3.272  12.740  0.5633  1.5099 -1.7319
 2746TIP3   OH229652   1.450   5.497  14.043  0.2552  0.5438 -0.1691
 2746TIP3    H129653   1.468   5.404  14.054  1.6800  0.7504 -0.6253
 2746TIP3    H229654   1.484   5.538  14.122 -0.2027  0.7079 -0.0525
 2747TIP3   OH229655   0.915   1.544  14.653 -0.2577  0.5413 -0.3167
 2747TIP3    H129656   0.919   1.619  14.713 -0.5066 -0.7857  1.4428
 2747TIP3    H229657   0.826   1.544  14.620  0.1677  1.8928 -1.5592
 2748TIP3   OH229658   6.256   2.430   5.195 -0.4144 -0.1356 -0.1774
 2748TIP3    H129659   6.345   2.464   5.204 -0.4319 -0.0883 -0.1801
 2748TIP3    H229660   6.265   2.356   5.135 -0.3440 -0.2668 -0.0043
 2749TIP3   OH229661   6.491   5.653  15.522 -0.6857  0.4238 -0.4111
 2749TIP3    H129662   6.506   5.659  15.617 -1.5363 -0.6305 -0.1997
 2749TIP3    H229663   6.542   5.726  15.486 -0.5578  1.0015  0.8745
 2750TIP3   OH229664   0.654   2.661  12.841  0.5207  0.2856  0.1424
 2750TIP3    H129665   0.578   2.706  12.804  0.2084  0.2535  0.7206
 2750TIP3    H229666   0.702   2.729  12.887  0.4801  0.1802  0.3419
 2751TIP3   OH229667   2.193   5.511   2.573 -0.0332  0.3006 -0.1868
 2751TIP3    H129668   2.223   5.562   2.498  3.3012  0.1297  0.8645
 2751TIP3    H229669   2.167   5.427   2.536  2.5961 -0.1861 -1.1589
 2752TIP3   OH229670   1.861   3.932  16.442  0.3513  0.5038  0.3057
 2752TIP3    H129671   1.820   4.000  16.387 -0.4277 -1.3063 -1.4956
 2752TIP3    H229672   1.955   3.944  16.428  0.1749  0.0515 -1.5545
 2753TIP3   OH229673   3.084   5.634   1.809  0.0040  0.0358 -0.5274
 2753TIP3    H129674   3.119   5.547   1.788 -0.1255 -0.3405  0.7360
 2753TIP3    H229675   3.001   5.638   1.761 -0.1427 -0.6756 -0.3449
 2754TIP3   OH229676   3.187   4.250   3.362 -0.1210  0.6311 -0.4570
 2754TIP3    H129677   3.164   4.178   3.420  0.3976  0.7726 -0.0631
 2754TIP3    H229678   3.205   4.323   3.420 -0.5266  1.0501 -0.8495
 2755TIP3   OH229679   4.158   2.744   1.619 -0.4307  0.2772 -0.3453
 2755TIP3    H129680   4.097   2.764   1.690  1.1293  0.2491  1.0716
 2755TIP3    H229681   4.240   2.720   1.663  0.4248 -0.3715 -2.1477
 2756TIP3   OH229682   2.647   4.236  11.134  0.1841 -0.4675 -0.3201
 2756TIP3    H129683   2.635   4.290  11.056 -1.1332 -0.0547  0.1515
 2756TIP3    H229684   2.655   4.300  11.206 -1.8553 -0.8469  0.3106
 2757TIP3   OH229685   2.444   1.680   2.023  0.4299 -0.0918  0.8210
 2757TIP3    H129686   2.413   1.770   2.020  2.2981  0.5692 -0.2433
 2757TIP3    H229687   2.395   1.635   1.955 -0.5423  0.0806  1.3864
 2758TIP3   OH229688   3.501   6.788   1.987 -0.1502 -0.4414 -0.2813
 2758TIP3    H129689   3.547   6.871   1.975 -1.5962  0.2506 -1.5006
 2758TIP3    H229690   3.487   6.756   1.897 -3.7270  0.4284 -0.2125
 2759TIP3   OH229691   2.442   3.805   5.522  0.1573  0.1856 -0.0293
 2759TIP3    H129692   2.360   3.757   5.513 -0.1289  0.0726  2.5399
 2759TIP3    H229693   2.451   3.819   5.616  3.4091 -0.3438 -0.1690
 2760TIP3   OH229694   3.142   2.884  12.510 -0.5353  0.4934  0.6130
 2760TIP3    H129695   3.170   2.868  12.421 -2.0547 -1.6632  0.4349
 2760TIP3    H229696   3.077   2.954  12.503 -0.8140  0.1765 -0.0277
 2761TIP3   OH229697   0.289   4.825  13.885  0.7122  0.6184 -0.1829
 2761TIP3    H129698   0.254   4.820  13.796  1.1037 -1.1812 -0.2634
 2761TIP3    H229699   0.252   4.750  13.930 -0.2447  2.0321  1.4997
 2762TIP3   OH229700   0.872   5.089   1.227 -0.3582  0.0896  0.3775
 2762TIP3    H129701   0.860   5.019   1.291  0.0157  1.1482  1.6604
 2762TIP3    H229702   0.909   5.161   1.277 -0.1304  0.9996 -1.0321
 2763TIP3   OH229703   3.961   3.943  17.131 -0.0019  0.4484  0.0802
 2763TIP3    H129704   3.867   3.959  17.121 -0.2918 -1.0562  0.2943
 2763TIP3    H229705   3.998   3.962  17.044 -0.3814  1.7368  0.1806
 2764TIP3   OH229706   0.792   1.995   4.389 -0.4575 -0.2526  0.3959
 2764TIP3    H129707   0.873   2.044   4.402 -0.9504  0.9587 -0.8081
 2764TIP3    H229708   0.818   1.903   4.389  0.8228  0.0979  0.5478
 2765TIP3   OH229709   3.090   5.330  16.595 -0.0669 -0.1621 -0.1010
 2765TIP3    H129710   3.066   5.269  16.665  1.6509 -0.6080  0.1397
 2765TIP3    H229711   3.031   5.308  16.523 -0.3071 -1.2618  0.4119
 2766TIP3   OH229712   5.146   2.251   3.000  0.4748 -0.5924  0.5456
 2766TIP3    H129713   5.159   2.218   2.911 -2.3163  1.8271 -0.9526
 2766TIP3    H229714   5.198   2.332   3.004  1.3021 -1.1464  1.4787
 2767TIP3   OH229715   5.823   2.720   2.906  0.4016 -0.8898 -0.4637
 2767TIP3    H129716   5.766   2.660   2.857 -1.8729  1.3464 -0.7875
 2767TIP3    H229717   5.763   2.787   2.939  2.2095 -0.8732  3.2581
 2768TIP3   OH229718   2.420   6.691  13.943  0.0956 -0.3661 -0.2360
 2768TIP3    H129719   2.504   6.717  13.982  0.0006 -0.1993 -0.1431
 2768TIP3    H229720   2.393   6.614  13.993 -1.4298  1.4768  1.9755
 2769TIP3   OH229721   0.359   3.203   3.772 -0.1695 -0.4887 -0.1236
 2769TIP3    H129722   0.322   3.291   3.766  1.2491  0.2802  1.4867
 2769TIP3    H229723   0.404   3.190   3.689 -1.4663 -0.2567 -0.9025
 2770TIP3   OH229724   5.121   1.954  15.613 -0.1441  0.0007 -0.2130
 2770TIP3    H129725   5.034   1.973  15.577  0.3752 -0.5177 -1.8226
 2770TIP3    H229726   5.179   1.957  15.538  1.5274  1.8747  1.0541
 2771TIP3   OH229727   1.702   5.558  13.860  0.4776 -0.1753 -0.4265
 2771TIP3    H129728   1.726   5.641  13.901  1.3793 -0.5641 -0.1255
 2771TIP3    H229729   1.647   5.514  13.924  1.3074 -0.4781  0.0970
 2772TIP3   OH229730   2.125   4.097   6.707  0.2410  0.4158  0.3816
 2772TIP3    H129731   2.112   4.179   6.660  0.7760 -0.1938 -0.8684
 2772TIP3    H229732   2.037   4.072   6.737 -0.1204  0.7748 -0.3649
 2773TIP3   OH229733   2.540   6.307   2.725 -0.0253 -0.2290 -0.1003
 2773TIP3    H129734   2.545   6.219   2.761 -0.9917 -0.7971 -1.3015
 2773TIP3    H229735   2.462   6.345   2.764 -2.1085 -1.4650 -2.7589
 2774TIP3   OH229736   0.269   2.043  13.680 -0.0002  0.1106  0.1675
 2774TIP3    H129737   0.212   1.972  13.708 -0.1257  0.4111  0.6972
 2774TIP3    H229738   0.345   2.037  13.738  1.0096 -0.9258 -1.1921
 2775TIP3   OH229739   2.662   2.171  13.181 -0.5037 -0.2459 -0.2675
 2775TIP3    H129740   2.615   2.195  13.101  0.9744 -2.7454 -2.0647
 2775TIP3    H229741   2.727   2.241  13.191  0.6628 -0.8665 -2.5835
 2776TIP3   OH229742   1.712   2.928   5.469  0.1321 -0.5438 -0.8313
 2776TIP3    H129743   1.722   2.867   5.396  0.9043 -0.9072 -0.4305
 2776TIP3    H229744   1.796   2.926   5.514  0.3301  1.1380 -1.0473
 2777TIP3   OH229745   0.724   0.092  15.613 -0.4700  0.5727 -0.0469
 2777TIP3    H129746   0.642   0.133  15.586  0.8512  2.7855 -1.0134
 2777TIP3    H229747   0.783   0.107  15.539  0.8968 -0.7282  0.7190
 2778TIP3   OH229748   2.672   3.380   1.471  0.4168  0.4851 -0.0379
 2778TIP3    H129749   2.582   3.407   1.490  0.5901  0.1604  1.3211
 2778TIP3    H229750   2.696   3.431   1.394 -0.3538  1.8581  0.5927
 2779TIP3   OH229751   6.379   5.576   4.914  0.2205  0.5722 -0.1006
 2779TIP3    H129752   6.412   5.494   4.951 -0.0204  0.7119  0.4356
 2779TIP3    H229753   6.395   5.641   4.983  1.4077  1.2024 -0.9283
 2780TIP3   OH229754   5.014   3.536  13.438  0.2840 -0.7131 -0.2080
 2780TIP3    H129755   5.048   3.457  13.397  2.0772  0.4695 -1.0929
 2780TIP3    H229756   4.920   3.534  13.419  0.6889 -1.3526 -2.4695
 2781TIP3   OH229757   2.903   1.146   2.264 -0.1783 -0.4729 -0.1795
 2781TIP3    H129758   2.968   1.096   2.314  0.7492  1.3493  0.5268
 2781TIP3    H229759   2.950   1.171   2.184 -0.1954  0.3170  0.0494
 2782TIP3   OH229760   4.249   5.016   1.908  1.0506 -0.5884  0.6418
 2782TIP3    H129761   4.219   5.105   1.885  1.2742 -0.5193  0.6165
 2782TIP3    H229762   4.223   5.006   2.000 -0.5252 -1.1457  0.1755
 2783TIP3   OH229763   4.279   2.727   5.063 -0.3229 -0.3457  0.0430
 2783TIP3    H129764   4.252   2.686   5.145  0.4103 -0.7312  0.0946
 2783TIP3    H229765   4.197   2.753   5.022 -0.7091 -0.2591  0.8380
 2784TIP3   OH229766   2.152   0.813   4.446 -0.4034 -0.0226 -0.3499
 2784TIP3    H129767   2.084   0.748   4.429 -1.0613  0.7173 -0.5790
 2784TIP3    H229768   2.106   0.897   4.445  0.7455  0.6169 -1.9388
 2785TIP3   OH229769   2.211   0.250   3.605 -0.6650 -0.1617  0.7295
 2785TIP3    H129770   2.212   0.189   3.679 -0.7411 -1.0916 -0.0150
 2785TIP3    H229771   2.169   0.328   3.639 -0.2986 -0.4158  1.7925
 2786TIP3   OH229772   5.112   3.906  12.495 -0.1413 -0.3331 -0.1605
 2786TIP3    H129773   5.082   3.830  12.545  1.4050 -1.5557 -1.0077
 2786TIP3    H229774   5.103   3.879  12.403 -0.0771  0.7227 -0.4907
 2787TIP3   OH229775   3.902   3.028  12.397 -0.3106 -0.5161 -0.1528
 2787TIP3    H129776   3.896   2.942  12.356  2.0284 -0.5696 -0.5208
 2787TIP3    H229777   3.932   3.010  12.486 -0.2869 -0.1133 -0.0779
 2788TIP3   OH229778   5.857   2.986   3.225 -0.0563  0.5631 -0.6669
 2788TIP3    H129779   5.777   2.933   3.224  1.0312 -1.1677 -1.0443
 2788TIP3    H229780   5.873   3.007   3.133  0.0482  0.6860 -0.6203
 2789TIP3   OH229781   6.216   2.072   4.254  0.3933  0.2977  0.2853
 2789TIP3    H129782   6.139   2.054   4.199 -0.0098  1.5022  0.4221
 2789TIP3    H229783   6.290   2.068   4.194  0.2152 -0.6123  0.0995
 2790TIP3   OH229784   2.073   3.436   3.271  0.2864 -0.4398  0.5634
 2790TIP3    H129785   2.050   3.420   3.363  0.3727 -0.1427  0.6379
 2790TIP3    H229786   1.990   3.460   3.230  0.2236 -0.7072  0.5344
 2791TIP3   OH229787   5.846   5.154  15.904 -0.3351 -0.3713 -0.3359
 2791TIP3    H129788   5.864   5.242  15.936 -2.9509 -0.6680  2.3612
 2791TIP3    H229789   5.882   5.096  15.971 -0.8194 -1.2681 -0.8283
 2792TIP3   OH229790   1.253   4.756  11.860  0.4025 -0.4743 -0.0545
 2792TIP3    H129791   1.213   4.670  11.852 -0.3155 -0.1765  0.1414
 2792TIP3    H229792   1.207   4.810  11.795  0.6827 -0.1871 -0.0174
 2793TIP3   OH229793   0.017   3.687   3.917 -0.1996 -0.4176  0.0797
 2793TIP3    H129794   0.044   3.771   3.955  1.2896  0.3226 -2.3669
 2793TIP3    H229795  -0.074   3.677   3.942 -0.1531  1.4762  1.1972
 2794TIP3   OH229796   2.485   4.944  12.397  0.1006  0.6031  0.0494
 2794TIP3    H129797   2.546   5.017  12.406 -0.0276  0.6832  0.2852
 2794TIP3    H229798   2.528   4.870  12.440  0.6792  0.2640 -1.0778
 2795TIP3   OH229799   0.024   3.371   1.463 -0.0281  0.3526 -0.2881
 2795TIP3    H129800  -0.043   3.382   1.532  0.2075  1.2495 -0.1960
 2795TIP3    H229801  -0.023   3.328   1.392 -0.7919  1.2155 -0.3306
 2796TIP3   OH229802   4.952   5.804   1.518  0.5337 -0.4830 -0.5282
 2796TIP3    H129803   5.012   5.790   1.592 -0.8832 -2.3937  0.3339
 2796TIP3    H229804   4.964   5.727   1.463 -0.5750 -0.5012 -0.7517
 2797TIP3   OH229805   1.531   1.853  15.104 -0.4177  0.0090 -0.2967
 2797TIP3    H129806   1.519   1.937  15.060 -1.5210 -0.0221 -0.0867
 2797TIP3    H229807   1.489   1.789  15.048 -0.4505 -0.2632  0.0302
 2798TIP3   OH229808   2.703   3.719  13.863 -0.6053 -0.0347 -0.4714
 2798TIP3    H129809   2.795   3.725  13.837 -0.8915  2.1937 -1.1232
 2798TIP3    H229810   2.704   3.667  13.943  1.1852 -0.2064 -0.5772
 2799TIP3   OH229811   6.764   3.272  16.304  0.1307  0.0315 -0.8012
 2799TIP3    H129812   6.748   3.181  16.328  0.4938  0.3513  0.7208
 2799TIP3    H229813   6.858   3.275  16.285  0.3794  0.3540  0.4300
 2800TIP3   OH229814   0.226   2.936  12.401  0.2819  0.2049 -0.1493
 2800TIP3    H129815   0.194   3.027  12.400  1.0907  0.5021 -0.8087
 2800TIP3    H229816   0.249   2.920  12.492  1.4561  1.1678 -0.2502
 2801TIP3   OH229817   3.998   6.640   0.079  0.1111  0.2127 -0.2493
 2801TIP3    H129818   4.058   6.571   0.107  0.4271  1.5086  2.5584
 2801TIP3    H229819   3.920   6.593   0.048  0.7265 -1.4126  0.5694
 2802TIP3   OH229820   0.592   2.358  15.003 -0.6019  0.3810  0.3026
 2802TIP3    H129821   0.643   2.333  15.080 -0.1596  0.3374  0.0015
 2802TIP3    H229822   0.551   2.441  15.027  1.4658  1.6522 -0.2426
 2803TIP3   OH229823   6.240   3.381  14.632 -0.0254  0.0972  0.4667
 2803TIP3    H129824   6.270   3.455  14.580 -0.3718  1.0511  1.5844
 2803TIP3    H229825   6.207   3.318  14.568 -0.6479  1.3406 -0.4642
 2804TIP3   OH229826   4.889   2.829  15.210 -0.2188  0.6750  0.0989
 2804TIP3    H129827   4.806   2.835  15.257 -0.1426 -0.2335  0.3873
 2804TIP3    H229828   4.942   2.900  15.245 -0.5512  0.6829  0.5985
 2805TIP3   OH229829   3.574   1.012   2.514 -0.3061  0.2596 -0.0263
 2805TIP3    H129830   3.592   1.041   2.604 -0.0979  1.4453 -0.4329
 2805TIP3    H229831   3.654   0.965   2.488 -0.8456 -1.1910  0.8160
 2806TIP3   OH229832   4.448   4.882  12.507  0.1982 -0.4275 -0.8320
 2806TIP3    H129833   4.496   4.965  12.513  2.2729 -1.6243  0.3210
 2806TIP3    H229834   4.445   4.849  12.597 -0.1126 -1.8419 -1.3356
 2807TIP3   OH229835   5.537   2.850  12.482 -0.4320 -0.1981 -0.0628
 2807TIP3    H129836   5.512   2.940  12.459  3.2090  1.4686  1.7268
 2807TIP3    H229837   5.519   2.843  12.576  1.8451 -0.2978  0.4063
 2808TIP3   OH229838   3.629   6.589  12.651 -0.2495 -0.3339  0.3019
 2808TIP3    H129839   3.713   6.598  12.605 -1.2897 -2.1463 -2.1938
 2808TIP3    H229840   3.597   6.679  12.660  1.2896  0.2799 -0.0207
 2809TIP3   OH229841   5.844   6.025   2.338  0.4460 -0.1355 -0.0341
 2809TIP3    H129842   5.828   5.966   2.265 -0.3015 -1.1927  0.9498
 2809TIP3    H229843   5.867   5.967   2.411  0.1931  0.8169  0.8263
 2810TIP3   OH229844   0.190   5.316   4.248 -0.0401 -0.1427 -0.1537
 2810TIP3    H129845   0.240   5.375   4.304 -1.3113  1.1339 -0.3097
 2810TIP3    H229846   0.114   5.367   4.221 -0.2356 -1.2341 -1.8161
 2811TIP3   OH229847   0.937   1.176   1.869 -0.3622 -0.0779 -0.2297
 2811TIP3    H129848   0.898   1.257   1.901  1.9475  0.5369  1.2729
 2811TIP3    H229849   0.951   1.123   1.948 -0.0523 -1.1115 -0.9584
 2812TIP3   OH229850   4.218   2.144  11.590  0.2811 -0.0418  0.4063
 2812TIP3    H129851   4.281   2.098  11.536 -0.1530  0.6607 -0.7276
 2812TIP3    H229852   4.212   2.231  11.552  0.2690  0.6098  1.8466
 2813TIP3   OH229853   1.240   5.847   3.824 -0.4176 -0.5348 -0.2026
 2813TIP3    H129854   1.165   5.804   3.780  0.3157 -0.7667 -1.2794
 2813TIP3    H229855   1.200   5.902   3.891 -1.5358 -0.9957 -0.4593
 2814TIP3   OH229856   4.089   6.228  12.311  0.3749  0.7718  0.2658
 2814TIP3    H129857   4.033   6.247  12.235 -0.3046 -0.6262  0.3707
 2814TIP3    H229858   4.068   6.137  12.333  0.4524  1.1915  2.2214
 2815TIP3   OH229859   3.920   2.815  11.004  0.5204  0.7088  0.0580
 2815TIP3    H129860   3.975   2.883  10.965  1.6222 -0.3700 -0.3378
 2815TIP3    H229861   3.840   2.861  11.030  0.6233  1.8794 -1.5206
 2816TIP3   OH229862   2.994   0.565   4.276  0.4398  0.1080 -0.0044
 2816TIP3    H129863   3.022   0.488   4.227 -0.6524  0.0073 -0.4803
 2816TIP3    H229864   3.045   0.637   4.239 -0.2140 -0.0032 -1.1397
 2817TIP3   OH229865   5.131   6.354  12.791  0.1113  0.4150 -0.1451
 2817TIP3    H129866   5.121   6.261  12.768  2.6230  0.1337 -0.3923
 2817TIP3    H229867   5.041   6.387  12.798 -0.8387 -1.8731 -0.6729
 2818TIP3   OH229868   1.105   2.769  14.270 -0.3151  0.6721  0.1607
 2818TIP3    H129869   1.165   2.820  14.216 -1.4071 -0.0884 -1.8783
 2818TIP3    H229870   1.046   2.834  14.308 -0.6867  1.1058 -1.1047
 2819TIP3   OH229871   2.662   4.071   0.975  0.7896  0.4533 -0.1501
 2819TIP3    H129872   2.686   4.121   0.898 -0.5985  1.1743 -0.1423
 2819TIP3    H229873   2.589   4.016   0.947  0.9667 -0.0706  0.3835
 2820TIP3   OH229874   2.698   6.287  11.341 -0.1731 -0.3762  0.2821
 2820TIP3    H129875   2.667   6.198  11.360  0.0267 -0.4334  0.3513
 2820TIP3    H229876   2.709   6.327  11.428 -0.5502 -0.1808  0.2440
 2821TIP3   OH229877   3.004   1.606  16.938 -0.3823 -0.8204  0.0219
 2821TIP3    H129878   3.017   1.567  16.852 -3.6273 -1.1282 -0.4405
 2821TIP3    H229879   2.996   1.700  16.921  1.4024 -0.5516  0.3880
 2822TIP3   OH229880   0.877   5.568   3.434  0.3150 -0.1570  0.2159
 2822TIP3    H129881   0.880   5.527   3.348  1.5197 -0.9322  0.5942
 2822TIP3    H229882   0.936   5.643   3.427  0.0925  0.0220  0.2485
 2823TIP3   OH229883   3.721   5.520   0.481  0.0352  0.3395 -0.3867
 2823TIP3    H129884   3.637   5.532   0.438  0.2184 -1.3255 -1.2934
 2823TIP3    H229885   3.772   5.466   0.420 -0.5033 -4.2202  2.6543
 2824TIP3   OH229886   4.442   6.219   4.514 -0.4903  0.2053 -0.0659
 2824TIP3    H129887   4.435   6.182   4.426 -2.1660 -0.1659  0.2031
 2824TIP3    H229888   4.365   6.187   4.560 -0.1449  1.1925  1.2494
 2825TIP3   OH229889   6.289   5.138  13.030  0.1199  0.0381 -0.3030
 2825TIP3    H129890   6.327   5.200  13.091 -1.4277 -0.1011  0.8774
 2825TIP3    H229891   6.353   5.067  13.025 -0.6863 -1.1157  3.1188
 2826TIP3   OH229892   3.669   4.426   5.414 -0.5355  0.0494  0.3199
 2826TIP3    H129893   3.684   4.411   5.321 -1.1342  1.0864  0.0430
 2826TIP3    H229894   3.651   4.339   5.450  0.3437 -0.4505 -0.3977
 2827TIP3   OH229895   2.195   5.809  15.745 -0.3295 -0.2037  0.4980
 2827TIP3    H129896   2.146   5.736  15.707 -1.8265  1.6734 -1.4344
 2827TIP3    H229897   2.144   5.837  15.820 -1.4069  0.6904 -0.5319
 2828TIP3   OH229898   5.471   3.344   0.368  0.6979  0.3960  0.0041
 2828TIP3    H129899   5.518   3.423   0.397  1.3480 -0.0805  0.2749
 2828TIP3    H229900   5.540   3.284   0.341  0.2213 -0.1983  0.0989
 2829TIP3   OH229901   6.416   3.742   3.576 -0.4356 -0.3644 -0.2671
 2829TIP3    H129902   6.325   3.742   3.545 -1.0327 -1.7531  1.3413
 2829TIP3    H229903   6.430   3.654   3.609  1.5583 -0.2006 -0.5621
 2830TIP3   OH229904   5.008   6.245   0.016  0.1299 -0.0335 -0.3455
 2830TIP3    H129905   5.005   6.326   0.067 -1.3574 -0.3081  0.0750
 2830TIP3    H229906   4.916   6.217   0.012  0.7498 -2.4301  0.7138
 2831TIP3   OH229907   4.004   0.885   5.520 -0.5215 -0.1547 -0.3139
 2831TIP3    H129908   3.991   0.973   5.484 -1.7024 -0.0864  0.2229
 2831TIP3    H229909   4.081   0.892   5.576 -0.8618  0.6598  0.0702
 2832TIP3   OH229910   4.124   1.694   2.136 -0.4440  0.7642  0.8397
 2832TIP3    H129911   4.115   1.679   2.042  0.5932  1.4160  0.6115
 2832TIP3    H229912   4.211   1.659   2.158 -0.3982  1.2210  1.4159
 2833TIP3   OH229913   4.932   1.573   0.857 -0.2624 -0.2002  0.5748
 2833TIP3    H129914   4.837   1.585   0.860 -0.4087 -0.8769 -0.5096
 2833TIP3    H229915   4.963   1.639   0.794 -0.3067 -1.3171 -0.6788
 2834TIP3   OH229916   3.899   0.330   1.851 -0.1189 -0.2203  0.3367
 2834TIP3    H129917   3.957   0.403   1.833  1.0799 -0.6829  2.1376
 2834TIP3    H229918   3.931   0.259   1.795  1.5959 -0.6958  1.8227
 2835TIP3   OH229919   4.799   0.628  14.358 -0.2643 -0.3314  0.0744
 2835TIP3    H129920   4.773   0.676  14.436 -0.0445 -1.3744  0.8148
 2835TIP3    H229921   4.745   0.549  14.358 -0.5850 -0.1345 -1.0857
 2836TIP3   OH229922   4.793   3.357  17.104 -0.2241  0.2323  0.2501
 2836TIP3    H129923   4.857   3.315  17.047  0.2661 -0.1494  1.0710
 2836TIP3    H229924   4.845   3.414  17.161 -0.4607 -0.9482  1.7006
 2837TIP3   OH229925   2.383   2.126  12.451  0.2057  0.2641 -0.3380
 2837TIP3    H129926   2.370   2.080  12.534 -3.6795 -0.1956 -0.9934
 2837TIP3    H229927   2.385   2.219  12.475 -0.1673  0.1030  0.3421
 2838TIP3   OH229928   6.186   1.633   0.116  0.1852  0.3548 -0.6357
 2838TIP3    H129929   6.140   1.598   0.192  0.5132  1.6994  0.2273
 2838TIP3    H229930   6.254   1.568   0.097  0.8407  0.5148  0.9768
 2839TIP3   OH229931   4.881   1.537   1.598 -0.3322  0.0749  0.6355
 2839TIP3    H129932   4.922   1.500   1.676  0.8920  0.6070  0.2590
 2839TIP3    H229933   4.894   1.632   1.606 -0.8527  0.1973  0.1466
 2840TIP3   OH229934   2.011   5.481   3.288  1.1376 -0.1685 -0.1502
 2840TIP3    H129935   2.086   5.476   3.229  0.5486  1.7057 -1.1574
 2840TIP3    H229936   1.941   5.434   3.241  1.4598 -1.2979  0.4664
 2841TIP3   OH229937   2.725   2.241   2.972  0.5666  0.7619  0.0972
 2841TIP3    H129938   2.735   2.148   2.952  1.7230  0.9505 -0.2926
 2841TIP3    H229939   2.651   2.245   3.032  0.2474 -0.3645 -0.1946
 2842TIP3   OH229940   4.994   0.210   3.067  0.1849 -0.3661 -0.3832
 2842TIP3    H129941   4.937   0.192   3.142 -1.4412 -1.1168 -1.7252
 2842TIP3    H229942   4.936   0.249   3.002  1.1274 -1.4308 -1.9239
 2843TIP3   OH229943   4.294   5.566  17.097  0.3715 -0.3159 -0.3962
 2843TIP3    H129944   4.272   5.583  17.189  0.4249 -0.9446 -0.2659
 2843TIP3    H229945   4.217   5.522  17.062  0.2886  0.0631 -0.7005
 2844TIP3   OH229946   1.654   1.226  11.832  0.5371  0.1860 -0.5162
 2844TIP3    H129947   1.560   1.209  11.839  0.7339 -1.3953 -1.2451
 2844TIP3    H229948   1.681   1.248  11.921 -0.5515  0.9476 -0.3479
 2845TIP3   OH229949   0.068   4.636   4.566  0.7542 -0.0881 -0.3077
 2845TIP3    H129950   0.151   4.595   4.544  0.3514 -1.3420  0.3965
 2845TIP3    H229951   0.050   4.696   4.493  0.2634 -2.8464 -2.6403
 2846TIP3   OH229952   6.094   1.138   1.719  0.0551 -0.2542  0.3712
 2846TIP3    H129953   6.085   1.072   1.651 -0.6023 -1.2746  1.4164
 2846TIP3    H229954   6.022   1.121   1.780 -1.4819  2.7463 -0.3891
 2847TIP3   OH229955   5.372   3.844  14.231  0.1310 -0.3514 -0.6614
 2847TIP3    H129956   5.438   3.910  14.250  0.1963 -1.0119  1.7423
 2847TIP3    H229957   5.420   3.774  14.187  0.6714 -0.0891 -0.4932
 2848TIP3   OH229958   6.551   6.656   1.143 -0.1464 -0.6609  0.2461
 2848TIP3    H129959   6.525   6.594   1.211 -0.8800 -0.0588  0.5257
 2848TIP3    H229960   6.472   6.669   1.090 -0.4102  1.0434  0.9902
 2849TIP3   OH229961   6.654   5.195  13.750  0.3639 -0.1186 -0.0940
 2849TIP3    H129962   6.613   5.260  13.807  0.0692 -1.1058  0.8688
 2849TIP3    H229963   6.747   5.202  13.769  0.1578 -1.3460  1.5510
 2850TIP3   OH229964   3.837   4.930  15.751 -0.4945 -0.0319 -0.3906
 2850TIP3    H129965   3.811   4.949  15.661  1.3208  0.0835 -0.9363
 2850TIP3    H229966   3.828   5.014  15.796  0.3360  0.3720 -0.9426
 2851TIP3   OH229967   0.499   4.807   5.969  0.9467  0.3061 -0.4018
 2851TIP3    H129968   0.566   4.841   6.028  0.1990  1.8535 -0.4109
 2851TIP3    H229969   0.442   4.881   5.951 -1.1920 -1.1194  0.1239
 2852TIP3   OH229970   6.070   6.037   0.879  0.4694  0.5479 -0.4241
 2852TIP3    H129971   6.152   6.085   0.871  1.0153 -0.3803 -0.5702
 2852TIP3    H229972   6.021   6.084   0.946  1.3733  0.7753  0.0992
 2853TIP3   OH229973   1.884   3.670  14.003  0.5609 -0.5286 -0.1785
 2853TIP3    H129974   1.829   3.635  13.933 -0.5017 -0.6306  0.6915
 2853TIP3    H229975   1.968   3.688  13.960  0.2728 -1.5800 -1.2500
 2854TIP3   OH229976   5.884   4.209   3.216 -0.0747 -0.0188  0.3568
 2854TIP3    H129977   5.833   4.203   3.135  0.2474 -0.1880  0.1619
 2854TIP3    H229978   5.907   4.119   3.237  0.0215  0.0431  0.5208
 2855TIP3   OH229979   1.468   3.738  16.828  0.2265 -0.2544 -0.0768
 2855TIP3    H129980   1.505   3.673  16.769  0.7574  1.9613 -2.3516
 2855TIP3    H229981   1.518   3.817  16.811 -1.4610  1.2166  1.3528
 2856TIP3   OH229982   3.994   5.149   3.918  0.3947 -0.3134 -0.8412
 2856TIP3    H129983   3.902   5.126   3.905 -0.8165  1.2582  3.2388
 2856TIP3    H229984   4.009   5.223   3.860 -0.9691 -0.4965 -1.4549
 2857TIP3   OH229985   1.057   2.026   3.892 -0.3113 -0.0880 -0.0725
 2857TIP3    H129986   1.149   2.029   3.918 -0.1336 -2.9262 -0.0578
 2857TIP3    H229987   1.038   2.114   3.861  2.0047  0.9580  1.2180
 2858TIP3   OH229988   0.371   4.015   4.813 -0.6663 -0.7275 -0.5897
 2858TIP3    H129989   0.457   4.056   4.799 -0.9995  0.0022 -0.4971
 2858TIP3    H229990   0.334   4.061   4.888 -1.3271 -0.7542 -0.8964
 2859TIP3   OH229991   3.287   6.102   3.677 -0.5434  0.5469 -0.6315
 2859TIP3    H129992   3.332   6.160   3.615  0.9391  0.3530  0.2117
 2859TIP3    H229993   3.249   6.161   3.742  1.8250  0.6297  0.7979
 2860TIP3   OH229994   1.595   2.593  16.811  0.1042 -0.0063 -0.1440
 2860TIP3    H129995   1.663   2.525  16.807 -0.0701 -0.4321  2.5546
 2860TIP3    H229996   1.639   2.669  16.847 -0.4064  0.3610 -0.2848
 2861TIP3   OH229997   0.617   1.249  11.230  0.1976  0.2251  0.2852
 2861TIP3    H129998   0.544   1.225  11.287  0.4396  0.3263  0.6426
 2861TIP3    H229999   0.590   1.331  11.189 -0.3267 -0.2721 -0.3832
 2862TIP3   OH230000   3.262   2.648  12.579  0.1228 -0.5252 -0.1015
 2862TIP3    H130001   3.244   2.738  12.551 -0.0229 -0.4681  0.1805
 2862TIP3    H230002   3.354   2.635  12.555 -0.2427 -0.7849 -1.4452
 2863TIP3   OH230003   1.060   1.448   5.526  0.2289  0.2806  0.0925
 2863TIP3    H130004   0.995   1.381   5.505 -0.1296  0.7338 -0.2792
 2863TIP3    H230005   1.142   1.400   5.533 -0.3655 -0.5624  2.2119
 2864TIP3   OH230006   0.595   4.538  13.033 -0.1356 -0.2258 -0.2318
 2864TIP3    H130007   0.649   4.459  13.029 -0.5332 -0.4552 -1.5782
 2864TIP3    H230008   0.651   4.603  13.076  0.6548 -0.8795 -0.2468
 2865TIP3   OH230009   5.169   4.178   1.726 -0.3890  0.0055 -0.3977
 2865TIP3    H130010   5.147   4.113   1.792 -0.6857  1.3577  0.8908
 2865TIP3    H230011   5.129   4.259   1.758  0.8143  1.0551 -1.4276
 2866TIP3   OH230012   3.141   5.772  12.533  0.3547 -0.2543 -0.2297
 2866TIP3    H130013   3.103   5.688  12.509  1.9301 -0.6451 -1.5684
 2866TIP3    H230014   3.232   5.753  12.555  1.0302  1.1907 -1.5358
 2867TIP3   OH230015   4.072   0.324   0.240 -0.0245 -0.6211 -0.1016
 2867TIP3    H130016   3.994   0.371   0.271 -0.8669 -2.1638  0.1953
 2867TIP3    H230017   4.102   0.376   0.165 -0.1592  1.0770  0.9447
 2868TIP3   OH230018   2.314   2.645   1.195  0.1186 -0.8493 -0.3451
 2868TIP3    H130019   2.321   2.740   1.183 -1.3134 -0.0689  3.3864
 2868TIP3    H230020   2.372   2.627   1.270  1.1625 -3.1775 -1.6141
 2869TIP3   OH230021   0.985   5.754   0.990 -0.2279 -0.0223  0.2733
 2869TIP3    H130022   1.073   5.769   0.957  0.0266 -3.4020 -1.0428
 2869TIP3    H230023   0.943   5.700   0.923 -2.5053 -0.4426  1.9124
 2870TIP3   OH230024   4.058   0.317  14.459  0.0205 -0.3619  0.1618
 2870TIP3    H130025   4.153   0.328  14.464 -0.0564  0.7250 -0.4003
 2870TIP3    H230026   4.026   0.350  14.543  0.0613  0.4591 -0.1348
 2871TIP3   OH230027   0.845   2.763  14.733  0.3359 -0.8012 -0.1760
 2871TIP3    H130028   0.938   2.776  14.751 -0.0357 -0.4381  1.6996
 2871TIP3    H230029   0.806   2.849  14.748 -0.6157 -1.4747  1.4216
 2872TIP3   OH230030   2.985   1.937   0.477  0.1899  0.2642 -0.5289
 2872TIP3    H130031   2.938   1.945   0.560  0.7934 -0.0520 -0.1514
 2872TIP3    H230032   2.916   1.942   0.410 -0.2971  0.5559 -0.0160
 2873TIP3   OH230033   2.934   2.563   1.000  0.5799 -0.2619  0.6804
 2873TIP3    H130034   2.841   2.541   0.991  0.7022 -1.5876  2.1617
 2873TIP3    H230035   2.967   2.562   0.910 -1.4444  3.5620 -0.3010
 2874TIP3   OH230036   3.493   2.712   3.888  0.9333  0.1943 -0.3749
 2874TIP3    H130037   3.404   2.728   3.858  1.4433  2.8265 -0.7399
 2874TIP3    H230038   3.525   2.640   3.833 -1.5589 -2.3728  1.2199
 2875TIP3   OH230039   0.696   5.442  11.508  0.2576 -0.3302 -0.0701
 2875TIP3    H130040   0.711   5.374  11.443  0.7325  0.1851 -0.5047
 2875TIP3    H230041   0.746   5.517  11.477  1.8648 -0.5731  1.7118
 2876TIP3   OH230042   1.661   4.679  13.098  0.2800  0.1184  0.4935
 2876TIP3    H130043   1.695   4.647  13.014  0.7967 -0.1165  0.7872
 2876TIP3    H230044   1.635   4.770  13.080  2.3787  0.7931  0.5879
 2877TIP3   OH230045   6.680   1.863   4.597 -0.2677 -0.1038  0.2205
 2877TIP3    H130046   6.685   1.958   4.592  0.1062 -0.1651 -0.6083
 2877TIP3    H230047   6.716   1.832   4.515 -1.1289 -0.9441  0.1359
 2878TIP3   OH230048   0.685   5.910   4.057 -0.0815  0.3919  0.4945
 2878TIP3    H130049   0.616   5.961   4.100 -0.2947 -0.8145  1.6469
 2878TIP3    H230050   0.639   5.863   3.987 -0.3681 -0.1544  1.0473
 2879TIP3   OH230051   3.025   2.986   1.692 -0.7551  0.0325  0.2409
 2879TIP3    H130052   3.114   3.019   1.701 -0.9689  1.1021 -1.1451
 2879TIP3    H230053   2.973   3.064   1.670 -1.8260 -0.7431 -0.0450
 2880TIP3   OH230054   3.502   5.904   2.843 -0.0971 -0.2576  0.2142
 2880TIP3    H130055   3.417   5.862   2.856 -0.4395 -0.1852 -1.5780
 2880TIP3    H230056   3.505   5.972   2.911 -1.2830 -0.5397  0.5800
 2881TIP3   OH230057   2.680   2.535   1.588  0.1662  0.1336 -0.4036
 2881TIP3    H130058   2.759   2.482   1.578  0.1046 -0.5961  2.2616
 2881TIP3    H230059   2.712   2.626   1.583  1.3790 -0.1292  1.4315
 2882TIP3   OH230060   4.678   4.434  12.306  0.0364 -0.4948 -0.2180
 2882TIP3    H130061   4.749   4.384  12.265  1.2654  0.4163  0.7109
 2882TIP3    H230062   4.723   4.500  12.358 -1.4822  2.2775 -2.1716
 2883TIP3   OH230063   6.646   0.137   6.318 -0.5348  0.0769 -0.2139
 2883TIP3    H130064   6.719   0.121   6.257 -0.9144  2.4843 -1.4001
 2883TIP3    H230065   6.675   0.096   6.400  1.4153 -0.4636 -1.0990
 2884TIP3   OH230066   2.329   1.599   2.298  0.1346  0.2740 -0.5154
 2884TIP3    H130067   2.424   1.597   2.308  0.1795 -1.2794 -0.9536
 2884TIP3    H230068   2.299   1.664   2.360  1.2557 -1.2060  1.6959
 2885TIP3   OH230069   3.040   3.427   3.373  0.3379  0.1644 -0.0000
 2885TIP3    H130070   3.063   3.475   3.294 -0.8591 -0.0385 -0.4917
 2885TIP3    H230071   2.984   3.356   3.343 -0.2658  0.1765  1.0408
 2886TIP3   OH230072   6.722   0.121   5.426  0.0651 -0.5049 -0.2335
 2886TIP3    H130073   6.683   0.069   5.496  0.7270  0.3179  0.7766
 2886TIP3    H230074   6.733   0.059   5.353  1.7764 -2.0828  1.2501
 2887TIP3   OH230075   2.883   2.234  10.991  0.2869  0.0896 -0.2904
 2887TIP3    H130076   2.807   2.270  10.947  0.0883 -1.2551 -1.0993
 2887TIP3    H230077   2.946   2.307  10.994 -0.7503  1.0068 -0.2299
 2888TIP3   OH230078   5.609   6.010   0.290  0.0266 -0.0977 -0.2604
 2888TIP3    H130079   5.698   6.008   0.325  1.1731  1.4996 -2.7869
 2888TIP3    H230080   5.575   6.096   0.315  0.2265  0.3620 -1.4753
 2889TIP3   OH230081   4.278   0.365   9.948 -0.2414  0.1795 -0.2177
 2889TIP3    H130082   4.202   0.318   9.982 -0.0953  0.6845  0.8473
 2889TIP3    H230083   4.348   0.344  10.010  0.2336  0.4930 -0.6482
 2890TIP3   OH230084   4.405   1.726   0.118 -0.0024 -0.0863 -0.3337
 2890TIP3    H130085   4.398   1.817   0.146 -2.4156 -0.1416 -0.5644
 2890TIP3    H230086   4.431   1.678   0.197 -1.0258  0.5106  0.3858
 2891TIP3   OH230087   0.376   5.039   0.608  0.3104 -0.0868  0.5399
 2891TIP3    H130088   0.371   4.952   0.646 -0.5908 -0.1160  0.3712
 2891TIP3    H230089   0.433   5.029   0.532  0.0535 -0.5707  0.4088
 2892TIP3   OH230090   3.082   3.367   4.057 -0.7891 -0.0338  0.7659
 2892TIP3    H130091   3.162   3.326   4.090 -1.1885 -0.2602  1.4739
 2892TIP3    H230092   3.109   3.454   4.028 -0.1119 -0.4444  0.1294
 2893TIP3   OH230093   3.049   0.756  12.892  0.3740  0.1097 -0.1280
 2893TIP3    H130094   3.034   0.814  12.817 -0.3315  0.1535  0.0371
 2893TIP3    H230095   3.090   0.813  12.958 -0.1885  0.4003 -0.0175
 2894TIP3   OH230096   0.612   6.306   1.371  0.1356  0.1760 -0.1577
 2894TIP3    H130097   0.608   6.263   1.286 -1.8201  0.6573 -0.3497
 2894TIP3    H230098   0.558   6.252   1.429  0.7793  0.3024  0.5914
 2895TIP3   OH230099   0.059   3.297   5.069  0.1215  0.7529 -0.2045
 2895TIP3    H130100   0.086   3.274   5.157 -0.3732 -2.5413 -0.7672
 2895TIP3    H230101  -0.037   3.302   5.074  0.0530  0.0279 -0.6152
 2896TIP3   OH230102   5.254   5.461   4.598  0.2802  0.1480  0.5737
 2896TIP3    H130103   5.212   5.546   4.609 -2.2525 -0.8462 -0.5097
 2896TIP3    H230104   5.270   5.454   4.504  0.7156 -0.4603  0.6848
 2897TIP3   OH230105   3.928   3.038   3.081  0.4010 -0.0969  0.3534
 2897TIP3    H130106   3.923   3.130   3.107  0.2584 -0.0457  0.1533
 2897TIP3    H230107   3.846   3.023   3.033 -0.1884 -0.6780  1.4934
 2898TIP3   OH230108   1.589   2.242  11.645  0.8740  0.3241  0.0518
 2898TIP3    H130109   1.629   2.156  11.649  1.5840  0.6825  1.0327
 2898TIP3    H230110   1.662   2.303  11.662  0.0824  1.0316  0.9859
 2899TIP3   OH230111   1.613   5.700   4.649 -0.0933 -0.4539 -0.5547
 2899TIP3    H130112   1.584   5.616   4.612 -1.4219 -0.0928 -0.3646
 2899TIP3    H230113   1.615   5.760   4.574  0.1652 -0.4688 -0.5620
 2900TIP3   OH230114   3.841   1.793   4.491 -0.8891  0.2560  0.4660
 2900TIP3    H130115   3.919   1.821   4.443 -0.3018 -0.5645  0.9299
 2900TIP3    H230116   3.870   1.720   4.546 -1.7781  0.5248  1.3310
 2901TIP3   OH230117   6.144   1.664  14.584  0.1467  0.5489  0.2231
 2901TIP3    H130118   6.115   1.755  14.583 -0.1178  0.4746  0.6923
 2901TIP3    H230119   6.226   1.664  14.535 -0.6211  0.7696 -1.0974
 2902TIP3   OH230120   4.670   4.602  17.002  0.3812  0.1991  0.8360
 2902TIP3    H130121   4.743   4.660  16.982  0.0604  0.7388  1.2067
 2902TIP3    H230122   4.674   4.590  17.097  0.4159 -0.3496  0.7677
 2903TIP3   OH230123   3.902   6.640  16.528  0.1512 -0.7959  0.4369
 2903TIP3    H130124   3.930   6.730  16.547 -0.2001 -0.0798 -2.0400
 2903TIP3    H230125   3.980   6.597  16.494  0.1153 -1.1549  0.8100
 2904TIP3   OH230126   0.392   1.942   1.964  0.6045  0.3688 -0.0190
 2904TIP3    H130127   0.414   2.035   1.957 -4.1686  1.7452 -0.3845
 2904TIP3    H230128   0.429   1.902   1.885  2.9010  1.8470  0.2296
 2905TIP3   OH230129   2.320   2.184  14.455 -0.2415  0.7677 -0.4544
 2905TIP3    H130130   2.259   2.172  14.528 -0.9497  2.2807 -0.7688
 2905TIP3    H230131   2.265   2.204  14.380  0.4396 -1.3127 -1.5912
 2906TIP3   OH230132   6.203   1.705  12.423 -0.0400 -0.2043  0.2913
 2906TIP3    H130133   6.114   1.736  12.441  0.4265  0.3617  1.7603
 2906TIP3    H230134   6.192   1.615  12.394 -1.0846 -0.1962  0.6394
 2907TIP3   OH230135   6.116   3.448   2.156 -0.0734 -0.5168  0.1774
 2907TIP3    H130136   6.139   3.520   2.214 -1.1726 -0.0220  0.0379
 2907TIP3    H230137   6.027   3.469   2.127 -0.3161 -1.8099 -0.0588
 2908TIP3   OH230138   6.365   5.002   0.435  0.1966 -0.5334 -0.3255
 2908TIP3    H130139   6.280   4.987   0.394 -0.6601  0.2121  1.1093
 2908TIP3    H230140   6.429   4.977   0.367 -1.1241  0.3620 -1.9772
 2909TIP3   OH230141   6.400   3.917   4.749 -0.1072  0.4541  0.0530
 2909TIP3    H130142   6.396   3.978   4.823 -1.5523 -0.2878  0.6164
 2909TIP3    H230143   6.338   3.953   4.685 -1.0583 -0.4530  0.4373
 2910TIP3   OH230144   2.720   1.485  13.201 -0.0911 -0.5766  0.1380
 2910TIP3    H130145   2.744   1.561  13.148  0.2504 -1.3434 -0.8342
 2910TIP3    H230146   2.799   1.432  13.204  0.0168 -0.3740  1.7597
 2911TIP3   OH230147   1.862   1.458   0.598 -0.1205  0.3968  0.1981
 2911TIP3    H130148   1.840   1.524   0.532  0.3628  2.6220  2.1232
 2911TIP3    H230149   1.948   1.427   0.573 -0.8069 -0.3806 -1.3453
 2912TIP3   OH230150   5.958   0.492   5.461  0.0933  0.3818  0.4050
 2912TIP3    H130151   5.895   0.553   5.424  0.0226  1.1673  1.7372
 2912TIP3    H230152   5.917   0.461   5.542  1.3067  0.7827  1.2113
 2913TIP3   OH230153   5.585   6.420  16.883  0.3044  0.1217  0.3146
 2913TIP3    H130154   5.662   6.443  16.935 -1.8231  0.0998  3.7224
 2913TIP3    H230155   5.543   6.504  16.863  0.3188  0.0314 -0.1102
 2914TIP3   OH230156   3.862   5.142  15.922 -0.2069  0.0973 -0.1287
 2914TIP3    H130157   3.922   5.095  15.980  1.7559 -0.3282 -2.3500
 2914TIP3    H230158   3.904   5.226  15.907 -0.7388  0.2479 -0.8471
 2915TIP3   OH230159   2.919   2.176   1.339 -0.0720  0.3003  0.7627
 2915TIP3    H130160   2.927   2.159   1.433  2.0142 -0.2279  0.5318
 2915TIP3    H230161   2.887   2.094   1.302 -1.6229  0.7347  1.0536
 2916TIP3   OH230162   0.482   5.858  12.419  0.3234  0.2877 -0.4060
 2916TIP3    H130163   0.413   5.792  12.411 -0.4889  1.2276 -1.5537
 2916TIP3    H230164   0.500   5.863  12.513 -1.9833  0.7963  0.0685
 2917TIP3   OH230165   1.001   4.732  16.425 -0.0874 -0.1820  0.1636
 2917TIP3    H130166   0.981   4.710  16.334  1.1075 -2.4435  0.3758
 2917TIP3    H230167   0.953   4.813  16.441 -1.3617 -0.4082 -2.0812
 2918TIP3   OH230168   1.014   5.552  13.633 -0.0168 -0.0399 -0.1136
 2918TIP3    H130169   1.044   5.548  13.542 -1.3121  1.0335 -0.6194
 2918TIP3    H230170   1.088   5.519  13.684  1.1569  0.3904 -1.4722
 2919TIP3   OH230171   5.569   1.505   3.185  0.0737 -0.1576 -0.0864
 2919TIP3    H130172   5.491   1.488   3.239  0.1200 -2.1521 -0.5487
 2919TIP3    H230173   5.538   1.493   3.095  0.8612 -0.7856 -0.2791
 2920TIP3   OH230174   1.517   4.604   1.350  0.0998  0.1722 -0.1882
 2920TIP3    H130175   1.572   4.528   1.333  0.9828  0.5198  0.9376
 2920TIP3    H230176   1.529   4.660   1.273  1.0339  0.0590 -0.1427
 2921TIP3   OH230177   0.497   4.834   1.502  0.3361  0.1753 -0.3074
 2921TIP3    H130178   0.497   4.892   1.579  0.1388  0.3506 -0.4393
 2921TIP3    H230179   0.583   4.792   1.505  0.5618  0.6228 -0.3186
 2922TIP3   OH230180   1.697   0.180   5.305  0.3041  0.1299  0.1652
 2922TIP3    H130181   1.645   0.141   5.235  1.7813 -1.1618 -0.2861
 2922TIP3    H230182   1.633   0.221   5.363 -1.2490 -1.6953 -0.1541
 2923TIP3   OH230183   1.480   2.329  13.923  0.1348 -0.1452  0.6096
 2923TIP3    H130184   1.453   2.239  13.940  0.7472 -0.1760  1.5051
 2923TIP3    H230185   1.419   2.361  13.857 -0.3569 -1.0787  0.6060
 2924TIP3   OH230186   1.878   2.139   0.450  0.7506 -0.2726  0.8967
 2924TIP3    H130187   1.914   2.211   0.502  2.8772  0.9918 -2.0141
 2924TIP3    H230188   1.791   2.170   0.424  1.7447  1.4939 -0.5632
 2925TIP3   OH230189   0.778   0.587  16.553 -0.2853  0.1838  0.3459
 2925TIP3    H130190   0.788   0.551  16.465 -0.5939 -0.9257  0.7484
 2925TIP3    H230191   0.811   0.519  16.611  0.3202  1.0693  1.0833
 2926TIP3   OH230192   4.063   5.927  12.174  0.3986 -0.6124  0.1742
 2926TIP3    H130193   4.029   5.920  12.085 -0.1785  4.0125 -0.2271
 2926TIP3    H230194   4.146   5.880  12.172 -0.2363 -1.8010 -2.3875
 2927TIP3   OH230195   3.057   5.083  12.260 -0.1754  0.2498 -0.4670
 2927TIP3    H130196   2.978   5.087  12.206  0.9998 -0.5224 -2.3314
 2927TIP3    H230197   3.114   5.150  12.223  0.3572  0.2616  0.3548
 2928TIP3   OH230198   1.675   4.705  13.552  0.2773  0.1731  0.2740
 2928TIP3    H130199   1.713   4.731  13.468  1.4881  0.2331  0.8085
 2928TIP3    H230200   1.651   4.788  13.594  0.3435  0.1928  0.2745
 2929TIP3   OH230201   1.874   3.878  10.362 -0.2144 -0.0677 -0.1097
 2929TIP3    H130202   1.810   3.948  10.364  0.3381  0.4450 -0.0182
 2929TIP3    H230203   1.957   3.920  10.383  0.0554 -0.8294  0.4188
 2930TIP3   OH230204   5.673   6.438  13.912  0.2707  0.1687  0.4539
 2930TIP3    H130205   5.598   6.389  13.876 -0.0555  0.0449  1.2714
 2930TIP3    H230206   5.637   6.525  13.931  0.0442 -0.1865  1.7803
 2931TIP3   OH230207   5.192   5.682   3.226 -0.6565 -0.1396  1.0748
 2931TIP3    H130208   5.116   5.730   3.193  0.3703  1.2437  0.5890
 2931TIP3    H230209   5.230   5.741   3.291 -0.2357 -1.0027  1.6240
 2932TIP3   OH230210   6.536   2.192   1.611 -0.2515 -0.1261  0.1550
 2932TIP3    H130211   6.625   2.219   1.588 -0.8051  0.7747 -1.1112
 2932TIP3    H230212   6.501   2.267   1.660 -0.5165 -0.1956  0.0736
 2933TIP3   OH230213   1.023   3.246  15.800  0.0798 -0.1335  0.2093
 2933TIP3    H130214   1.061   3.188  15.734 -0.6829 -2.4492  1.6850
 2933TIP3    H230215   0.930   3.250  15.778  0.5559  3.5401 -1.9458
 2934TIP3   OH230216   4.967   3.428  10.681 -0.4369 -0.2254  0.3932
 2934TIP3    H130217   4.969   3.473  10.766 -0.7434  1.1113 -0.2757
 2934TIP3    H230218   4.924   3.490  10.623  0.7933 -0.6371 -1.0160
 2935TIP3   OH230219   2.954   2.487   6.587  0.2111 -0.1572  0.0910
 2935TIP3    H130220   2.917   2.399   6.590 -0.9986  0.3635  1.5053
 2935TIP3    H230221   3.049   2.472   6.581  0.0499 -1.5690  0.6040
 2936TIP3   OH230222   3.117   3.890   1.214  0.5609 -0.4865  0.1025
 2936TIP3    H130223   3.045   3.936   1.170 -0.6418 -1.2460  1.2040
 2936TIP3    H230224   3.172   3.858   1.142 -0.2948 -0.0305 -0.7824
 2937TIP3   OH230225   3.888   3.305  11.805  0.2554 -0.1356 -0.5645
 2937TIP3    H130226   3.819   3.367  11.780  0.8408  0.1348 -1.6008
 2937TIP3    H230227   3.841   3.224  11.826 -0.4780  0.4757  0.2082
 2938TIP3   OH230228   5.512   3.449   0.933 -0.1258 -0.3126 -0.0181
 2938TIP3    H130229   5.547   3.470   0.847 -2.2537 -0.2482 -0.9199
 2938TIP3    H230230   5.485   3.357   0.927 -1.3983  0.0275  0.1409
 2939TIP3   OH230231   3.913   5.925   2.335 -0.4735  0.4166 -0.6135
 2939TIP3    H130232   3.854   5.869   2.385  0.3665 -0.7190 -0.8641
 2939TIP3    H230233   3.858   6.000   2.309 -1.7031 -0.4229 -0.5405
 2940TIP3   OH230234   1.812   3.837   3.268  0.6616  0.3025 -0.6429
 2940TIP3    H130235   1.843   3.925   3.243  0.0875  0.3894 -1.0817
 2940TIP3    H230236   1.877   3.777   3.232  0.6494  0.5122 -1.0181
 2941TIP3   OH230237   2.039   6.536  16.851  0.0068 -0.4069  0.3996
 2941TIP3    H130238   2.071   6.546  16.941  1.2131  0.9416 -0.1323
 2941TIP3    H230239   1.952   6.498  16.860  0.6660 -1.6255  2.0626
 2942TIP3   OH230240   6.518   1.705   0.536  0.3205  0.5357  0.0189
 2942TIP3    H130241   6.448   1.660   0.489 -0.0612  0.9669  0.1762
 2942TIP3    H230242   6.581   1.729   0.468  0.0901  0.5653 -0.1849
 2943TIP3   OH230243   4.832   4.057  12.468 -0.3085 -0.4467  0.6701
 2943TIP3    H130244   4.846   4.040  12.561  0.6662  0.8317  0.7860
 2943TIP3    H230245   4.836   3.971  12.427  2.2170 -0.8119  1.4648
 2944TIP3   OH230246   4.881   2.612  13.101  0.3314  0.2037  0.3073
 2944TIP3    H130247   4.861   2.573  13.016 -2.7593 -1.3756  1.5847
 2944TIP3    H230248   4.936   2.547  13.145  0.5429  0.2551  0.1205
 2945TIP3   OH230249   5.354   5.178   0.926  0.4777 -0.2276  0.0044
 2945TIP3    H130250   5.383   5.110   0.986  1.4171  0.4702  0.3714
 2945TIP3    H230251   5.412   5.252   0.944 -0.7165  0.7886 -0.1499
 2946TIP3   OH230252   3.278   3.443  11.100 -0.4404  0.5637  0.1099
 2946TIP3    H130253   3.288   3.349  11.108 -1.0016  0.6008  1.4534
 2946TIP3    H230254   3.298   3.462  11.008 -0.4487 -0.8686 -0.1992
 2947TIP3   OH230255   6.316   3.972  14.155  0.4861 -0.2979 -0.1814
 2947TIP3    H130256   6.332   4.040  14.089 -0.6635 -0.0627 -0.2300
 2947TIP3    H230257   6.387   3.983  14.218 -0.1530  1.5108  0.2703
 2948TIP3   OH230258   3.108   6.013   2.609  0.2017  0.1094  0.1449
 2948TIP3    H130259   3.032   6.027   2.554  0.2004  0.2756  0.1884
 2948TIP3    H230260   3.074   5.970   2.688  0.2404 -0.3609 -0.0903
 2949TIP3   OH230261   2.432   0.149  16.001 -0.5014  0.0902  0.5600
 2949TIP3    H130262   2.394   0.233  15.973 -0.9016 -0.4739 -0.6721
 2949TIP3    H230263   2.419   0.091  15.925  1.5482 -0.5338  0.6435
 2950TIP3   OH230264   6.328   2.807  17.031 -0.1355 -0.0995  0.1285
 2950TIP3    H130265   6.409   2.858  17.035 -0.9382  1.3651 -1.0852
 2950TIP3    H230266   6.260   2.872  17.013 -1.0086 -1.7183 -3.3431
 2951TIP3   OH230267   0.629   6.413  12.659 -0.1880  0.2103 -0.0612
 2951TIP3    H130268   0.712   6.379  12.627 -0.4262 -0.8644  0.4074
 2951TIP3    H230269   0.576   6.335  12.676 -0.7357  0.8121  1.1382
 2952TIP3   OH230270   2.414   2.503  12.909 -0.1858 -0.2770  0.6383
 2952TIP3    H130271   2.489   2.561  12.897  0.2613 -0.7069  1.3221
 2952TIP3    H230272   2.347   2.539  12.850  0.4208  0.3317  0.3003
 2953TIP3   OH230273   5.116   4.248   4.299 -0.1753  0.0963  0.0894
 2953TIP3    H130274   5.194   4.292   4.331  0.2542 -0.9849  0.5618
 2953TIP3    H230275   5.146   4.198   4.223 -0.6365  0.5294 -0.3836
 2954TIP3   OH230276   5.125   4.827  12.871  0.3179  1.1288  0.5294
 2954TIP3    H130277   5.122   4.800  12.780 -0.2897  3.4708 -0.2155
 2954TIP3    H230278   5.165   4.753  12.917 -0.4737 -0.6088 -1.4078
 2955TIP3   OH230279   1.921   1.192  10.972  0.2307  0.3866  0.2504
 2955TIP3    H130280   1.898   1.107  11.008  1.2277 -0.0835 -0.1887
 2955TIP3    H230281   1.937   1.176  10.879 -0.7758  1.2903 -0.0901
 2956TIP3   OH230282   0.875   1.221  16.997  0.4535  0.1371  0.3114
 2956TIP3    H130283   0.802   1.244  16.939  0.3882  0.8078  0.6425
 2956TIP3    H230284   0.890   1.301  17.047  1.2130 -0.1010  0.4625
 2957TIP3   OH230285   6.774   3.449  15.709 -0.5590  0.1468  0.3756
 2957TIP3    H130286   6.861   3.435  15.672 -1.3119  1.0791 -1.8712
 2957TIP3    H230287   6.743   3.361  15.730  0.4862 -0.2815  0.2155
 2958TIP3   OH230288   3.633   1.636  15.367  0.6149  0.2624  0.2022
 2958TIP3    H130289   3.696   1.676  15.427  0.0215  3.0224 -0.8779
 2958TIP3    H230290   3.670   1.651  15.280  0.0614 -1.0803 -0.2850
 2959TIP3   OH230291   3.594   3.246  13.175 -0.5117  0.2249 -0.4089
 2959TIP3    H130292   3.559   3.222  13.089 -0.0380  0.8751 -0.7863
 2959TIP3    H230293   3.563   3.335  13.190  0.1479  0.4400 -0.3030
 2960TIP3   OH230294   1.875   5.202   1.363 -0.3378 -0.3217  0.5715
 2960TIP3    H130295   1.833   5.200   1.449  1.4877 -0.4336  1.5110
 2960TIP3    H230296   1.907   5.291   1.354  3.3386 -1.2894  2.0814
 2961TIP3   OH230297   3.898   1.093  17.154  0.8512 -0.8665  0.1451
 2961TIP3    H130298   3.891   1.038  17.232  1.9810 -1.0952  0.1110
 2961TIP3    H230299   3.930   1.034  17.086 -1.6812 -1.0553 -0.9760
 2962TIP3   OH230300   0.403   1.027  12.037 -0.1474  0.1073 -0.0659
 2962TIP3    H130301   0.353   1.080  12.100 -1.2861 -0.0365 -0.8084
 2962TIP3    H230302   0.464   1.089  11.997 -1.8410  1.0632 -1.3265
 2963TIP3   OH230303   4.759   2.613  16.441  0.2339  0.1666  0.7482
 2963TIP3    H130304   4.847   2.639  16.414  0.1862 -0.4695 -0.0727
 2963TIP3    H230305   4.721   2.574  16.362 -1.7854  2.8960  0.2599
 2964TIP3   OH230306   1.584   4.859   0.304  0.4822  0.6981  0.1982
 2964TIP3    H130307   1.663   4.914   0.305  1.0158 -0.0445 -0.2184
 2964TIP3    H230308   1.524   4.905   0.245 -0.4545  2.6490  2.4690
 2965TIP3   OH230309   2.214   2.808  10.858 -0.1785 -0.1750 -0.3582
 2965TIP3    H130310   2.166   2.891  10.859  0.6098  0.3400 -1.8708
 2965TIP3    H230311   2.164   2.751  10.800 -0.5466 -0.6646  0.4273
 2966TIP3   OH230312   4.894   3.700   0.595  0.4589 -0.0467  0.4964
 2966TIP3    H130313   4.884   3.661   0.509  0.8833 -0.0772  0.4577
 2966TIP3    H230314   4.842   3.780   0.592  0.5472 -0.0011  0.1805
 2967TIP3   OH230315   5.065   6.545   0.790  0.1982  0.2689  0.4166
 2967TIP3    H130316   5.160   6.549   0.779  0.1723  0.4994  0.2701
 2967TIP3    H230317   5.030   6.537   0.701  0.0327  1.1883  0.3896
 2968TIP3   OH230318   5.376   0.939  13.892  0.6645 -0.4059 -0.4958
 2968TIP3    H130319   5.291   0.980  13.877  0.5186 -0.8081 -0.7985
 2968TIP3    H230320   5.393   0.952  13.985 -1.1225 -2.8926  0.3000
 2969TIP3   OH230321   3.076   2.967  16.231  0.0497  0.5518  0.6360
 2969TIP3    H130322   3.150   2.933  16.282 -1.0335 -0.1494  1.7963
 2969TIP3    H230323   3.005   2.905  16.249 -0.7935  1.1536 -0.5403
 2970TIP3   OH230324   5.385   1.696  11.975  0.4083  0.4239 -0.9735
 2970TIP3    H130325   5.289   1.701  11.980  0.3163 -0.2630 -1.8276
 2970TIP3    H230326   5.402   1.647  11.895  1.4811  0.4760 -0.7873
 2971TIP3   OH230327   3.370   5.350   3.278  0.1327  0.4998 -0.0317
 2971TIP3    H130328   3.458   5.382   3.297 -0.2890  2.0784 -0.5508
 2971TIP3    H230329   3.361   5.270   3.330  2.0602 -0.0037 -0.4062
 2972TIP3   OH230330   4.602   2.178   1.675 -0.4250 -0.2250  0.1763
 2972TIP3    H130331   4.544   2.181   1.599 -0.0631  1.6231 -0.0820
 2972TIP3    H230332   4.615   2.270   1.699  1.2724 -0.6534  1.0930
 2973TIP3   OH230333   2.782   5.282  14.082  0.0128 -0.3607  0.0338
 2973TIP3    H130334   2.835   5.225  14.028 -1.9150 -0.4392 -1.9306
 2973TIP3    H230335   2.742   5.224  14.147 -0.9573 -1.0820 -1.1662
 2974TIP3   OH230336   5.114   0.875  15.662 -0.3418  0.1543 -0.1772
 2974TIP3    H130337   5.184   0.819  15.628  1.3551  0.9074  1.7792
 2974TIP3    H230338   5.088   0.833  15.744  0.6607  1.8991  1.1038
 2975TIP3   OH230339   3.867   0.336   5.458  0.1418 -0.7751 -0.5675
 2975TIP3    H130340   3.916   0.397   5.513 -1.0510 -1.8163  1.7860
 2975TIP3    H230341   3.934   0.280   5.418  1.0461  0.1183 -0.3509
 2976TIP3   OH230342   0.681   0.304  11.827 -0.1010  0.1750 -0.5120
 2976TIP3    H130343   0.686   0.263  11.741  1.2658 -1.4272  0.2496
 2976TIP3    H230344   0.767   0.287  11.866 -1.0021 -0.0177  1.5269
 2977TIP3   OH230345   2.488   3.614   0.699  0.0449  0.5307  0.6597
 2977TIP3    H130346   2.495   3.527   0.659  0.3468  1.4382 -1.3607
 2977TIP3    H230347   2.559   3.617   0.763  1.5963  0.1381 -0.9680
 2978TIP3   OH230348   0.881   0.841   2.097 -0.3921 -0.7682 -0.2807
 2978TIP3    H130349   0.815   0.826   2.165 -0.5675 -0.6897 -0.4340
 2978TIP3    H230350   0.835   0.826   2.015 -0.4470  0.1181 -0.4253
 2979TIP3   OH230351   1.743   5.026   6.517 -0.4559  0.1263  0.2312
 2979TIP3    H130352   1.751   4.932   6.529  0.8916 -0.1396 -2.2312
 2979TIP3    H230353   1.786   5.063   6.594 -0.0640 -1.2676  0.7165
 2980TIP3   OH230354   5.558   6.324  16.337  0.3738  1.0760  0.1258
 2980TIP3    H130355   5.612   6.296  16.411  0.1953  3.7685  1.3771
 2980TIP3    H230356   5.591   6.410  16.313 -1.7166  1.7075 -0.7584
 2981TIP3   OH230357   6.609   4.342  14.797  0.2528 -0.2636  0.2294
 2981TIP3    H130358   6.638   4.419  14.846 -0.0252  0.2374 -0.3845
 2981TIP3    H230359   6.639   4.358  14.707 -0.4188 -0.5358 -0.0511
 2982TIP3   OH230360   1.049   1.241   3.879 -0.0254 -0.2736  0.1876
 2982TIP3    H130361   1.069   1.334   3.888 -1.2007  0.0485 -0.3239
 2982TIP3    H230362   0.995   1.220   3.955 -0.2784 -0.3784 -0.0180
 2983TIP3   OH230363   6.550   4.643   3.386 -0.1497  0.3299 -0.1739
 2983TIP3    H130364   6.501   4.560   3.383 -1.2394  0.9811 -0.9042
 2983TIP3    H230365   6.521   4.691   3.309 -0.4452  1.9056  0.8721
 2984TIP3   OH230366   6.557   1.505  13.383 -0.0596 -0.7813 -0.1330
 2984TIP3    H130367   6.622   1.455  13.430  0.7436 -0.4746 -0.8839
 2984TIP3    H230368   6.549   1.587  13.432  1.7947  0.1224 -1.2328
 2985TIP3   OH230369   4.578   3.314   3.885  0.0350  0.0339  0.3763
 2985TIP3    H130370   4.593   3.387   3.825 -1.6821  0.0266 -0.1182
 2985TIP3    H230371   4.657   3.260   3.877  1.0126  1.4396  0.2038
 2986TIP3   OH230372   3.248   6.018  10.850 -0.2483  0.0977  0.2501
 2986TIP3    H130373   3.242   5.925  10.828  0.7370 -0.1997  1.1391
 2986TIP3    H230374   3.308   6.053  10.784 -1.0587  0.2247 -0.4242
 2987TIP3   OH230375   5.695   1.304  17.115 -0.5646  0.0197  0.1596
 2987TIP3    H130376   5.789   1.313  17.096 -0.7409  0.9628 -0.3132
 2987TIP3    H230377   5.689   1.224  17.168  0.4403 -0.3529 -0.2584
 2988TIP3   OH230378   5.622   5.888   1.507  0.2961 -0.0731 -0.7258
 2988TIP3    H130379   5.581   5.940   1.575  2.3415 -0.7066  1.0842
 2988TIP3    H230380   5.713   5.919   1.503  0.7220 -1.3302 -1.8474
 2989TIP3   OH230381   4.491   5.196   5.190  1.1381 -0.5111 -0.4193
 2989TIP3    H130382   4.574   5.220   5.148  2.0923 -1.8435  0.6174
 2989TIP3    H230383   4.510   5.195   5.283 -1.3521  3.9982  0.4477
 2990TIP3   OH230384   2.303   5.732   2.811 -0.3485  0.5256  0.1780
 2990TIP3    H130385   2.240   5.672   2.772 -0.3293 -1.3502  2.7644
 2990TIP3    H230386   2.387   5.687   2.802 -0.1575  0.6705  1.1462
 2991TIP3   OH230387   4.633   1.326   5.034 -0.3815  0.1384 -0.5021
 2991TIP3    H130388   4.658   1.347   5.124 -2.6351 -0.9604  0.4850
 2991TIP3    H230389   4.545   1.288   5.043 -1.3698  1.4996 -3.3404
 2992TIP3   OH230390   5.673   6.703  11.000 -0.4932 -0.2957  0.3530
 2992TIP3    H130391   5.648   6.637  11.065  2.5856 -1.5024  0.4784
 2992TIP3    H230392   5.719   6.770  11.051 -0.6308  0.2547 -0.2323
 2993TIP3   OH230393   4.355   5.823   6.665 -0.0145  0.1878 -0.5621
 2993TIP3    H130394   4.338   5.886   6.596  0.6780 -0.0489 -0.9675
 2993TIP3    H230395   4.449   5.832   6.682 -0.3020  0.7199  0.8308
 2994TIP3   OH230396   6.312   1.569   5.484 -0.2962  0.2207 -0.2928
 2994TIP3    H130397   6.283   1.478   5.493 -0.3708  0.0649 -1.8024
 2994TIP3    H230398   6.252   1.619   5.539 -0.3939 -0.6168  0.3787
 2995TIP3   OH230399   1.391   2.466  15.133 -0.1611 -0.1946 -0.4580
 2995TIP3    H130400   1.353   2.399  15.077  1.4172 -3.0449  1.6465
 2995TIP3    H230401   1.478   2.434  15.154  0.0645  1.7015  2.0241
 2996TIP3   OH230402   5.949   4.922   2.619  0.0100 -0.0063  0.1579
 2996TIP3    H130403   5.992   4.896   2.701  0.2938 -0.5643 -0.1682
 2996TIP3    H230404   6.006   4.890   2.550 -0.0918  0.7032 -0.2638
 2997TIP3   OH230405   0.123   0.984  10.304 -0.4094  0.2744 -0.1332
 2997TIP3    H130406   0.102   1.070  10.341 -0.0043  0.0170  0.7276
 2997TIP3    H230407   0.115   0.923  10.377 -1.3980 -0.5469 -0.8961
 2998TIP3   OH230408   4.090   3.792   1.708 -0.4182 -0.0760 -0.2591
 2998TIP3    H130409   4.083   3.712   1.761  0.2392  0.0643  0.0447
 2998TIP3    H230410   4.176   3.787   1.668 -0.3623  0.4959 -0.2128
 2999TIP3   OH230411   5.315   1.692  16.356  0.1357  0.2181 -0.2126
 2999TIP3    H130412   5.254   1.765  16.368  0.7768  0.7513 -0.0742
 2999TIP3    H230413   5.345   1.672  16.445 -0.4222 -0.5601 -0.1976
 3000TIP3   OH230414   1.551   5.449   4.547 -0.0346 -0.5080  0.1063
 3000TIP3    H130415   1.619   5.382   4.539  1.4531  1.1060 -2.2522
 3000TIP3    H230416   1.502   5.444   4.466 -1.4882 -0.3116  0.9352
 3001TIP3   OH230417   6.372   5.608   2.574  0.1990  0.1695  0.2428
 3001TIP3    H130418   6.349   5.650   2.657  0.0556  0.1052  0.2368
 3001TIP3    H230419   6.462   5.578   2.587  0.1640  0.1229  0.3908
 3002TIP3   OH230420   4.265   5.225  17.067 -1.0424 -0.2912  0.0850
 3002TIP3    H130421   4.352   5.246  17.101 -0.8838 -0.9292  0.0778
 3002TIP3    H230422   4.264   5.262  16.978 -1.3634  1.1434  0.6568
 3003TIP3   OH230423   0.750   5.263   2.294  1.0321 -0.2225 -0.5314
 3003TIP3    H130424   0.780   5.353   2.277 -0.0923 -0.0360 -1.6729
 3003TIP3    H230425   0.690   5.244   2.222  0.0829 -1.3555  0.5152
 3004TIP3   OH230426   1.935   5.188  15.371  0.0559 -0.3060 -0.1652
 3004TIP3    H130427   1.991   5.111  15.379 -0.9570 -1.0122  0.3726
 3004TIP3    H230428   1.996   5.262  15.368  1.0677 -1.1670 -1.4846
 3005TIP3   OH230429   5.661   6.116  11.732  0.0757 -0.3501 -0.3744
 3005TIP3    H130430   5.725   6.058  11.692 -1.5205 -1.5929 -1.2408
 3005TIP3    H230431   5.682   6.203  11.699  2.4717 -0.3719  0.8998
 3006TIP3   OH230432   3.982   4.951   4.659 -0.2770  0.5414 -0.0178
 3006TIP3    H130433   4.064   4.904   4.674 -0.3304 -0.2238 -1.7583
 3006TIP3    H230434   3.949   4.971   4.746  1.0821 -0.3386  0.7375
 3007TIP3   OH230435   4.727   4.541  16.552  0.1408 -0.0267 -0.5691
 3007TIP3    H130436   4.758   4.519  16.640  1.2225 -1.0449 -1.1824
 3007TIP3    H230437   4.751   4.465  16.499 -1.6037  0.0300 -1.5098
 3008TIP3   OH230438   2.417   5.441   4.095 -0.4127 -0.1496  0.4627
 3008TIP3    H130439   2.494   5.384   4.094 -0.1101  0.2408  1.0132
 3008TIP3    H230440   2.431   5.500   4.169 -0.0391  1.5792 -0.9153
 3009TIP3   OH230441   5.254   2.641  15.768  0.2132  0.4535 -0.4763
 3009TIP3    H130442   5.328   2.580  15.767 -1.8213 -2.2097  0.4853
 3009TIP3    H230443   5.263   2.689  15.850 -0.0908 -1.1908  0.5578
 3010TIP3   OH230444   3.392   6.546  13.252 -0.0289 -0.4370  0.1340
 3010TIP3    H130445   3.387   6.540  13.348 -1.3689 -1.6368  0.0137
 3010TIP3    H230446   3.362   6.461  13.221 -2.5265  0.9124 -1.4228
 3011TIP3   OH230447   6.510   4.471  12.887 -0.6218 -0.2604  1.0897
 3011TIP3    H130448   6.519   4.566  12.896 -1.8093 -0.1280  1.0939
 3011TIP3    H230449   6.575   4.447  12.821 -0.4027  0.5774  0.9854
 3012TIP3   OH230450   2.205   3.063  11.550  0.6813  0.3766  0.4539
 3012TIP3    H130451   2.266   3.019  11.609 -0.7904  2.6628  4.0308
 3012TIP3    H230452   2.253   3.140  11.519  0.6408  0.5175  0.7382
 3013TIP3   OH230453   1.562   3.859   3.416 -0.1881 -0.2677  0.3721
 3013TIP3    H130454   1.614   3.872   3.336 -0.2529  1.2407  0.5457
 3013TIP3    H230455   1.542   3.765   3.416 -0.0483 -0.3383 -1.3014
 3014TIP3   OH230456   1.176   3.739  14.146 -0.2963 -0.9954  0.5859
 3014TIP3    H130457   1.094   3.750  14.193  0.0676 -2.5649  1.6647
 3014TIP3    H230458   1.172   3.649  14.112 -0.1929 -0.1957 -1.7599
 3015TIP3   OH230459   0.185   2.996   2.825  0.3546  0.2614 -0.2675
 3015TIP3    H130460   0.116   2.946   2.870  2.1749 -2.3278 -0.1148
 3015TIP3    H230461   0.216   3.059   2.890  0.6226 -1.0987  0.9699
 3016TIP3   OH230462   4.965   5.920  16.406 -0.1369 -0.1506  0.5806
 3016TIP3    H130463   4.921   5.845  16.365  0.2625  0.5733 -1.2600
 3016TIP3    H230464   5.042   5.882  16.448 -1.6628 -1.2166  2.5825
 3017TIP3   OH230465   1.935   2.115  16.127 -0.7073 -0.1466 -0.2907
 3017TIP3    H130466   2.020   2.093  16.165 -0.9055 -0.0313  0.2394
 3017TIP3    H230467   1.882   2.037  16.141 -1.0064  0.1660  0.3569
 3018TIP3   OH230468   0.478   2.774   0.730  0.5489  0.3497  0.3046
 3018TIP3    H130469   0.468   2.680   0.713  2.2443  0.4915 -1.9178
 3018TIP3    H230470   0.396   2.813   0.699  0.9923 -0.1360 -1.5771
 3019TIP3   OH230471   0.694   4.044   1.122  0.1078 -0.0100 -0.0811
 3019TIP3    H130472   0.630   3.998   1.068  0.7000  0.8568 -1.5861
 3019TIP3    H230473   0.646   4.065   1.202 -1.5739  0.7755 -1.2269
 3020TIP3   OH230474   3.689   5.274  12.147 -0.4680 -0.5023  0.1009
 3020TIP3    H130475   3.766   5.241  12.099 -0.0929 -1.9942  1.6183
 3020TIP3    H230476   3.618   5.270  12.083  0.1462 -1.7981 -0.5473
 3021TIP3   OH230477   4.547   6.497   1.503 -0.1265 -0.2848 -0.2497
 3021TIP3    H130478   4.623   6.531   1.456  2.3912 -2.1601  2.1350
 3021TIP3    H230479   4.535   6.409   1.468  0.9718 -1.2207  1.6203
 3022TIP3   OH230480   6.167   0.867   0.516  0.4913 -0.2512  0.2596
 3022TIP3    H130481   6.209   0.882   0.431 -0.1367  0.8087  0.1132
 3022TIP3    H230482   6.075   0.854   0.496  0.1609  1.0463  0.8394
 3023TIP3   OH230483   3.376   0.639   3.010 -0.1886  0.2518  0.2931
 3023TIP3    H130484   3.442   0.592   2.959  0.9152  0.6388  1.3035
 3023TIP3    H230485   3.294   0.626   2.962  0.5379 -0.6137 -0.7615
 3024TIP3   OH230486   3.818   0.164  15.372 -0.1807 -0.5099  0.6073
 3024TIP3    H130487   3.737   0.133  15.411 -0.1836 -1.2482  0.0367
 3024TIP3    H230488   3.825   0.255  15.401  0.1868 -1.1977  2.8911
 3025TIP3   OH230489   2.989   5.764   1.340 -0.2824  0.0590  0.1934
 3025TIP3    H130490   3.079   5.766   1.373 -0.1569  2.6627 -0.1346
 3025TIP3    H230491   2.946   5.696   1.392  1.5178 -0.2734  1.3289
 3026TIP3   OH230492   2.009   4.180  13.134  0.7504  0.3937  1.4833
 3026TIP3    H130493   2.078   4.124  13.098  0.6050  1.3407 -0.3722
 3026TIP3    H230494   1.928   4.136  13.108  0.6321  0.1072  2.3088
 3027TIP3   OH230495   5.945   1.801   0.907  0.6783 -0.3167 -0.3131
 3027TIP3    H130496   5.923   1.855   0.831  0.6172  1.3051  0.8026
 3027TIP3    H230497   5.867   1.748   0.923  0.0960  0.4875 -0.4350
 3028TIP3   OH230498   3.135   0.821   4.433  0.3837 -0.0396  0.0355
 3028TIP3    H130499   3.147   0.797   4.342 -1.2750  1.5827 -0.6758
 3028TIP3    H230500   3.111   0.740   4.477 -1.4080 -0.4093 -1.5134
 3029TIP3   OH230501   6.414   4.996  16.556  0.2802  0.5201  0.6816
 3029TIP3    H130502   6.419   5.086  16.524  1.3569  0.3835  0.4309
 3029TIP3    H230503   6.452   4.999  16.644  2.1842 -0.0079 -0.0713
 3030TIP3   OH230504   0.376   0.788   4.035  0.1287  0.2660 -0.1944
 3030TIP3    H130505   0.282   0.780   4.017  0.0851  0.3482 -0.0011
 3030TIP3    H230506   0.382   0.790   4.130  0.3534 -0.0566 -0.2003
 3031TIP3   OH230507   0.049   1.425   1.874 -0.3286  0.3323  0.2693
 3031TIP3    H130508  -0.029   1.429   1.930 -1.5359 -0.3151 -1.2869
 3031TIP3    H230509   0.019   1.383   1.793  2.4453 -3.3429  0.8962
 3032TIP3   OH230510   4.425   3.281  13.846  0.3185  0.3170  0.2875
 3032TIP3    H130511   4.467   3.306  13.928  0.0726  1.1810  0.1619
 3032TIP3    H230512   4.364   3.353  13.827 -1.1948 -0.8632  0.4433
 3033TIP3   OH230513   3.697   1.900  11.862 -0.3042  0.3037  0.0228
 3033TIP3    H130514   3.616   1.927  11.820 -0.6379 -0.6259  0.0606
 3033TIP3    H230515   3.723   1.821  11.816  1.4506  1.4457 -1.0700
 3034TIP3   OH230516   1.029   4.408  17.092  0.3759 -0.3218 -0.8159
 3034TIP3    H130517   0.951   4.454  17.061 -0.2760 -0.9738 -0.1951
 3034TIP3    H230518   1.034   4.330  17.036 -1.0580 -1.7318  0.8988
 3035TIP3   OH230519   3.778   2.152   5.917  0.0792 -0.8515  0.4703
 3035TIP3    H130520   3.827   2.131   5.997 -0.5706 -2.3727  0.5044
 3035TIP3    H230521   3.702   2.202   5.948  0.5185 -0.2764  0.6419
 3036TIP3   OH230522   6.724   0.804   1.334 -0.2536  0.1905  0.2599
 3036TIP3    H130523   6.733   0.709   1.330 -1.1988  0.1085 -0.5933
 3036TIP3    H230524   6.794   0.837   1.278  1.6963  0.1614  2.5283
 3037TIP3   OH230525   2.797   3.690   1.574 -0.1935  0.5487 -0.4335
 3037TIP3    H130526   2.721   3.667   1.628  1.1445  0.9533  1.7723
 3037TIP3    H230527   2.776   3.658   1.487 -1.4127 -2.5779  0.8808
 3038TIP3   OH230528   2.974   6.281   6.698 -0.5016  0.1051 -0.2096
 3038TIP3    H130529   3.029   6.352   6.730  0.9682 -0.6752 -0.8790
 3038TIP3    H230530   2.957   6.303   6.607 -0.3238 -0.2176 -0.3235
 3039TIP3   OH230531   6.316   2.472   4.280 -0.5130 -0.0182 -0.0143
 3039TIP3    H130532   6.298   2.415   4.355 -0.8362 -0.2375 -0.2573
 3039TIP3    H230533   6.230   2.505   4.254 -0.4959 -0.5626 -0.7850
 3040TIP3   OH230534   2.877   3.659  16.102  0.1075 -0.2634  0.0692
 3040TIP3    H130535   2.929   3.581  16.124 -1.6272 -2.1950 -2.1338
 3040TIP3    H230536   2.935   3.713  16.050  0.9773 -0.6809  0.5841
 3041TIP3   OH230537   1.280   5.887  16.151 -0.2262 -0.0093  0.3222
 3041TIP3    H130538   1.249   5.866  16.063 -0.6220  0.3907  0.3637
 3041TIP3    H230539   1.365   5.929  16.137 -1.2969  2.1742 -0.0420
 3042TIP3   OH230540   5.007   2.124   5.211 -0.4018  0.3450  0.0679
 3042TIP3    H130541   4.972   2.213   5.215  1.7678  1.3568 -1.6366
 3042TIP3    H230542   5.085   2.127   5.267  0.6254  0.0368 -1.2944
 3043TIP3   OH230543   1.755   3.965   2.974  0.1210  0.2340 -0.5786
 3043TIP3    H130544   1.704   3.981   2.894  0.9181  0.1685 -1.1046
 3043TIP3    H230545   1.743   4.044   3.026  0.1069  0.5362 -1.0366
 3044TIP3   OH230546   0.789   6.584  11.531 -0.3929 -0.1063  0.0831
 3044TIP3    H130547   0.829   6.671  11.530 -1.0090  0.1739 -0.5052
 3044TIP3    H230548   0.843   6.532  11.471 -0.9060  0.2720 -0.7113
 3045TIP3   OH230549   5.692   3.303   3.615  0.7844 -0.1353 -0.1993
 3045TIP3    H130550   5.741   3.258   3.684  0.0992 -2.1836 -0.9663
 3045TIP3    H230551   5.735   3.388   3.607  1.0098  0.1252  2.5873
 3046TIP3   OH230552   0.693   1.231  16.733 -0.5184 -0.1711  0.2385
 3046TIP3    H130553   0.744   1.213  16.654 -0.1629 -0.3019  0.4922
 3046TIP3    H230554   0.611   1.184  16.721 -0.5346 -0.0511 -0.1255
 3047TIP3   OH230555   1.809   6.353   3.320  0.6106  0.3572 -0.6345
 3047TIP3    H130556   1.752   6.292   3.368  1.3698  1.2610  1.5237
 3047TIP3    H230557   1.884   6.300   3.293  1.5472  0.3438  1.7311
 3048TIP3   OH230558   0.449   5.255   0.762 -0.2572  0.1819  0.0949
 3048TIP3    H130559   0.436   5.162   0.749 -0.0053  0.4311 -2.3086
 3048TIP3    H230560   0.442   5.294   0.675 -0.6926  2.4711  1.0564
 3049TIP3   OH230561   2.082   1.808  10.686 -0.4017 -0.3838 -0.2453
 3049TIP3    H130562   2.080   1.885  10.628 -0.8198 -0.0473  0.2061
 3049TIP3    H230563   1.997   1.808  10.729  1.0963  1.5964  3.1986
 3050TIP3   OH230564   1.563   1.364  16.523  0.2659 -0.2884 -0.3261
 3050TIP3    H130565   1.483   1.315  16.505  0.9127 -1.1719 -0.8465
 3050TIP3    H230566   1.541   1.417  16.599 -0.5057 -1.2496  0.1455
 3051TIP3   OH230567   3.394   4.695   2.130  0.5886  0.5883  0.6822
 3051TIP3    H130568   3.375   4.755   2.058  1.9947 -0.1907 -0.3869
 3051TIP3    H230569   3.318   4.702   2.188 -0.7752  0.9483 -1.0642
 3052TIP3   OH230570   6.587   3.958   2.783 -0.8269 -0.0044 -0.0880
 3052TIP3    H130571   6.626   3.883   2.737  0.1501  0.7347 -0.4980
 3052TIP3    H230572   6.503   3.925   2.816  0.1658 -1.6978  0.9256
 3053TIP3   OH230573   1.300   4.419   0.024 -0.0102 -0.1831  0.0718
 3053TIP3    H130574   1.348   4.495  -0.009  0.5050  0.7480  2.7910
 3053TIP3    H230575   1.208   4.447   0.024 -0.1705 -0.5928 -1.4754
 3054TIP3   OH230576   2.104   5.942   3.032 -0.0750 -0.1227  0.2087
 3054TIP3    H130577   2.186   5.914   3.074  1.4675  1.2106 -1.7274
 3054TIP3    H230578   2.070   5.862   2.990 -0.9103 -1.1469  2.6388
 3055TIP3   OH230579   6.041   5.692   3.950 -0.3583 -0.1534  0.1704
 3055TIP3    H130580   6.115   5.633   3.942  0.5878  0.8576  1.0400
 3055TIP3    H230581   6.051   5.732   4.036 -2.1161 -0.2248  0.4625
 3056TIP3   OH230582   0.242   5.414  17.032  1.3300 -0.4663 -0.0989
 3056TIP3    H130583   0.177   5.370  16.977  3.3250 -1.4678 -1.8320
 3056TIP3    H230584   0.255   5.354  17.106  0.9525 -0.7095 -0.2289
 3057TIP3   OH230585   6.393   1.645  16.487  0.2260 -0.2729 -0.5315
 3057TIP3    H130586   6.360   1.723  16.442  0.3409  0.4777  0.6240
 3057TIP3    H230587   6.445   1.600  16.421 -0.6909  0.0686 -1.5303
 3058TIP3   OH230588   3.457   3.472  15.866 -0.4680  0.2450  0.4620
 3058TIP3    H130589   3.436   3.520  15.786  0.4947  0.4414  0.3150
 3058TIP3    H230590   3.484   3.385  15.835 -0.5941  0.1500  0.6162
 3059TIP3   OH230591   3.997   6.210  15.419  0.0341 -0.2523 -0.4634
 3059TIP3    H130592   4.002   6.197  15.513  0.0421 -1.3868 -0.6101
 3059TIP3    H230593   3.977   6.303  15.408 -0.4959 -0.2246  0.6685
 3060TIP3   OH230594   6.107   5.512  15.856  0.4005  0.0146  0.3705
 3060TIP3    H130595   6.114   5.443  15.790  1.9069 -0.0893  0.6217
 3060TIP3    H230596   6.033   5.485  15.910 -0.2209 -0.4205 -0.6556
 3061TIP3   OH230597   3.390   4.558   5.360 -0.2477  0.3188 -0.4607
 3061TIP3    H130598   3.467   4.602   5.395 -0.0084  0.6515 -1.3666
 3061TIP3    H230599   3.394   4.470   5.397  1.2070 -0.0310 -1.3618
 3062TIP3   OH230600   4.149   3.867   2.780 -0.3401 -0.6739  0.1990
 3062TIP3    H130601   4.148   3.782   2.823 -1.8030  0.5798  2.9210
 3062TIP3    H230602   4.233   3.905   2.804 -1.1486  0.0252  2.2290
 3063TIP3   OH230603   3.600   4.359   2.770 -0.2450  0.5292 -0.1316
 3063TIP3    H130604   3.654   4.379   2.846 -1.7352  0.1085  1.0819
 3063TIP3    H230605   3.511   4.353   2.804 -0.6403 -2.5200 -1.3277
 3064TIP3   OH230606   3.315   0.146  11.700 -0.0393 -0.2778  0.0586
 3064TIP3    H130607   3.271   0.211  11.755  2.6715  1.0873  0.8156
 3064TIP3    H230608   3.373   0.099  11.761  1.9327  0.2393 -1.3347
 3065TIP3   OH230609   5.644   6.174   1.847  0.0866 -0.1263  0.0503
 3065TIP3    H130610   5.726   6.216   1.872 -0.6890  1.0695  0.6370
 3065TIP3    H230611   5.576   6.228   1.887 -0.9934 -1.0993 -0.4302
 3066TIP3   OH230612   1.910   4.048  16.133  0.0885 -0.5767  0.3427
 3066TIP3    H130613   1.959   4.102  16.195  0.2514 -0.7659  0.3787
 3066TIP3    H230614   1.818   4.073  16.145  0.2808  0.7084 -0.6184
 3067TIP3   OH230615   0.814   1.446  13.076  0.1163 -0.4990  0.0759
 3067TIP3    H130616   0.807   1.542  13.068 -0.7233 -0.6069 -0.6541
 3067TIP3    H230617   0.830   1.431  13.169 -2.7932  0.2048  0.7805
 3068TIP3   OH230618   3.200   2.777   1.472 -0.5206 -0.3877  0.6721
 3068TIP3    H130619   3.216   2.853   1.527  1.1867 -1.1745  1.3570
 3068TIP3    H230620   3.288   2.745   1.449 -1.1772 -0.6962 -1.6817
 3069TIP3   OH230621   2.969   4.200  11.186  0.6744  0.4988  0.6184
 3069TIP3    H130622   2.980   4.126  11.127  1.9867  1.5236 -0.4850
 3069TIP3    H230623   2.888   4.181  11.233  0.3404 -1.0324 -0.4937
 3070TIP3   OH230624   2.159   4.349  13.380 -0.1002  1.1283  0.2166
 3070TIP3    H130625   2.112   4.268  13.402 -3.1073  2.0476 -2.0889
 3070TIP3    H230626   2.245   4.319  13.351 -0.2622 -0.9826  1.6350
 3071TIP3   OH230627   2.264   1.165   0.158 -0.1370  0.0039  0.2788
 3071TIP3    H130628   2.335   1.111   0.125 -0.3029  0.3068 -0.6203
 3071TIP3    H230629   2.292   1.255   0.140 -0.0902  0.2022  1.2815
 3072TIP3   OH230630   2.968   6.407  13.603  0.0385  0.0785  0.4113
 3072TIP3    H130631   2.922   6.481  13.563 -0.7867 -0.6018  0.0863
 3072TIP3    H230632   2.905   6.372  13.667  0.6025 -0.0577  0.8970
 3073TIP3   OH230633   5.077   6.668  14.152  0.0806  0.0448  0.0191
 3073TIP3    H130634   4.998   6.634  14.194  0.5416 -1.1058  0.0090
 3073TIP3    H230635   5.089   6.612  14.075 -0.7689  2.1497 -1.7158
 3074TIP3   OH230636   2.399   3.850  12.325  0.6315  0.0221 -0.2655
 3074TIP3    H130637   2.424   3.811  12.241 -1.0786 -0.2205 -0.6963
 3074TIP3    H230638   2.327   3.796  12.357 -0.1890  1.3902  0.3026
 3075TIP3   OH230639   6.668   5.281   5.933  0.0606 -0.0216  0.4266
 3075TIP3    H130640   6.757   5.278   5.968 -0.6589 -0.3613  2.3567
 3075TIP3    H230641   6.612   5.274   6.010 -1.6456 -0.8946 -0.8323
 3076TIP3   OH230642   4.000   3.127  12.622 -0.3926 -0.0443  0.1039
 3076TIP3    H130643   4.021   3.171  12.704  0.8402 -1.9157  0.8624
 3076TIP3    H230644   4.026   3.189  12.554 -1.2099  1.4454  1.0880
 3077TIP3   OH230645   1.271   6.429   3.070  0.3125  0.0479  0.5597
 3077TIP3    H130646   1.198   6.380   3.107 -0.1454  0.0938 -0.2536
 3077TIP3    H230647   1.341   6.365   3.062 -0.1454 -0.3862 -0.1016
 3078TIP3   OH230648   5.128   0.392   3.751  0.1216 -0.4302 -0.0489
 3078TIP3    H130649   5.071   0.380   3.827  0.7092  0.8110  0.6112
 3078TIP3    H230650   5.103   0.321   3.692 -1.0744 -0.8019  0.8487
 3079TIP3   OH230651   3.964   4.472  10.684 -0.7201  0.2060  0.4347
 3079TIP3    H130652   3.912   4.550  10.705 -1.5526 -0.2835  0.2502
 3079TIP3    H230653   3.914   4.428  10.615 -0.2566 -0.4809  0.5225
 3080TIP3   OH230654   1.689   5.928   1.690 -0.6643 -0.1295 -0.1686
 3080TIP3    H130655   1.708   5.835   1.705 -0.2257 -0.0300 -0.0866
 3080TIP3    H230656   1.598   5.939   1.717 -0.8228 -0.6069 -0.4886
 3081TIP3   OH230657   2.901   5.285   6.836  0.3125 -0.0898  0.6295
 3081TIP3    H130658   2.904   5.253   6.926 -2.6598 -0.0162  0.8538
 3081TIP3    H230659   2.943   5.371   6.840 -0.2519  0.1457  2.0519
 3082TIP3   OH230660   0.114   2.998   3.091 -0.5151 -0.1872 -0.1427
 3082TIP3    H130661   0.167   2.952   3.155 -2.0296 -2.9774 -0.7393
 3082TIP3    H230662   0.064   3.062   3.143  0.4415 -0.3104  0.9713
 3083TIP3   OH230663   0.911   0.357   0.558  0.1934 -0.4226 -0.2676
 3083TIP3    H130664   0.909   0.453   0.562  1.5905 -0.4282  0.9471
 3083TIP3    H230665   0.849   0.336   0.487  0.5302  1.4010 -1.1751
 3084TIP3   OH230666   6.261   5.188   4.062 -0.5482  0.3225  0.6870
 3084TIP3    H130667   6.187   5.245   4.084 -0.2712  0.9722  0.0083
 3084TIP3    H230668   6.271   5.199   3.967  0.8028  0.7371  0.8584
 3085TIP3   OH230669   5.975   3.878   5.042 -0.3812  0.4277  0.7207
 3085TIP3    H130670   5.972   3.792   5.000  0.9218  0.9015 -0.4208
 3085TIP3    H230671   5.885   3.910   5.039 -0.5396 -0.0872 -0.6244
 3086TIP3   OH230672   4.011   6.523   0.453  0.0294  0.6008 -0.1678
 3086TIP3    H130673   4.024   6.439   0.410 -1.8847 -0.6491  1.5094
 3086TIP3    H230674   4.097   6.564   0.453  1.0464 -1.4304 -0.9126
 3087TIP3   OH230675   4.164   5.435  16.724 -0.4823 -0.5135 -0.3934
 3087TIP3    H130676   4.249   5.431  16.768 -0.0057 -1.1739 -1.3227
 3087TIP3    H230677   4.186   5.443  16.631 -1.4473  1.8023 -0.4900
 3088TIP3   OH230678   4.060   4.525  16.667  0.0555 -0.0139 -0.0552
 3088TIP3    H130679   4.089   4.447  16.618  0.2553 -0.0521  0.1225
 3088TIP3    H230680   4.128   4.590  16.650  0.2901 -0.1276  0.4237
 3089TIP3   OH230681   3.836   3.543  13.975  0.4540 -0.7759  0.4310
 3089TIP3    H130682   3.800   3.601  13.908  0.6359 -0.6453  0.4460
 3089TIP3    H230683   3.759   3.509  14.021  0.2988 -1.3927 -0.2768
 3090TIP3   OH230684   5.210   1.830  10.556 -0.0162 -0.0701 -0.7930
 3090TIP3    H130685   5.160   1.805  10.478  0.2072  0.3369 -1.0693
 3090TIP3    H230686   5.302   1.825  10.528  0.0483  3.0030 -1.5175
 3091TIP3   OH230687   6.016   1.846   2.821 -0.1703 -0.3494  0.4428
 3091TIP3    H130688   5.933   1.832   2.866  0.1614  0.3788  1.3091
 3091TIP3    H230689   6.058   1.760   2.823  0.5791 -0.0121  3.1198
 3092TIP3   OH230690   3.407   0.846  15.869  0.6918 -0.0036  0.2497
 3092TIP3    H130691   3.462   0.831  15.792  1.9957  0.3748  1.0860
 3092TIP3    H230692   3.320   0.863  15.832  1.7744  2.8088 -1.3502
 3093TIP3   OH230693   5.718   3.871   0.004  0.1839 -0.2489  0.1929
 3093TIP3    H130694   5.723   3.874  -0.092 -1.5429 -0.0768  0.0869
 3093TIP3    H230695   5.757   3.787   0.027 -0.5744 -0.8940 -0.7718
 3094TIP3   OH230696   2.265   5.978  12.095 -0.0837 -0.0158 -0.1626
 3094TIP3    H130697   2.256   5.915  12.023 -1.2559 -0.0530 -0.0170
 3094TIP3    H230698   2.177   5.983  12.132  0.0832  1.4171  0.0807
 3095TIP3   OH230699   4.321   1.077  16.869  0.3861  0.2814 -0.6770
 3095TIP3    H130700   4.397   1.131  16.889 -0.0022  1.0024 -1.0963
 3095TIP3    H230701   4.313   1.081  16.773 -0.3389  0.4550 -0.6210
 3096TIP3   OH230702   4.249   0.621  10.558 -0.0566 -0.2554 -0.4271
 3096TIP3    H130703   4.297   0.704  10.562  1.4689 -0.9933 -2.1605
 3096TIP3    H230704   4.280   0.580  10.478 -1.0486 -2.3547  0.2166
 3097TIP3   OH230705   6.392   0.362  16.869  0.4571 -0.0239  0.5940
 3097TIP3    H130706   6.462   0.298  16.875  0.1595 -0.2808  1.3601
 3097TIP3    H230707   6.312   0.310  16.862  0.2766  0.2659  0.4507
 3098TIP3   OH230708   6.093   1.933  14.615  0.4007 -0.0168 -0.1178
 3098TIP3    H130709   6.172   1.976  14.648 -0.0232  0.1127  0.7265
 3098TIP3    H230710   6.069   1.983  14.537 -1.6893  3.1378  2.3229
 3099TIP3   OH230711   4.217   0.137   1.243  0.6557 -0.4171 -0.0504
 3099TIP3    H130712   4.283   0.205   1.255  2.1607 -2.0317  1.5162
 3099TIP3    H230713   4.207   0.130   1.148  0.9544  1.4608 -0.2660
 3100TIP3   OH230714   2.781   4.454  14.010  0.2495  0.5976 -0.2187
 3100TIP3    H130715   2.825   4.534  14.040 -1.7537  1.6392  0.1319
 3100TIP3    H230716   2.710   4.441  14.073  0.6080 -1.5666 -0.2095
 3101TIP3   OH230717   3.826   5.458   0.731 -0.2198 -0.2594 -0.4269
 3101TIP3    H130718   3.793   5.538   0.773  1.3853  0.6888 -0.8894
 3101TIP3    H230719   3.784   5.458   0.645 -1.1929 -0.6040  0.0335
 3102TIP3   OH230720   0.387   4.921   2.287  0.2348  0.2767  0.3441
 3102TIP3    H130721   0.480   4.943   2.280  0.2805 -0.2470 -1.1321
 3102TIP3    H230722   0.371   4.912   2.381  1.2334  2.1270  0.7379
 3103TIP3   OH230723   2.089   0.862  13.265 -0.2477  0.5517  0.6411
 3103TIP3    H130724   2.149   0.936  13.279 -1.7028  1.2315  4.6112
 3103TIP3    H230725   2.144   0.784  13.277  0.4513  1.1070  1.1510
 3104TIP3   OH230726   6.071   0.750   5.593 -0.3516 -0.4977  0.7100
 3104TIP3    H130727   5.998   0.737   5.532  0.0384  0.9542 -0.1218
 3104TIP3    H230728   6.090   0.663   5.627 -1.2037 -1.1992 -0.5376
 3105TIP3   OH230729   5.223   3.887  14.452 -0.4625  0.0669 -0.1514
 3105TIP3    H130730   5.175   3.970  14.441  0.4734  0.8006  1.0127
 3105TIP3    H230731   5.256   3.867  14.364 -0.0450  1.3716 -0.3283
 3106TIP3   OH230732   3.186   1.638   4.579 -0.7432 -0.6012 -0.3092
 3106TIP3    H130733   3.225   1.557   4.612 -1.8784 -1.6619 -1.4341
 3106TIP3    H230734   3.208   1.639   4.486 -0.7434  0.3842 -0.3017
 3107TIP3   OH230735   4.967   4.062  12.087 -0.0147  0.0351 -0.5018
 3107TIP3    H130736   5.039   4.122  12.068  0.1179  0.2937  0.7573
 3107TIP3    H230737   4.888   4.111  12.064  0.0822  0.7711  0.6695
 3108TIP3   OH230738   5.863   2.754   0.222  0.2351 -0.2021 -0.0632
 3108TIP3    H130739   5.860   2.753   0.318 -1.3444 -0.5899 -0.0998
 3108TIP3    H230740   5.775   2.778   0.195  0.5231 -0.5960 -1.4347
 3109TIP3   OH230741   5.830   0.613  16.878  0.2423 -0.1359 -0.1169
 3109TIP3    H130742   5.786   0.537  16.840 -0.6894 -1.0318  2.5350
 3109TIP3    H230743   5.759   0.664  16.918  1.0032  1.5346 -0.7794
 3110TIP3   OH230744   4.776   6.236   0.476 -0.0210 -0.4385  0.3491
 3110TIP3    H130745   4.835   6.160   0.485  2.8284  1.3327 -1.7075
 3110TIP3    H230746   4.697   6.200   0.436  0.9852 -2.4583  0.0393
 3111TIP3   OH230747   2.913   4.831   5.084 -0.2554 -0.6627  0.2292
 3111TIP3    H130748   2.867   4.872   5.158  1.3199  3.1234 -0.6678
 3111TIP3    H230749   2.987   4.786   5.124 -0.4526 -0.2355  1.1052
 3112TIP3   OH230750   4.500   0.771  16.588  0.3710 -0.0617 -0.4646
 3112TIP3    H130751   4.480   0.857  16.626 -1.1994 -0.2091 -0.8825
 3112TIP3    H230752   4.595   0.763  16.595  0.3435  0.7264  1.6816
 3113TIP3   OH230753   0.336   2.868   5.371 -0.1855 -0.2363  0.3158
 3113TIP3    H130754   0.327   2.841   5.280 -1.0750 -0.1379  0.3687
 3113TIP3    H230755   0.430   2.882   5.382  0.3286 -2.9948  0.2131
 3114TIP3   OH230756   2.367   1.746   3.104  0.3163 -0.4963 -0.5731
 3114TIP3    H130757   2.381   1.839   3.126  1.3853 -0.8322  0.2530
 3114TIP3    H230758   2.283   1.724   3.145  0.1653  0.0494 -0.5828
 3115TIP3   OH230759   4.056   5.287  13.844 -0.3518  0.5684  0.0265
 3115TIP3    H130760   3.972   5.254  13.874 -0.5758  0.4523 -0.6932
 3115TIP3    H230761   4.035   5.366  13.795  0.0616  1.0968  0.6803
 3116TIP3   OH230762   3.511   4.163  12.383  0.5463  0.0095  0.3956
 3116TIP3    H130763   3.490   4.085  12.433 -1.0048  1.1048  1.5598
 3116TIP3    H230764   3.426   4.194  12.350  1.1394  1.1319 -0.1346
 3117TIP3   OH230765   0.236   1.986  15.617 -0.0210  0.1790  0.9130
 3117TIP3    H130766   0.315   1.942  15.648 -0.8913 -0.7490  1.8614
 3117TIP3    H230767   0.194   1.922  15.559 -1.7528 -0.6600  2.9959
 3118TIP3   OH230768   4.643   5.162   5.697 -0.0884 -0.5045  0.2572
 3118TIP3    H130769   4.709   5.196   5.758 -1.0852  1.8732  0.1041
 3118TIP3    H230770   4.572   5.130   5.754 -0.7812  1.2159  0.4043
 3119TIP3   OH230771   6.706   0.233  11.126 -0.4311 -0.0509  0.5964
 3119TIP3    H130772   6.692   0.282  11.207 -0.0051  1.2129 -0.0797
 3119TIP3    H230773   6.800   0.217  11.124 -0.0280  2.1063 -0.8355
 3120TIP3   OH230774   1.202   2.168  16.405 -0.2171 -0.4983  0.3383
 3120TIP3    H130775   1.290   2.205  16.407 -0.0975 -0.7685  0.1468
 3120TIP3    H230776   1.192   2.134  16.316 -1.4652  1.7971 -0.4689
 3121TIP3   OH230777   4.516   6.622   0.715  0.2294  0.3733 -0.0334
 3121TIP3    H130778   4.564   6.606   0.796 -2.0985 -0.9830  1.2002
 3121TIP3    H230779   4.537   6.548   0.659 -1.1022 -0.7885  0.9161
 3122TIP3   OH230780   4.179   2.581   3.918 -0.2343  0.2145 -0.0853
 3122TIP3    H130781   4.238   2.655   3.903 -1.1233  0.9119 -0.2471
 3122TIP3    H230782   4.097   2.608   3.876 -0.6058 -0.8134 -0.0293
 3123TIP3   OH230783   5.782   1.873   4.148 -0.1795  0.5212 -0.4594
 3123TIP3    H130784   5.743   1.827   4.074  1.3763 -1.1027 -0.3422
 3123TIP3    H230785   5.765   1.816   4.223  1.8610  0.0131 -0.3194
 3124TIP3   OH230786   5.945   5.785  16.925 -0.4053  0.6766 -0.0318
 3124TIP3    H130787   5.950   5.747  17.013 -1.1164  2.3029  0.7567
 3124TIP3    H230788   6.034   5.816  16.908 -0.1473 -0.0843 -0.1072
 3125TIP3   OH230789   2.759   0.644   3.746  0.0707  0.1956 -0.1101
 3125TIP3    H130790   2.665   0.637   3.760  0.0320  2.3179  1.1475
 3125TIP3    H230791   2.780   0.573   3.685 -2.6015  0.6585 -1.7295
 3126TIP3   OH230792   2.449   5.883  15.808  0.1668  0.1058 -0.5541
 3126TIP3    H130793   2.436   5.977  15.793  1.1913  0.2310 -0.7544
 3126TIP3    H230794   2.361   5.846  15.807 -0.3329  1.2071  0.5498
 3127TIP3   OH230795   2.129   1.177   0.404 -0.2244  0.1523 -0.7691
 3127TIP3    H130796   2.182   1.156   0.327  1.0538 -3.8355  0.9630
 3127TIP3    H230797   2.048   1.127   0.392  0.1554 -0.8453  0.5969
 3128TIP3   OH230798   2.103   5.494   2.827 -0.5407 -0.5844  0.5861
 3128TIP3    H130799   2.146   5.510   2.743 -0.8541  0.8624  0.6856
 3128TIP3    H230800   2.079   5.401   2.824  1.8873 -1.2744  0.2288
 3129TIP3   OH230801   5.765   5.444  12.546  0.0948  0.0754 -0.4988
 3129TIP3    H130802   5.740   5.392  12.622 -2.5722 -0.8717 -1.8835
 3129TIP3    H230803   5.722   5.529  12.560 -1.6397 -0.5703 -1.4991
 3130TIP3   OH230804   3.578   0.361  11.382  0.4582 -0.1436 -0.0685
 3130TIP3    H130805   3.521   0.385  11.309  2.3107 -0.6897 -1.7555
 3130TIP3    H230806   3.523   0.374  11.460 -1.2880  1.3248 -1.4588
 3131TIP3   OH230807   3.331   3.757   2.367 -0.3038 -0.3579  0.3368
 3131TIP3    H130808   3.333   3.772   2.461  1.2342 -2.7726  0.7641
 3131TIP3    H230809   3.268   3.686   2.355 -1.6243  0.9111 -0.6961
 3132TIP3   OH230810   4.186   4.126   2.658  0.0289  0.4063 -0.3679
 3132TIP3    H130811   4.141   4.050   2.621 -2.0238  0.9682  0.8406
 3132TIP3    H230812   4.251   4.149   2.591 -0.8800 -0.9668 -1.8185
 3133TIP3   OH230813   1.792   6.457  16.931  0.5243  0.0760  0.7143
 3133TIP3    H130814   1.708   6.490  16.900  0.9143  2.0150  1.5691
 3133TIP3    H230815   1.772   6.415  17.015  0.1562 -1.2033  0.0212
 3134TIP3   OH230816   4.500   0.720  13.860 -0.1983  0.1747  0.3150
 3134TIP3    H130817   4.575   0.725  13.919  0.1039 -1.9818  0.1688
 3134TIP3    H230818   4.432   0.674  13.909 -0.2799 -0.7906 -0.6585
 3135TIP3   OH230819   2.236   2.355  17.050  0.3840 -0.4340  0.0370
 3135TIP3    H130820   2.241   2.451  17.054 -1.7762 -0.2956  0.6650
 3135TIP3    H230821   2.326   2.327  17.034  1.1818  1.6690  0.5018
 3136TIP3   OH230822   2.918   6.673   4.110  0.1889 -0.3944 -0.0481
 3136TIP3    H130823   3.012   6.671   4.127  0.7595 -3.6384 -2.5340
 3136TIP3    H230824   2.907   6.739   4.042  0.4397  0.8061  1.0468
 3137TIP3   OH230825   3.277   2.289  14.753  0.4028  0.0906  0.6226
 3137TIP3    H130826   3.308   2.212  14.704  1.4006 -0.0476  1.4430
 3137TIP3    H230827   3.265   2.356  14.686 -0.1450 -0.6694 -0.0637
 3138TIP3   OH230828   6.615   5.472   1.336  0.1307  0.0020 -0.2945
 3138TIP3    H130829   6.579   5.398   1.285  0.4752  0.0347 -0.5846
 3138TIP3    H230830   6.694   5.437   1.376  0.1662  0.1448 -0.2411
 3139TIP3   OH230831   3.577   2.859  14.081  0.6115  0.1816 -0.0819
 3139TIP3    H130832   3.595   2.932  14.140 -0.3301 -0.5579  1.1687
 3139TIP3    H230833   3.640   2.791  14.106  1.0235  0.2984 -0.7726
 3140TIP3   OH230834   1.283   4.326  11.338  0.3551 -0.7200 -0.9948
 3140TIP3    H130835   1.237   4.410  11.339 -0.7551 -1.3086 -0.5372
 3140TIP3    H230836   1.225   4.268  11.288  0.3039 -1.6266  0.0781
 3141TIP3   OH230837   2.421   2.453  13.608  0.0508  0.5601  0.0711
 3141TIP3    H130838   2.408   2.414  13.522 -0.5407  0.6593  0.1056
 3141TIP3    H230839   2.506   2.421  13.637  0.2770  0.5762 -0.5753
 3142TIP3   OH230840   1.667   5.898  16.517  0.0218  0.0666  0.1995
 3142TIP3    H130841   1.644   5.885  16.609  1.3662 -1.3227  0.3755
 3142TIP3    H230842   1.762   5.907  16.517 -0.0596  1.4089 -0.9421
 3143TIP3   OH230843   0.186   3.033  12.684  0.2682 -0.7315  1.0038
 3143TIP3    H130844   0.228   3.104  12.636 -0.2186 -1.3098 -0.3454
 3143TIP3    H230845   0.097   3.030  12.648  0.5754 -2.6497  0.3164
 3144TIP3   OH230846   5.986   0.486  15.996 -0.0279 -0.2190 -0.1402
 3144TIP3    H130847   6.073   0.453  16.018  0.9951  1.5983 -1.1975
 3144TIP3    H230848   6.003   0.571  15.956 -2.4662  1.6661  2.4520
 3145TIP3   OH230849   4.522   5.661  13.451  0.2673 -0.0408  0.5795
 3145TIP3    H130850   4.563   5.577  13.433 -0.5801 -0.5590  1.0160
 3145TIP3    H230851   4.489   5.690  13.365 -2.4385 -1.7984  0.8980
 3146TIP3   OH230852   0.341   2.293   1.243  0.0222 -0.3912  0.1749
 3146TIP3    H130853   0.400   2.271   1.171 -0.4022 -0.8334 -0.0468
 3146TIP3    H230854   0.384   2.366   1.288 -0.9239  1.6537 -2.0397
 3147TIP3   OH230855   5.760   0.766   4.546  0.3548  0.6373  0.0232
 3147TIP3    H130856   5.708   0.794   4.470  0.4691  0.7192 -0.0242
 3147TIP3    H230857   5.714   0.804   4.621 -0.5219 -0.5552  0.1102
 3148TIP3   OH230858   6.733   4.433  11.823 -0.0799 -0.8997  0.6410
 3148TIP3    H130859   6.776   4.357  11.863  1.2978 -0.2952  0.3671
 3148TIP3    H230860   6.785   4.508  11.852 -0.6765 -0.1854 -0.0911
 3149TIP3   OH230861   6.191   5.835   4.924 -0.2476  0.1189 -0.0987
 3149TIP3    H130862   6.151   5.813   4.840  0.3734 -0.7006 -0.1889
 3149TIP3    H230863   6.278   5.795   4.921  0.0412  0.6655  0.6639
 3150TIP3   OH230864   1.028   6.731   4.088  0.1247  0.2988  0.3963
 3150TIP3    H130865   1.044   6.673   4.163  1.3160  2.2657  1.7431
 3150TIP3    H230866   1.115   6.747   4.051 -0.3782 -0.1162 -1.0553
 3151TIP3   OH230867   4.730   5.257   3.617  0.4024  0.1688 -0.0612
 3151TIP3    H130868   4.794   5.316   3.657 -1.3966  1.6952  0.7040
 3151TIP3    H230869   4.733   5.178   3.671  1.3361  0.3807  0.2045
 3152TIP3   OH230870   6.451   5.374   3.566 -0.0197 -0.3302 -0.0238
 3152TIP3    H130871   6.409   5.436   3.625 -1.3162  0.5943 -1.8376
 3152TIP3    H230872   6.541   5.406   3.557 -0.6781  1.3268 -0.9465
 3153TIP3   OH230873   0.618   3.246  16.333  0.2924  0.2201  1.2958
 3153TIP3    H130874   0.560   3.316  16.304 -1.5203 -1.3095  1.0257
 3153TIP3    H230875   0.698   3.258  16.281 -1.0217  0.4752 -0.7640
 3154TIP3   OH230876   4.841   0.536   2.988  0.3127  0.3603 -0.2317
 3154TIP3    H130877   4.823   0.610   2.930  1.4919  0.3246 -0.6558
 3154TIP3    H230878   4.819   0.569   3.075 -1.0013  0.5761 -0.6209
 3155TIP3   OH230879   3.559   6.742   0.963  0.1532 -0.2884 -0.4253
 3155TIP3    H130880   3.645   6.728   0.924 -0.3673  0.2868 -1.8485
 3155TIP3    H230881   3.561   6.833   0.993 -0.1173 -0.1142 -0.9209
 3156TIP3   OH230882   3.649   6.119  16.028  1.2742  0.1330 -0.0008
 3156TIP3    H130883   3.682   6.207  16.046  1.0284  0.4764 -1.1884
 3156TIP3    H230884   3.562   6.117  16.067  1.3415  0.3646  0.1605
 3157TIP3   OH230885   1.116   0.333  16.783  0.4855  0.0911  0.1060
 3157TIP3    H130886   1.095   0.240  16.785  0.0990  0.1878  0.4906
 3157TIP3    H230887   1.211   0.337  16.799  1.0969 -0.4209 -2.6932
 3158TIP3   OH230888   4.315   0.496  15.175 -0.3653 -0.3944  0.2572
 3158TIP3    H130889   4.320   0.444  15.255 -0.7318 -1.0594 -0.1439
 3158TIP3    H230890   4.404   0.527  15.161 -0.7330  1.7915  2.2457
 3159TIP3   OH230891   5.084   4.279  11.971  0.4182 -0.0245  0.4452
 3159TIP3    H130892   5.068   4.362  12.016 -0.7469  0.7946 -1.3789
 3159TIP3    H230893   5.159   4.297  11.914 -0.6763  0.2631 -0.9793
 3160TIP3   OH230894   0.390   1.375   4.471  0.0262 -0.2060 -0.4964
 3160TIP3    H130895   0.413   1.333   4.389 -1.4063  1.7573 -1.9961
 3160TIP3    H230896   0.302   1.409   4.457 -0.1910  0.3686  1.8011
 3161TIP3   OH230897   5.901   6.735  12.458 -0.2500  0.1423  0.0334
 3161TIP3    H130898   5.909   6.780  12.375  1.0734 -0.2835 -0.0863
 3161TIP3    H230899   5.832   6.782  12.505  0.5729  1.8109 -0.3805
 3162TIP3   OH230900   0.965   5.782   2.763 -0.3341 -0.0219  0.7278
 3162TIP3    H130901   0.994   5.693   2.744  2.0669  0.6940  0.6178
 3162TIP3    H230902   0.906   5.804   2.692  1.7022 -0.4068 -1.2143
 3163TIP3   OH230903   2.061   0.158  16.365 -0.2348 -0.9037 -0.0798
 3163TIP3    H130904   2.037   0.090  16.427 -3.1221  1.0804  1.2140
 3163TIP3    H230905   2.001   0.145  16.291 -0.2162 -0.3277 -0.2020
 3164TIP3   OH230906   2.276   0.313  14.902  0.7361  0.5509 -0.4913
 3164TIP3    H130907   2.202   0.305  14.841 -1.3733  0.3871  1.9388
 3164TIP3    H230908   2.259   0.394  14.950  2.4650  0.7841 -0.2039
 3165TIP3   OH230909   3.194   5.948  15.705  0.4581  0.5095  0.0019
 3165TIP3    H130910   3.113   5.991  15.733 -0.8876 -1.2180 -1.0634
 3165TIP3    H230911   3.260   5.980  15.767 -0.9391  2.2013  0.7205
 3166TIP3   OH230912   1.257   1.752   0.393 -0.0144 -0.1582 -0.5681
 3166TIP3    H130913   1.176   1.792   0.425 -0.9143 -0.2864 -2.5307
 3166TIP3    H230914   1.324   1.820   0.407 -0.5858  0.2142  0.4469
 3167TIP3   OH230915   4.105   0.621   0.678  0.2500  0.4067  0.3922
 3167TIP3    H130916   4.089   0.703   0.632  1.6444  0.4934  0.0125
 3167TIP3    H230917   4.049   0.557   0.634 -0.6363  1.0806  0.5087
 3168TIP3   OH230918   1.212   0.229  13.593  0.1460  0.3860  0.1131
 3168TIP3    H130919   1.289   0.269  13.635  0.8767 -0.9935  0.1427
 3168TIP3    H230920   1.248   0.182  13.518 -0.2285 -2.5667  1.6416
 3169TIP3   OH230921   0.819   1.943  16.406 -0.0185 -0.2162  0.4176
 3169TIP3    H130922   0.821   2.026  16.453 -3.4589  0.9189 -1.0958
 3169TIP3    H230923   0.730   1.910  16.418 -0.2754 -1.1850 -2.9495
 3170TIP3   OH230924   2.460   4.630  14.074  0.7065  0.5952  0.0337
 3170TIP3    H130925   2.546   4.605  14.040  1.2001  0.1567  1.5199
 3170TIP3    H230926   2.398   4.601  14.008  1.4969 -1.6481  0.2001
 3171TIP3   OH230927   1.756   4.615   0.124 -0.3603 -0.5067  0.1374
 3171TIP3    H130928   1.832   4.634   0.180 -1.0053 -2.8196  1.9600
 3171TIP3    H230929   1.716   4.700   0.108  1.8338  0.6137  0.2706
 3172TIP3   OH230930   6.628   1.042   1.457  0.1617 -0.3632  0.1332
 3172TIP3    H130931   6.674   0.959   1.444 -1.2787 -0.9080 -2.0011
 3172TIP3    H230932   6.682   1.106   1.411  1.9994  0.2770  2.8922
 3173TIP3   OH230933   3.491   0.038   3.015 -0.2908 -0.0590  0.0952
 3173TIP3    H130934   3.528   0.115   3.057 -0.1621 -0.2577  0.3433
 3173TIP3    H230935   3.473   0.067   2.925 -2.7191  1.0737  0.8555
 3174TIP3   OH230936   6.501   6.618   3.618 -0.0899  0.2613 -0.2768
 3174TIP3    H130937   6.443   6.689   3.644  1.5861  2.3369 -1.8149
 3174TIP3    H230938   6.496   6.555   3.690 -2.5419  1.3439  0.6036
 3175TIP3   OH230939   0.131   3.869  16.991  0.2517 -0.1222  0.3063
 3175TIP3    H130940   0.129   3.950  16.940 -0.7759  0.2857  0.9624
 3175TIP3    H230941   0.044   3.829  16.977  1.1758 -1.8114 -1.0711
 3176TIP3   OH230942   2.415   1.239  15.707  0.5952  0.5343  0.3202
 3176TIP3    H130943   2.394   1.259  15.798 -0.4949  0.8553  0.0125
 3176TIP3    H230944   2.365   1.303  15.656  2.2208  1.2164 -0.4733
 3177TIP3   OH230945   0.986   1.783  13.756  0.7656  0.0379  0.1531
 3177TIP3    H130946   1.040   1.841  13.810 -0.3576  2.1406 -0.8500
 3177TIP3    H230947   0.946   1.723  13.819  0.6214  1.4677  1.5047
 3178TIP3   OH230948   5.209   5.912   2.208 -0.2561 -0.4466 -0.4776
 3178TIP3    H130949   5.253   5.997   2.206 -1.1740  0.0715  0.3485
 3178TIP3    H230950   5.187   5.898   2.300  0.0068 -1.6620 -0.5781
 3179TIP3   OH230951   3.014   5.402   6.572  0.2015 -0.2074 -0.2472
 3179TIP3    H130952   3.057   5.476   6.530  0.8814 -0.9906 -0.9637
 3179TIP3    H230953   3.038   5.409   6.664 -0.8348  1.1963 -0.0525
 3180TIP3   OH230954   0.962   1.212   3.599 -0.6455  0.2749 -0.6860
 3180TIP3    H130955   0.993   1.272   3.666 -1.1411 -2.2874  2.0619
 3180TIP3    H230956   1.003   1.128   3.621 -0.2732 -0.5927 -4.0872
 3181TIP3   OH230957   5.371   3.102   3.042  0.9393  0.0604  0.0107
 3181TIP3    H130958   5.289   3.136   3.006  2.4856  2.8635 -1.1449
 3181TIP3    H230959   5.380   3.015   3.002 -0.6432  0.3776 -1.1419
 3182TIP3   OH230960   4.174   0.022  10.892  0.3094  0.7540  0.0708
 3182TIP3    H130961   4.224   0.070  10.958 -0.9304  0.5435  1.2028
 3182TIP3    H230962   4.228  -0.056  10.875  2.2221  2.3280 -1.6221
 3183TIP3   OH230963   0.153   2.334   2.573  0.3689 -0.2170  0.1681
 3183TIP3    H130964   0.199   2.415   2.593 -1.0082  0.2501  1.7434
 3183TIP3    H230965   0.219   2.265   2.585  0.7943  0.4489  1.9792
 3184TIP3   OH230966   3.536   0.057  14.230 -0.2520 -0.3897  0.4400
 3184TIP3    H130967   3.493   0.139  14.253 -0.4530 -0.5334  0.5775
 3184TIP3    H230968   3.564   0.069  14.140  0.5121  0.1669  0.7425
 3185TIP3   OH230969   1.411   5.994  16.459  0.5346  0.1659  0.2885
 3185TIP3    H130970   1.501   5.962  16.469 -0.9652 -4.4668  1.5982
 3185TIP3    H230971   1.384   6.018  16.548 -0.0137 -0.1536  0.2123
 3186TIP3   OH230972   6.377   3.686   5.374 -0.3659  0.2596  0.2831
 3186TIP3    H130973   6.345   3.666   5.462 -1.2553 -1.2628 -0.3489
 3186TIP3    H230974   6.320   3.756   5.343 -0.6841  0.1211  0.5525
 3187TIP3   OH230975   0.868   2.928   2.091 -0.2119  0.0545 -0.3077
 3187TIP3    H130976   0.774   2.913   2.088 -0.3930  0.6744  1.2435
 3187TIP3    H230977   0.878   3.022   2.074  0.3625 -0.4186 -2.9894
 3188TIP3   OH230978   1.746   0.876   4.287  0.2696 -0.6510 -0.0049
 3188TIP3    H130979   1.718   0.786   4.306 -1.3420  0.0055  0.8286
 3188TIP3    H230980   1.667   0.920   4.256  1.2641  0.2430 -1.4040
 3189TIP3   OH230981   1.187   4.348   4.755  0.0669  0.2261 -0.0339
 3189TIP3    H130982   1.276   4.378   4.772  1.2835 -2.0236 -1.7940
 3189TIP3    H230983   1.155   4.406   4.686  0.2717  0.8579  0.3969
 3190TIP3   OH230984   0.026   1.346  15.811 -0.2903  0.2363  0.3936
 3190TIP3    H130985  -0.055   1.317  15.769 -1.8900  1.5328  2.3994
 3190TIP3    H230986   0.069   1.401  15.745 -0.6373 -1.0128 -0.9366
 3191TIP3   OH230987   5.719   0.470   0.325  0.4055  0.2315 -0.1868
 3191TIP3    H130988   5.759   0.423   0.252 -0.8400 -1.7484  0.3244
 3191TIP3    H230989   5.758   0.430   0.403  1.5247  2.1332  0.2695
 3192TIP3   OH230990   6.606   5.256  12.736  0.1840  0.3914  0.1418
 3192TIP3    H130991   6.667   5.219  12.799  1.1389 -1.0183 -1.5144
 3192TIP3    H230992   6.649   5.245  12.651 -1.4035  1.4341 -0.8658
 3193TIP3   OH230993   1.374   0.496  17.091 -0.0904 -0.3349 -0.2972
 3193TIP3    H130994   1.404   0.432  17.027  0.8306 -0.9583  0.7194
 3193TIP3    H230995   1.437   0.567  17.087 -0.5881  0.0888 -0.7649
 3194TIP3   OH230996   4.280   0.067   3.372 -0.1544  0.4279 -0.5695
 3194TIP3    H130997   4.211   0.127   3.400 -1.4603 -1.4702  0.5096
 3194TIP3    H230998   4.339   0.060   3.448 -1.4889 -1.6232  0.3724
 3195TIP3   OH230999   5.117   4.651   3.567 -0.2179  0.1440  0.4176
 3195TIP3    H131000   5.083   4.580   3.622  0.3291 -0.5879 -0.1727
 3195TIP3    H231001   5.085   4.731   3.609  1.5680 -0.2729  2.8024
 3196TIP3   OH231002   4.913   4.679   1.827 -0.1134  0.3415  0.2751
 3196TIP3    H131003   4.964   4.601   1.847  2.5306  2.4542  2.7197
 3196TIP3    H231004   4.852   4.687   1.901 -1.1845  0.0108 -0.5581
 3197TIP3   OH231005   3.783   6.198  16.861  0.3746  0.0596  0.1424
 3197TIP3    H131006   3.743   6.279  16.892  2.9320  1.7608 -0.5651
 3197TIP3    H231007   3.729   6.171  16.787 -1.2158  0.4303  1.1379
 3198TIP3   OH231008   1.123   6.295  12.573 -0.1463  0.4798  0.0761
 3198TIP3    H131009   1.193   6.335  12.521  0.7846 -2.0107 -0.7076
 3198TIP3    H231010   1.142   6.201  12.571 -1.7635  0.0098  2.4827
 3199TIP3   OH231011   6.198   0.885   1.614 -0.1501  0.3550  0.6858
 3199TIP3    H131012   6.272   0.912   1.560  0.0655 -1.7698 -0.1640
 3199TIP3    H231013   6.235   0.820   1.675 -0.8732  0.9752  1.8222
 3200TIP3   OH231014   1.484   4.987  11.569 -0.0503 -0.1797  0.7398
 3200TIP3    H131015   1.500   5.012  11.478 -0.0884 -0.6029  0.6155
 3200TIP3    H231016   1.559   5.021  11.617 -0.2304  0.4087  0.6190
 3201TIP3   OH231017   3.184   2.720   4.761 -0.7581 -0.1192 -0.4721
 3201TIP3    H131018   3.244   2.794   4.772 -1.0614  0.3952 -2.0343
 3201TIP3    H231019   3.151   2.702   4.849 -0.0180  1.0415  0.0594
 3202TIP3   OH231020   0.719   1.188   0.606 -0.2160 -0.1822  0.1020
 3202TIP3    H131021   0.810   1.161   0.601  0.2410  1.0536  1.1830
 3202TIP3    H231022   0.722   1.278   0.639 -1.7263  0.6661 -1.8022
 3203TIP3   OH231023   1.524   6.789   4.781  0.3610 -0.7497 -0.2988
 3203TIP3    H131024   1.617   6.812   4.789  0.3752 -0.8579 -0.1537
 3203TIP3    H231025   1.501   6.815   4.692 -0.5586  3.1867  0.9071
 3204TIP3   OH231026   5.358   4.396   4.382  0.2555 -0.1003 -0.5066
 3204TIP3    H131027   5.373   4.421   4.474  0.8058 -0.5707 -0.4656
 3204TIP3    H231028   5.430   4.438   4.334  0.5395 -0.6661 -0.5861
 3205TIP3   OH231029   3.209   3.861   1.464 -0.6438 -0.0088 -0.1806
 3205TIP3    H131030   3.177   3.871   1.374 -1.9009 -1.0483  0.1286
 3205TIP3    H231031   3.192   3.946   1.504  0.0284  0.5001 -0.9446
 3206TIP3   OH231032   3.287   4.364  15.198  0.3457  0.5153  0.3940
 3206TIP3    H131033   3.285   4.268  15.191 -0.3966  0.4999  0.6820
 3206TIP3    H231034   3.226   4.394  15.130  0.6512  0.7900  0.2389
 3207TIP3   OH231035   0.286   5.188  14.609  0.1913 -0.1272  0.0116
 3207TIP3    H131036   0.340   5.166  14.685 -0.0851 -0.7142  0.0406
 3207TIP3    H231037   0.252   5.104  14.578  3.2040 -0.4458 -2.9919
 3208TIP3   OH231038   3.129   5.208   5.845 -0.7132 -0.2843 -0.3535
 3208TIP3    H131039   3.198   5.197   5.780 -0.2257 -1.5992  0.3590
 3208TIP3    H231040   3.104   5.300   5.837  3.3039  1.2062  1.5068
 3209TIP3   OH231041   2.208   4.672  15.985 -0.3227 -1.2450  0.0812
 3209TIP3    H131042   2.196   4.580  16.009  0.1265 -1.1358  0.7515
 3209TIP3    H231043   2.285   4.671  15.928 -1.4179 -1.5105 -1.4476
 3210TIP3   OH231044   4.059   3.022   5.069 -0.3416  0.0345 -0.3900
 3210TIP3    H131045   4.103   2.996   5.151 -1.0972  0.2741  0.1009
 3210TIP3    H231046   4.131   3.045   5.010  0.4439 -3.2518 -0.9326
 3211TIP3   OH231047   4.111   0.743  11.986 -0.2685  0.1540 -0.4814
 3211TIP3    H131048   4.155   0.825  12.008  2.2766 -1.3252  0.4047
 3211TIP3    H231049   4.130   0.729  11.893 -0.0085  0.1875 -0.4346
 3212TIP3   OH231050   0.696   6.645  14.158 -0.0524  0.4283  0.3152
 3212TIP3    H131051   0.619   6.655  14.215 -0.4343 -0.7355  0.0255
 3212TIP3    H231052   0.719   6.553  14.165 -0.4522  0.1282 -1.8548
 3213TIP3   OH231053   0.244   5.522  15.417  0.4270 -0.0498 -0.2372
 3213TIP3    H131054   0.250   5.452  15.351 -0.5540 -0.7212  0.3542
 3213TIP3    H231055   0.163   5.568  15.395  0.8409  0.6395 -0.3533
 3214TIP3   OH231056   2.527   0.347   5.673 -0.5279  0.2605 -0.3900
 3214TIP3    H131057   2.582   0.277   5.637  0.7221  0.7577  0.4489
 3214TIP3    H231058   2.496   0.312   5.756 -0.2764  0.5123 -0.1858
 3215TIP3   OH231059   2.833   4.753  15.396 -0.0553 -0.0622 -0.3710
 3215TIP3    H131060   2.843   4.848  15.398  0.5924 -0.1207 -0.4376
 3215TIP3    H231061   2.879   4.722  15.474  0.1341 -0.3436 -0.5859
 3216TIP3   OH231062   1.323   5.366  14.423 -0.2565 -0.3732  0.1256
 3216TIP3    H131063   1.380   5.437  14.395 -1.3207 -0.1174 -1.5171
 3216TIP3    H231064   1.380   5.290  14.430  0.1575 -0.4302 -2.7507
 3217TIP3   OH231065   1.649   6.107  11.450  0.2966 -0.1857 -0.0242
 3217TIP3    H131066   1.712   6.112  11.522  0.2197  0.0671  0.0247
 3217TIP3    H231067   1.666   6.022  11.410 -1.8813 -1.9195  2.3665
 3218TIP3   OH231068   1.713   5.383   0.532 -0.2722 -0.2927 -0.6538
 3218TIP3    H131069   1.659   5.309   0.503  0.5082 -2.0188  1.9561
 3218TIP3    H231070   1.794   5.342   0.564 -0.0607  1.6013  1.4715
 3219TIP3   OH231071   6.609   3.408  16.675 -0.0533 -0.3118 -0.0519
 3219TIP3    H131072   6.664   3.456  16.614  0.8656 -0.4395  0.6535
 3219TIP3    H231073   6.566   3.342  16.621  0.6253 -0.3241 -0.5933
 3220TIP3   OH231074   2.969   1.409  12.939 -0.2372 -0.5302  0.8884
 3220TIP3    H131075   2.892   1.412  12.882  0.5095 -1.6060 -0.2341
 3220TIP3    H231076   2.984   1.316  12.953  1.7742 -0.4200 -0.2144
 3221TIP3   OH231077   0.918   1.285   1.464  0.1722  0.5410 -0.2082
 3221TIP3    H131078   0.857   1.278   1.538  0.7115  1.7935  0.3636
 3221TIP3    H231079   0.870   1.335   1.398 -0.2191 -0.3714 -0.6364
 3222TIP3   OH231080   2.864   3.377  13.105 -0.1982  0.0256 -0.3958
 3222TIP3    H131081   2.769   3.393  13.105 -0.4317 -1.1916  0.2081
 3222TIP3    H231082   2.882   3.344  13.193  0.8155  0.3447 -0.4721
 3223TIP3   OH231083   3.777   6.047   1.045 -0.3012  0.2010 -0.0796
 3223TIP3    H131084   3.774   6.065   0.951 -1.6627 -1.1728 -0.3517
 3223TIP3    H231085   3.751   5.955   1.052  3.3841 -0.9078  1.3829
 3224TIP3   OH231086   1.475   2.891   4.365  0.1664  0.4272 -0.3824
 3224TIP3    H131087   1.465   2.968   4.421  0.0510 -0.1706  0.4207
 3224TIP3    H231088   1.420   2.911   4.289  1.0354  1.6349 -0.7387
 3225TIP3   OH231089   0.725   6.780  16.007 -0.2448 -0.9962  0.8066
 3225TIP3    H131090   0.775   6.805  15.929  1.8262  3.0632  3.0953
 3225TIP3    H231091   0.791   6.758  16.072 -1.6812 -0.8665  2.3913
 3226TIP3   OH231092   1.313   6.556   1.373 -0.0284  0.2832 -0.2156
 3226TIP3    H131093   1.337   6.647   1.389 -1.5986  0.7859 -0.5113
 3226TIP3    H231094   1.388   6.505   1.403  0.3664  1.6075  1.1642
 3227TIP3   OH231095   5.130   4.680  15.902  0.2735 -0.4921 -0.1897
 3227TIP3    H131096   5.112   4.645  15.989  0.1156 -1.6275 -0.6619
 3227TIP3    H231097   5.162   4.605  15.852 -0.0987  0.0255 -1.2402
 3228TIP3   OH231098   0.479   2.779  11.434  0.4752 -0.2497  0.2190
 3228TIP3    H131099   0.445   2.854  11.384  3.3571 -0.1251 -1.7997
 3228TIP3    H231100   0.474   2.806  11.525  1.1855  2.3475 -0.4396
 3229TIP3   OH231101   2.032   2.897   5.585  0.1078 -0.4177  0.8082
 3229TIP3    H131102   2.093   2.939   5.647  0.1248  0.1880  0.3871
 3229TIP3    H231103   2.082   2.823   5.550  0.6490  0.1288  0.3967
 3230TIP3   OH231104   1.875   0.958  16.201  0.0790 -0.1452 -0.2048
 3230TIP3    H131105   1.868   0.875  16.248 -0.2808 -0.1351 -0.2402
 3230TIP3    H231106   1.831   1.021  16.257  0.6149  0.0813 -0.0384
 3231TIP3   OH231107   2.347   0.047   4.998 -0.3688 -0.1683 -0.5288
 3231TIP3    H131108   2.399   0.113   5.045  1.5766 -0.1220 -2.5702
 3231TIP3    H231109   2.327  -0.019   5.064  1.4279  0.3341  0.5933
 3232TIP3   OH231110   0.168   1.418   1.433  0.1076 -0.3486 -0.0964
 3232TIP3    H131111   0.202   1.329   1.441  1.8783  0.1562 -1.3029
 3232TIP3    H231112   0.084   1.409   1.390 -0.4485 -1.5326  1.1817
 3233TIP3   OH231113   2.849   3.522  12.489  0.4033  0.3866 -0.3616
 3233TIP3    H131114   2.924   3.463  12.495  0.2906  0.3440  1.1498
 3233TIP3    H231115   2.780   3.478  12.539 -0.5305  0.5840 -1.4407
 3234TIP3   OH231116   4.888   2.395   6.253  0.5648 -0.1507  0.3557
 3234TIP3    H131117   4.929   2.438   6.328 -0.9767 -0.8624  1.6723
 3234TIP3    H231118   4.904   2.302   6.267 -0.3156 -0.3384  0.1987
 3235TIP3   OH231119   2.410   0.987   2.259 -0.2330 -0.2226 -0.7234
 3235TIP3    H131120   2.474   1.051   2.228 -0.0379 -0.3914 -0.6690
 3235TIP3    H231121   2.335   0.999   2.201  0.2802 -0.8244 -1.5349
 3236TIP3   OH231122   4.645   3.258   0.772  0.0133 -0.2850 -0.4587
 3236TIP3    H131123   4.622   3.327   0.834 -2.5738 -1.3243 -0.1299
 3236TIP3    H231124   4.668   3.183   0.827  0.4356 -0.3997 -0.7894
 3237TIP3   OH231125   0.812   3.014  12.539  0.2708  0.7691 -0.3761
 3237TIP3    H131126   0.738   3.074  12.540 -0.3560  0.0289 -1.1979
 3237TIP3    H231127   0.855   3.029  12.455 -0.5003 -0.6388 -1.0516
 3238TIP3   OH231128   5.621   0.645   6.523  1.1806  0.3876  0.4610
 3238TIP3    H131129   5.708   0.634   6.486 -0.1230 -0.4619 -2.6863
 3238TIP3    H231130   5.604   0.739   6.516  1.0468  0.2692 -0.9996
 3239TIP3   OH231131   5.306   1.676   4.289 -0.5540  0.1716 -0.6130
 3239TIP3    H131132   5.267   1.758   4.322 -0.9960  1.1412 -3.3052
 3239TIP3    H231133   5.232   1.615   4.286 -0.7880  0.4598 -0.9208
 3240TIP3   OH231134   5.350   1.343   3.252 -0.0185  0.3637  0.1495
 3240TIP3    H131135   5.338   1.311   3.163  2.8512  0.8966 -0.5231
 3240TIP3    H231136   5.402   1.275   3.295  0.2861  0.9928  0.7975
 3241TIP3   OH231137   0.377   1.714   1.676  0.1419 -0.1528  0.1776
 3241TIP3    H131138   0.283   1.713   1.657  0.4682  1.5485 -1.8661
 3241TIP3    H231139   0.384   1.672   1.762 -2.5022 -0.1306  0.4968
 3242TIP3   OH231140   6.550   0.014   0.462 -0.0321 -0.3335 -0.2590
 3242TIP3    H131141   6.457   0.004   0.446 -0.0193  0.3947 -0.8255
 3242TIP3    H231142   6.558   0.009   0.558 -0.4838 -1.6413 -0.2781
 3243TIP3   OH231143   6.380   0.161  14.439  0.0686  0.3312  0.4938
 3243TIP3    H131144   6.406   0.249  14.413  1.7106 -0.2875 -0.0899
 3243TIP3    H231145   6.460   0.108  14.430 -1.5251 -1.8927 -2.2486
 3244TIP3   OH231146   5.229   6.536  15.341  0.0088  0.1917 -0.1255
 3244TIP3    H131147   5.154   6.593  15.358 -0.3925  0.1187 -1.5013
 3244TIP3    H231148   5.231   6.476  15.415 -0.4065  1.1074  0.6530
 3245TIP3   OH231149   6.388   0.201  12.696  0.1061 -0.1501  0.0862
 3245TIP3    H131150   6.453   0.270  12.712  0.4562  0.3511 -2.8653
 3245TIP3    H231151   6.438   0.129  12.659 -0.9298  0.3177 -2.4324
 3246TIP3   OH231152   5.095   6.030   6.041 -0.2804  0.6528 -0.2779
 3246TIP3    H131153   5.146   6.110   6.050  0.8642 -0.1348  0.3736
 3246TIP3    H231154   5.157   5.965   6.009 -0.8699 -0.2944  0.4390
 3247TIP3   OH231155   0.351   1.270   0.705  0.1561 -0.1630 -0.1183
 3247TIP3    H131156   0.334   1.339   0.769  0.1386  0.9005 -1.2383
 3247TIP3    H231157   0.265   1.232   0.686  0.1010 -0.1706  0.1491
 3248TIP3   OH231158   6.195   0.536   5.110  0.1240 -0.3217 -0.3575
 3248TIP3    H131159   6.172   0.443   5.117 -1.8219  0.1025 -0.5730
 3248TIP3    H231160   6.266   0.538   5.047  1.6638 -1.8487  1.2199
 3249TIP3   OH231161   2.217   5.655  14.903 -0.0353 -0.5994  0.1064
 3249TIP3    H131162   2.254   5.686  14.820  1.0134  1.1323  1.1312
 3249TIP3    H231163   2.293   5.651  14.962 -0.9580 -0.3402  1.3489
 3250TIP3   OH231164   2.036   6.405   4.609 -0.4589  0.0658  0.4588
 3250TIP3    H131165   2.066   6.476   4.551 -0.4102  0.1432  0.5777
 3250TIP3    H231166   2.117   6.363   4.639 -0.5229 -1.2077 -1.0455
 3251TIP3   OH231167   3.407   1.647  13.408 -0.9431 -0.0309  0.4834
 3251TIP3    H131168   3.346   1.573  13.409 -1.7169  0.5101 -1.5203
 3251TIP3    H231169   3.475   1.621  13.347  0.4415 -0.2927  2.0884
 3252TIP3   OH231170   1.915   5.419   2.334 -0.8927 -0.3515  0.3035
 3252TIP3    H131171   1.837   5.426   2.280 -0.4667  0.9054 -0.2085
 3252TIP3    H231172   1.903   5.485   2.402 -0.4672 -0.4311  0.4626
 3253TIP3   OH231173   3.334   0.758   3.378  0.4695  0.4576  0.5546
 3253TIP3    H131174   3.345   0.686   3.440 -1.2343  1.9172  2.6719
 3253TIP3    H231175   3.244   0.749   3.348  1.6743 -1.2296 -3.2265
 3254TIP3   OH231176   1.662   0.250  12.334  0.1692  0.3659 -0.3715
 3254TIP3    H131177   1.717   0.323  12.303 -0.2039  0.6896 -0.2843
 3254TIP3    H231178   1.616   0.220  12.255  0.4371  0.1211 -0.4371
 3255TIP3   OH231179   5.332   2.823   2.555 -0.0268  0.3809 -0.5250
 3255TIP3    H131180   5.272   2.755   2.526  2.5698 -2.1263 -0.5068
 3255TIP3    H231181   5.331   2.889   2.485 -2.4952  0.3230 -0.6194
 3256TIP3   OH231182   2.415   2.028   3.109  0.1960 -0.4151 -0.0921
 3256TIP3    H131183   2.343   2.089   3.097 -0.1345 -0.9137 -0.7388
 3256TIP3    H231184   2.467   2.035   3.029  0.0466 -1.1138 -0.2571
 3257TIP3   OH231185   6.155   2.733  14.317  0.3341 -0.6016  0.2439
 3257TIP3    H131186   6.243   2.732  14.353 -0.5492 -1.0053  2.5613
 3257TIP3    H231187   6.097   2.732  14.393 -1.6954 -0.5130 -1.1915
 3258TIP3   OH231188   5.075   0.821   5.526  0.0253  0.1919 -0.5240
 3258TIP3    H131189   5.116   0.838   5.611  1.2435 -0.6819 -0.9123
 3258TIP3    H231190   5.015   0.895   5.514  0.1833  0.5862  0.8608
 3259TIP3   OH231191   5.717   3.633   4.545 -0.1815  0.9301 -0.5424
 3259TIP3    H131192   5.766   3.702   4.591  1.5446 -0.3869 -0.2866
 3259TIP3    H231193   5.698   3.672   4.459 -1.5623  2.6366  0.4839
 3260TIP3   OH231194   0.567   4.850  11.620 -0.7757 -0.5142  0.1712
 3260TIP3    H131195   0.600   4.939  11.628  2.1921 -1.2784 -1.8679
 3260TIP3    H231196   0.502   4.854  11.550 -1.0970  0.1013  0.4919
 3261TIP3   OH231197   2.479   1.469  14.867 -0.2346  0.1148  0.5388
 3261TIP3    H131198   2.488   1.532  14.796 -1.6866 -0.7783 -0.4958
 3261TIP3    H231199   2.400   1.496  14.914 -0.7181 -0.7476  0.2498
 3262TIP3   OH231200   2.115   1.129  16.952  0.1038 -0.0345 -0.1409
 3262TIP3    H131201   2.051   1.065  16.985  0.8743 -0.5062  0.4759
 3262TIP3    H231202   2.200   1.094  16.979  0.5543  1.2213  0.1446
 3263TIP3   OH231203   5.840   4.021  14.729  0.1219 -0.8126  0.8060
 3263TIP3    H131204   5.909   4.065  14.778  0.2529 -0.3834  0.2404
 3263TIP3    H231205   5.887   3.970  14.663 -0.1113  2.1661 -1.9066
 3264TIP3   OH231206   2.979   5.945  12.686 -0.5877 -0.3959 -0.5302
 3264TIP3    H131207   2.908   5.889  12.715 -1.0343  0.7028  0.5872
 3264TIP3    H231208   3.043   5.885  12.647 -0.3143 -1.9048  2.0413
 3265TIP3   OH231209   3.114   1.700  13.954  0.0153  0.0452  0.3170
 3265TIP3    H131210   3.199   1.741  13.972  0.3185 -0.1818 -0.5510
 3265TIP3    H231211   3.110   1.695  13.859 -0.1042 -1.7344  0.3819
 3266TIP3   OH231212   4.336   2.097  16.425 -0.3340  0.0842  0.4486
 3266TIP3    H131213   4.341   2.095  16.520  1.4055  1.5650  0.4355
 3266TIP3    H231214   4.382   2.177  16.400 -1.5672  0.2304 -1.6036
 3267TIP3   OH231215   2.008   0.383   4.069 -0.0909  0.4085  0.6130
 3267TIP3    H131216   2.036   0.378   3.978 -1.5514  0.0090  0.1562
 3267TIP3    H231217   2.047   0.307   4.110 -0.1860  0.0668  0.0827
 3268TIP3   OH231218   3.179   1.132   2.661 -0.1558  0.5999  0.2681
 3268TIP3    H131219   3.189   1.045   2.622  0.7134  0.1797  1.3651
 3268TIP3    H231220   3.114   1.176   2.607 -1.1050 -0.9738  0.0789
 3269TIP3   OH231221   4.709   4.251  13.618  0.1028  0.6369  0.2763
 3269TIP3    H131222   4.759   4.263  13.698  2.9197  0.3002 -1.2926
 3269TIP3    H231223   4.757   4.184  13.570 -1.1665  1.2091 -1.9284
 3270TIP3   OH231224   5.810   5.012   6.085  0.0113 -0.2046 -0.6192
 3270TIP3    H131225   5.731   4.995   6.137 -1.1351  0.7161 -1.9685
 3270TIP3    H231226   5.879   4.961   6.128 -1.2101 -0.6754  0.8708
 3271TIP3   OH231227   2.218   5.472   4.543  0.2343 -0.1365 -0.5308
 3271TIP3    H131228   2.299   5.423   4.552 -0.0526 -0.5624 -0.2132
 3271TIP3    H231229   2.201   5.507   4.631  0.5188  0.6598 -0.7929
 3272TIP3   OH231230   3.625   3.881  16.330  0.0696  0.0089 -0.5937
 3272TIP3    H131231   3.537   3.869  16.295 -0.4536  1.5054  0.1110
 3272TIP3    H231232   3.620   3.844  16.419  0.1041  0.2465 -0.4923
 3273TIP3   OH231233   0.846   4.939   2.751  0.1916 -0.0744  0.1930
 3273TIP3    H131234   0.833   4.941   2.656  0.4627 -1.2000  0.1147
 3273TIP3    H231235   0.836   4.847   2.774  2.0357 -0.1278  0.9662
 3274TIP3   OH231236   2.684   1.584   4.301  0.3544 -0.3426 -0.4351
 3274TIP3    H131237   2.732   1.548   4.376  0.1621 -2.9625 -1.4381
 3274TIP3    H231238   2.745   1.644   4.259  1.3483 -0.6834  0.4786
 3275TIP3   OH231239   4.109   5.336  11.755 -0.4618 -0.0580 -0.4910
 3275TIP3    H131240   4.149   5.350  11.841  1.5719 -0.2306 -1.3593
 3275TIP3    H231241   4.095   5.241  11.751  2.3032 -0.4978 -1.4793
 3276TIP3   OH231242   5.005   4.577  14.958  0.2780 -0.1199 -0.6920
 3276TIP3    H131243   5.097   4.551  14.969  0.6088  1.0064 -0.6557
 3276TIP3    H231244   4.963   4.548  15.039 -0.0334 -3.0588 -1.7769
 3277TIP3   OH231245   5.010   6.248  11.244  0.0586  0.7877  0.2694
 3277TIP3    H131246   5.034   6.210  11.329 -0.2173 -1.6723 -0.6535
 3277TIP3    H231247   4.914   6.248  11.245  0.0339 -0.1466 -0.3516
 3278TIP3   OH231248   0.563   5.869   4.887  0.6038  0.0872  0.1793
 3278TIP3    H131249   0.598   5.785   4.856 -0.8512 -0.4904 -0.0187
 3278TIP3    H231250   0.528   5.849   4.974 -0.7537  0.1807 -0.3156
 3279TIP3   OH231251   2.195   6.044  15.252  0.4387  0.0838 -0.6699
 3279TIP3    H131252   2.223   6.017  15.339  0.7740  2.4537  0.0361
 3279TIP3    H231253   2.236   6.130  15.239 -1.4109  0.8194 -2.2134
 3280TIP3   OH231254   5.874   5.856  14.869  0.3752 -0.0986 -0.0122
 3280TIP3    H131255   5.960   5.814  14.869  0.8284  0.8075 -0.4399
 3280TIP3    H231256   5.856   5.875  14.777 -0.6947 -1.0604 -0.0320
 3281TIP3   OH231257   5.479   0.544  14.834  0.2893  0.1712  0.2541
 3281TIP3    H131258   5.573   0.563  14.830  0.6196 -0.9151  2.0180
 3281TIP3    H231259   5.471   0.457  14.795 -0.0930  0.5201 -0.4616
 3282TIP3   OH231260   2.926   4.549   4.290  0.1729 -0.5227  0.0391
 3282TIP3    H131261   2.953   4.640   4.278 -1.3735 -0.0735 -0.2961
 3282TIP3    H231262   2.875   4.550   4.371 -0.2235 -0.9977 -0.2028
 3283TIP3   OH231263   0.867   5.913   5.062 -0.5047  0.5450 -0.5811
 3283TIP3    H131264   0.922   5.837   5.043 -1.5404 -0.3794  0.0014
 3283TIP3    H231265   0.862   5.960   4.979 -0.3922 -0.3980 -1.1417
 3284TIP3   OH231266   0.193   0.169  11.319 -0.2915 -0.1093 -0.4047
 3284TIP3    H131267   0.168   0.160  11.227  0.9455 -0.5914 -0.7121
 3284TIP3    H231268   0.284   0.198  11.317  0.7537 -2.8938  0.6088
 3285TIP3   OH231269   5.868   6.467  13.725  0.1423 -0.0987 -0.0575
 3285TIP3    H131270   5.850   6.390  13.672  3.0693 -2.1617  1.6318
 3285TIP3    H231271   5.797   6.469  13.789 -0.3237 -0.9896 -0.5275
 3286TIP3   OH231272   0.513   6.750  12.262 -0.2569  0.2373  0.3016
 3286TIP3    H131273   0.583   6.806  12.296 -0.9589  0.2957  1.7294
 3286TIP3    H231274   0.538   6.734  12.171  2.5577 -1.1949  1.1978
 3287TIP3   OH231275   6.174   3.020   1.055  0.0101 -0.0151 -0.0667
 3287TIP3    H131276   6.190   3.114   1.057 -0.4701  0.0918 -0.9046
 3287TIP3    H231277   6.145   2.999   1.144 -1.1590  0.8572 -0.2210
 3288TIP3   OH231278   3.403   4.900  11.296  0.3286  0.3937  0.2454
 3288TIP3    H131279   3.424   4.961  11.225 -1.6313  2.0587  0.9944
 3288TIP3    H231280   3.346   4.835  11.255 -0.1629  0.8983  0.1265
 3289TIP3   OH231281   1.515   5.041   1.306 -0.2718 -0.1130  0.1678
 3289TIP3    H131282   1.517   5.060   1.400  0.3602  0.0931  0.1146
 3289TIP3    H231283   1.600   5.002   1.287  0.0945  0.9778 -0.5495
 3290TIP3   OH231284   3.784   2.085   2.846  0.4028  0.3130 -0.0274
 3290TIP3    H131285   3.877   2.107   2.848  1.2915 -2.7178 -1.4477
 3290TIP3    H231286   3.760   2.079   2.938  1.5211  1.4131  0.3721
 3291TIP3   OH231287   1.231   0.464  15.062  0.4801 -0.1182  0.3589
 3291TIP3    H131288   1.315   0.486  15.101  0.4416 -2.1974  1.7322
 3291TIP3    H231289   1.249   0.389  15.006 -0.7820 -2.2539  2.6166
 3292TIP3   OH231290   4.349   2.286   0.911 -0.0186  0.8877  0.2070
 3292TIP3    H131291   4.339   2.205   0.961  1.7486  0.6708  0.2447
 3292TIP3    H231292   4.352   2.258   0.820  1.3922  0.8169  0.2649
 3293TIP3   OH231293   4.024   5.130  15.510 -0.2073 -0.4007 -0.1417
 3293TIP3    H131294   4.009   5.216  15.548  0.1064 -0.9074  1.1824
 3293TIP3    H231295   3.958   5.123  15.441  0.0531  1.0622 -0.5707
 3294TIP3   OH231296   2.955   4.089  15.906  0.1342 -0.4427 -0.3966
 3294TIP3    H131297   2.888   4.021  15.913  1.0985 -1.5352 -1.3536
 3294TIP3    H231298   2.936   4.134  15.824  0.5217 -0.7300 -0.6514
 3295TIP3   OH231299   3.828   0.680   5.538  0.2845 -0.5457  0.9638
 3295TIP3    H131300   3.869   0.763   5.513 -1.1708 -0.0357  0.1514
 3295TIP3    H231301   3.798   0.642   5.455  0.3710 -1.5855  1.3949
 3296TIP3   OH231302   6.489   5.905  12.841  0.4267  0.3494 -0.2065
 3296TIP3    H131303   6.414   5.924  12.786  0.2879  0.7840  0.1234
 3296TIP3    H231304   6.545   5.849  12.787  0.1836  0.5733 -0.6980
 3297TIP3   OH231305   6.010   1.109  13.233 -0.0024 -0.0163 -0.1032
 3297TIP3    H131306   6.041   1.189  13.275  0.9779  0.3041 -1.3986
 3297TIP3    H231307   5.973   1.057  13.305  0.0051  1.2737  0.8588
 3298TIP3   OH231308   3.193   2.103   3.253 -0.2469  0.4486  0.1380
 3298TIP3    H131309   3.144   2.105   3.334  0.3409  1.7832  0.4873
 3298TIP3    H231310   3.235   2.189   3.247  1.2297 -0.2682 -0.6367
 3299TIP3   OH231311   2.591   0.169   3.925  0.4197 -0.3509  0.1669
 3299TIP3    H131312   2.548   0.083   3.918 -1.6825  0.5311  1.5314
 3299TIP3    H231313   2.570   0.200   4.012  1.0197  1.6544 -0.3483
 3300TIP3   OH231314   2.226   2.744   1.509  0.6042 -0.0232 -0.4787
 3300TIP3    H131315   2.150   2.687   1.518  0.8028 -0.0194  1.9668
 3300TIP3    H231316   2.289   2.693   1.459  0.2667 -1.4377  0.4757
 3301TIP3   OH231317   0.358   5.550   1.431 -0.2598  0.3415 -0.5991
 3301TIP3    H131318   0.416   5.478   1.405 -0.6919  0.3057 -1.4939
 3301TIP3    H231319   0.416   5.626   1.441 -0.1539  0.5220 -2.3560
 3302TIP3   OH231320   0.733   3.710   3.656 -0.2049  0.2427  0.2395
 3302TIP3    H131321   0.811   3.710   3.601 -0.4423 -0.0021 -0.0958
 3302TIP3    H231322   0.700   3.800   3.651  0.1296  0.3820  0.4904
 3303TIP3   OH231323   5.253   4.202   1.394  0.5735 -0.0709  0.1489
 3303TIP3    H131324   5.197   4.147   1.448 -2.1865 -0.2236 -2.5722
 3303TIP3    H231325   5.331   4.149   1.378 -0.9326 -2.2366 -0.3660
 3304TIP3   OH231326   5.425   1.254  12.567 -0.1562 -0.0982  0.4231
 3304TIP3    H131327   5.444   1.277  12.658  0.7508 -2.3557  0.8631
 3304TIP3    H231328   5.509   1.223  12.532 -0.8109 -0.6331 -0.7374
 3305TIP3   OH231329   4.654   2.230  12.526  0.1212  0.1204 -0.0539
 3305TIP3    H131330   4.622   2.308  12.571 -2.2740 -1.5604  1.3600
 3305TIP3    H231331   4.590   2.162  12.546  1.6253 -2.0257 -1.9595
 3306TIP3   OH231332   1.927   1.482   5.166  0.0137  0.0381  0.3759
 3306TIP3    H131333   1.944   1.570   5.133  2.8494 -0.4914  0.2026
 3306TIP3    H231334   1.877   1.439   5.096  0.9086  0.7105 -0.6967
 3307TIP3   OH231335   0.085   3.073  13.272  0.7191 -0.0609  0.2431
 3307TIP3    H131336  -0.008   3.082  13.294  0.7122  1.3566 -0.2355
 3307TIP3    H231337   0.095   2.983  13.243 -0.2487 -0.5787  1.4731
 3308TIP3   OH231338   1.052   3.705   3.594  0.2314  0.2586 -0.5069
 3308TIP3    H131339   1.062   3.741   3.506 -1.8478  0.6889 -0.6331
 3308TIP3    H231340   1.140   3.706   3.631  1.3496 -0.8112 -2.8850
 3309TIP3   OH231341   6.015   6.244   1.282  0.5185  0.0737  0.2135
 3309TIP3    H131342   6.009   6.285   1.368 -0.0390  2.8155 -1.0215
 3309TIP3    H231343   6.084   6.179   1.291 -1.5372 -1.9410  3.4976
 3310TIP3   OH231344   4.382   0.450   4.340 -0.0078 -0.2217 -0.5656
 3310TIP3    H131345   4.402   0.357   4.352 -0.6019 -0.5162 -1.6800
 3310TIP3    H231346   4.373   0.460   4.245 -2.7924  0.3502 -0.3112
 3311TIP3   OH231347   4.817   6.095   3.499 -0.7802 -0.0526 -0.3000
 3311TIP3    H131348   4.802   6.169   3.440 -1.7481 -0.3620 -0.4731
 3311TIP3    H231349   4.752   6.106   3.568  0.7169  0.6159  1.0543
 3312TIP3   OH231350   1.125   3.075   3.275 -0.3002 -0.3560  0.5445
 3312TIP3    H131351   1.196   3.018   3.244  0.1749  0.4856  0.0326
 3312TIP3    H231352   1.170   3.157   3.299 -1.0838  0.1442  0.3321
 3313TIP3   OH231353   3.594   4.736   6.708 -1.0481  0.1526 -0.3147
 3313TIP3    H131354   3.555   4.662   6.661 -0.4568 -0.2657 -0.1516
 3313TIP3    H231355   3.607   4.802   6.640  1.6399 -1.1479 -1.2239
 3314TIP3   OH231356   4.561   1.438   1.763  0.1924  0.2538 -0.0161
 3314TIP3    H131357   4.484   1.394   1.798 -0.2039 -1.2833 -2.5497
 3314TIP3    H231358   4.537   1.531   1.761 -0.7092  0.0671  1.2554
 3315TIP3   OH231359   0.791   6.416   4.139  0.6966 -0.0238 -0.0647
 3315TIP3    H131360   0.807   6.443   4.049 -3.4460 -0.9525 -1.3045
 3315TIP3    H231361   0.732   6.483   4.174  1.6836 -0.0404  1.7890
 3316TIP3   OH231362   3.510   1.936  14.726 -0.3587  0.3097  0.4608
 3316TIP3    H131363   3.509   2.032  14.721 -1.0094  0.2448 -0.8587
 3316TIP3    H231364   3.419   1.910  14.716 -0.0819 -0.4865 -0.1123
 3317TIP3   OH231365   2.504   0.054  16.400 -0.3701 -0.5209  0.1925
 3317TIP3    H131366   2.588   0.101  16.397 -0.1146 -0.9791  0.1315
 3317TIP3    H231367   2.439   0.120  16.374  0.1412 -0.5324 -1.2404
 3318TIP3   OH231368   4.258   2.263   2.282  0.1561 -0.1882 -0.3603
 3318TIP3    H131369   4.174   2.217   2.279  0.1421 -0.2109  0.2822
 3318TIP3    H231370   4.316   2.208   2.229 -0.0794 -0.4964 -0.3062
 3319TIP3   OH231371   1.927   5.290  12.827 -0.9023  0.2374 -0.4904
 3319TIP3    H131372   2.011   5.279  12.872 -0.9937  1.3265 -0.0168
 3319TIP3    H231373   1.936   5.238  12.747  0.1997  0.2703 -0.4070
 3320TIP3   OH231374   2.613   4.828   1.555 -1.0195  0.6551 -0.6083
 3320TIP3    H131375   2.670   4.878   1.614 -0.9562  0.8731 -0.8583
 3320TIP3    H231376   2.664   4.818   1.475 -0.7935 -0.3075 -0.3589
 3321TIP3   OH231377   1.245   5.476  13.860 -0.2998 -0.3891 -0.7188
 3321TIP3    H131378   1.253   5.444  13.770  0.7662  2.4906 -1.7524
 3321TIP3    H231379   1.330   5.458  13.900  0.2160  0.8182 -1.2242
 3322TIP3   OH231380   5.386   6.068  14.487  0.6838 -0.0880 -0.4479
 3322TIP3    H131381   5.309   6.088  14.541 -0.1659  1.3301 -2.0831
 3322TIP3    H231382   5.460   6.105  14.536  0.2019 -0.5462  0.6478
 3323TIP3   OH231383   3.364   5.391  16.631 -0.1539 -0.2797 -0.4175
 3323TIP3    H131384   3.394   5.322  16.572  1.3388 -1.3771  1.4929
 3323TIP3    H231385   3.272   5.372  16.646  0.1944 -1.7740 -0.0649
 3324TIP3   OH231386   6.649   3.712   4.895 -0.1147  0.1193  0.1340
 3324TIP3    H131387   6.584   3.774   4.929 -0.4449 -0.3619  0.3925
 3324TIP3    H231388   6.666   3.741   4.806 -0.9383  0.0515 -0.0483
 3325TIP3   OH231389   1.527   3.658   5.713  0.4993  0.1887  0.2232
 3325TIP3    H131390   1.536   3.733   5.655  2.4268  0.0441  0.2609
 3325TIP3    H231391   1.616   3.622   5.719 -0.2759 -1.7949  0.6003
 3326TIP3   OH231392   4.712   2.908   3.438  0.0721 -0.1745 -0.2369
 3326TIP3    H131393   4.638   2.968   3.423  0.5034  0.6450  0.7877
 3326TIP3    H231394   4.790   2.962   3.423  0.4735 -0.2544  1.4328
 3327TIP3   OH231395   0.679   2.168  12.897 -0.5735 -0.0384 -0.4416
 3327TIP3    H131396   0.637   2.252  12.879 -0.8621 -0.1958 -0.5015
 3327TIP3    H231397   0.619   2.103  12.861 -1.0646 -0.3506  0.8958
 3328TIP3   OH231398   1.911   0.381   2.364 -0.3472 -0.3899 -0.0491
 3328TIP3    H131399   1.825   0.377   2.405  0.3101  1.6079  1.7664
 3328TIP3    H231400   1.900   0.440   2.289 -0.3741  0.9079  0.9288
 3329TIP3   OH231401   1.715   4.683  14.695  0.2244 -0.2155 -0.4745
 3329TIP3    H131402   1.681   4.715  14.779 -0.6905 -0.3581 -0.7778
 3329TIP3    H231403   1.798   4.641  14.718  0.3281  0.3561  0.2536
 3330TIP3   OH231404   0.249   3.239  13.813 -0.1896  0.5196  0.5376
 3330TIP3    H131405   0.171   3.215  13.863 -0.0959 -2.9445 -0.7437
 3330TIP3    H231406   0.215   3.266  13.728 -0.0445  0.8004  0.5654
 3331TIP3   OH231407   4.323   0.155  12.782  0.2120 -0.5896 -0.9395
 3331TIP3    H131408   4.330   0.139  12.876 -1.0650 -0.1155 -0.7358
 3331TIP3    H231409   4.408   0.132  12.747  1.1941  0.5912  0.5360
 3332TIP3   OH231410   4.685   5.727   0.437 -0.0697  0.1322  0.0715
 3332TIP3    H131411   4.602   5.741   0.483 -0.0032  0.3843  0.1185
 3332TIP3    H231412   4.683   5.635   0.412 -0.8690  0.4002 -0.9178
 3333TIP3   OH231413   6.584   2.741  13.550 -0.0029 -0.2137 -0.1550
 3333TIP3    H131414   6.652   2.767  13.612 -1.6601 -0.3424  1.8120
 3333TIP3    H231415   6.517   2.809  13.557 -1.6457 -1.8104  0.6087
 3334TIP3   OH231416   1.122   1.891   2.153 -0.3496 -0.0255 -0.6500
 3334TIP3    H131417   1.191   1.956   2.168  0.3206 -0.4603 -1.6933
 3334TIP3    H231418   1.059   1.905   2.223 -1.1943  3.0066 -1.8683
 3335TIP3   OH231419   0.691   6.504   1.540 -0.6862 -0.6364  0.2534
 3335TIP3    H131420   0.768   6.543   1.500 -1.8429  2.1637  0.4453
 3335TIP3    H231421   0.668   6.430   1.484  1.3806 -0.7679 -0.4863
 3336TIP3   OH231422   6.659   5.589   0.474  0.0964  0.1150  0.3133
 3336TIP3    H131423   6.659   5.651   0.400  2.3153 -0.1901 -0.0347
 3336TIP3    H231424   6.750   5.561   0.480 -0.7821 -3.0690  0.5152
 3337TIP3   OH231425   2.614   1.031   0.600 -0.0104  0.3085  0.0431
 3337TIP3    H131426   2.522   1.012   0.583 -0.4580 -0.5585  2.9623
 3337TIP3    H231427   2.661   0.962   0.552 -1.1882 -2.3427  2.4310
 3338TIP3   OH231428   4.262   3.367   4.731  0.4337  0.2172  0.2679
 3338TIP3    H131429   4.320   3.356   4.806  1.5128 -0.6869 -0.6502
 3338TIP3    H231430   4.303   3.314   4.662 -0.7519  0.6819 -0.8231
 3339TIP3   OH231431   3.135   4.727   1.371 -0.3145 -0.6115  0.1538
 3339TIP3    H131432   3.178   4.679   1.299  1.9969  0.6897  0.5665
 3339TIP3    H231433   3.148   4.671   1.447  0.3928 -0.3839  0.2093
 3340TIP3   OH231434   5.736   3.216   5.766  0.0539 -1.0970 -0.3120
 3340TIP3    H131435   5.722   3.132   5.723  0.9434 -0.4020 -2.0276
 3340TIP3    H231436   5.710   3.200   5.857  0.8592 -3.4210 -0.4073
 3341TIP3   OH231437   0.899   0.143  13.796 -0.3908  0.2181 -0.2021
 3341TIP3    H131438   0.965   0.189  13.848 -1.8970  2.6116 -0.2779
 3341TIP3    H231439   0.945   0.117  13.716  0.9064  0.1819  0.5303
 3342TIP3   OH231440   2.569   6.708   2.572 -0.2303 -0.3895 -0.3957
 3342TIP3    H131441   2.583   6.774   2.505 -0.1463  0.4659  0.4348
 3342TIP3    H231442   2.475   6.691   2.570 -0.6202  1.3147  0.7475
 3343TIP3   OH231443   0.852   0.655   4.766  0.7034 -0.3660 -0.9135
 3343TIP3    H131444   0.926   0.714   4.783 -0.0765  0.3399  0.2223
 3343TIP3    H231445   0.884   0.595   4.699  2.0855  0.3217 -0.9139
 3344TIP3   OH231446   3.619   4.489   3.892 -0.2063  0.0731 -0.2188
 3344TIP3    H131447   3.593   4.571   3.934  1.0511  0.1152  0.5435
 3344TIP3    H231448   3.679   4.516   3.822 -0.8570 -0.1236 -0.8664
 3345TIP3   OH231449   2.710   0.808  14.403  0.2285  0.0190 -0.1835
 3345TIP3    H131450   2.644   0.860  14.449  0.0191 -0.4193  0.0195
 3345TIP3    H231451   2.667   0.783  14.321  0.4069  0.3430 -0.3789
 3346TIP3   OH231452   5.411   1.598   5.808 -0.2382  0.4382 -0.0979
 3346TIP3    H131453   5.501   1.568   5.799 -0.0347  1.1350 -0.4313
 3346TIP3    H231454   5.384   1.567   5.894  0.2319  0.0147 -0.0961
 3347TIP3   OH231455   5.867   5.764  16.368  0.2120 -0.5353 -0.4894
 3347TIP3    H131456   5.843   5.677  16.399 -0.0200 -0.2966  0.0231
 3347TIP3    H231457   5.787   5.816  16.378  1.2483  0.6717  2.7026
 3348TIP3   OH231458   3.606   4.552  12.841 -0.0203 -0.2606 -0.1087
 3348TIP3    H131459   3.564   4.606  12.774 -0.1833  0.3094  0.4408
 3348TIP3    H231460   3.629   4.614  12.910  0.1945 -0.8327  0.3389
 3349TIP3   OH231461   1.485   1.247   6.427 -0.1876 -0.2111  0.4285
 3349TIP3    H131462   1.434   1.318   6.388 -1.3557 -0.0514  2.1516
 3349TIP3    H231463   1.576   1.272   6.413 -0.4634 -0.7699 -3.2109
 3350TIP3   OH231464   5.037   4.771  16.337  0.1451  0.7722 -0.1759
 3350TIP3    H131465   5.047   4.684  16.376 -0.2678  0.6681 -0.2988
 3350TIP3    H231466   5.089   4.767  16.257 -1.1196  0.1144 -0.9978
 3351TIP3   OH231467   5.422   5.463  12.311 -0.2639  0.1312 -0.1170
 3351TIP3    H131468   5.363   5.390  12.288 -0.9254  0.3944  0.6888
 3351TIP3    H231469   5.506   5.439  12.271 -0.8961 -0.2763 -1.2577
 3352TIP3   OH231470   1.356   2.011   3.860  0.2215 -0.1315  0.1180
 3352TIP3    H131471   1.427   1.994   3.798 -0.2020  0.0093 -0.4120
 3352TIP3    H231472   1.348   1.930   3.910  2.6400  0.7635  2.1530
 3353TIP3   OH231473   4.897   4.386   1.043 -0.4892  0.2989 -0.8590
 3353TIP3    H131474   4.914   4.377   0.949 -0.6336  0.8049 -0.9426
 3353TIP3    H231475   4.980   4.368   1.085 -0.5799 -0.5657 -1.0447
 3354TIP3   OH231476   4.143   4.510   0.125 -0.1325  0.6591 -0.0010
 3354TIP3    H131477   4.157   4.600   0.153  1.7933  0.9484 -1.7313
 3354TIP3    H231478   4.168   4.508   0.033 -3.3814 -0.9128 -1.0289
 3355TIP3   OH231479   3.052   2.778  13.780 -0.0405  0.1407  0.8893
 3355TIP3    H131480   3.015   2.697  13.743  3.5568 -0.7080 -1.4226
 3355TIP3    H231481   3.075   2.755  13.870  2.1681 -2.0776 -0.1016
 3356TIP3   OH231482   4.842   0.380   1.621 -0.3142 -0.1054  0.4630
 3356TIP3    H131483   4.791   0.457   1.598  0.5535  0.5622  0.7062
 3356TIP3    H231484   4.779   0.308   1.619 -1.3460  0.7451  1.1792
 3357TIP3   OH231485   2.095   1.357  11.165  0.6088 -0.1089 -0.0898
 3357TIP3    H131486   2.115   1.352  11.071  0.4538  1.0046 -0.2000
 3357TIP3    H231487   2.029   1.290  11.179 -0.0365  0.3249 -0.9712
 3358TIP3   OH231488   2.587   3.664  14.491  0.1009  0.1510  0.0062
 3358TIP3    H131489   2.533   3.600  14.537  0.5038 -0.0226  0.2421
 3358TIP3    H231490   2.638   3.706  14.560  0.9715 -0.3574 -0.3230
 3359TIP3   OH231491   4.609   4.386  15.220  0.0688  0.2923  0.0548
 3359TIP3    H131492   4.607   4.385  15.315 -0.0821  2.9274  0.1304
 3359TIP3    H231493   4.679   4.447  15.197 -2.1727  2.4643 -1.4413
 3360TIP3   OH231494   5.378   4.242  17.144  0.5102 -0.2396  0.0767
 3360TIP3    H131495   5.369   4.167  17.085 -2.0687  0.8031 -0.9635
 3360TIP3    H231496   5.453   4.291  17.109  1.0949 -1.3683 -0.2967
 3361TIP3   OH231497   2.149   3.343   3.984  0.5017 -0.7116 -0.1095
 3361TIP3    H131498   2.120   3.254   3.967 -0.2991 -0.4400 -0.2001
 3361TIP3    H231499   2.124   3.393   3.906  2.1492 -0.6630 -0.6468
 3362TIP3   OH231500   6.387   0.575   0.313  0.3865 -0.0039 -0.6872
 3362TIP3    H131501   6.476   0.580   0.347  0.1933 -2.6863  0.4131
 3362TIP3    H231502   6.332   0.601   0.387  0.1706 -0.2055 -0.7767
 3363TIP3   OH231503   4.717   6.151   4.271 -0.1735 -0.3737  0.2442
 3363TIP3    H131504   4.760   6.120   4.191 -1.4998 -0.3887 -0.4942
 3363TIP3    H231505   4.693   6.241   4.251 -2.3037 -0.9869 -0.1645
 3364TIP3   OH231506   6.490   3.329   0.039 -0.2446 -0.3900 -0.1983
 3364TIP3    H131507   6.548   3.403   0.053  0.6555 -1.2505  0.7351
 3364TIP3    H231508   6.409   3.368   0.006 -0.5956  1.2655  2.3354
 3365TIP3   OH231509   0.338   5.104  16.532  0.3378  0.0772  0.2548
 3365TIP3    H131510   0.322   5.160  16.457  2.7549  0.4709 -0.0410
 3365TIP3    H231511   0.426   5.126  16.561  0.1905 -1.3909  2.0682
 3366TIP3   OH231512   2.334   0.249   2.479  0.3314 -0.9054 -0.0183
 3366TIP3    H131513   2.257   0.233   2.534  0.0760 -0.5429 -0.2684
 3366TIP3    H231514   2.358   0.340   2.498 -0.9838 -0.0621 -1.9937
 3367TIP3   OH231515   3.628   4.051  15.869  0.5893 -0.0551  0.3561
 3367TIP3    H131516   3.664   4.136  15.846  0.7008  0.3734  1.9882
 3367TIP3    H231517   3.689   4.015  15.932  0.1117 -0.9894  0.3035
 3368TIP3   OH231518   5.866   0.189  16.301 -0.1007 -0.1110  0.8265
 3368TIP3    H131519   5.853   0.273  16.257 -1.2015 -0.6357  0.0995
 3368TIP3    H231520   5.803   0.189  16.373  0.6794  0.1404  1.5175
 3369TIP3   OH231521   5.149   5.902   4.151 -0.0048  0.0205  0.6279
 3369TIP3    H131522   5.205   5.899   4.228 -0.7015 -1.0987  1.1146
 3369TIP3    H231523   5.059   5.902   4.186 -0.4245 -3.5929 -0.1390
 3370TIP3   OH231524   4.017   5.007   6.183  0.0526 -0.3305  0.0047
 3370TIP3    H131525   3.961   4.937   6.217 -2.1706  1.6292  0.6073
 3370TIP3    H231526   4.086   5.016   6.249  1.4677 -3.0735 -0.9608
 3371TIP3   OH231527   5.825   0.071   5.109  0.6006  0.0334 -0.3854
 3371TIP3    H131528   5.742   0.044   5.149  0.8924 -0.8637 -0.3662
 3371TIP3    H231529   5.874   0.111   5.181  0.7826 -0.8040 -0.0407
 3372TIP3   OH231530   2.890   4.232  16.221 -0.3576  0.5920  0.6508
 3372TIP3    H131531   2.827   4.279  16.168  1.3424  1.0070 -1.1379
 3372TIP3    H231532   2.867   4.140  16.210  0.3264  0.6052 -1.4695
 3373TIP3   OH231533   3.205   0.032  13.944 -0.0679 -0.4812 -0.8198
 3373TIP3    H131534   3.189   0.100  14.009 -0.6474 -1.2808 -0.0974
 3373TIP3    H231535   3.295   0.003  13.960 -0.7070 -1.7948  0.7598
 3374TIP3   OH231536   2.336   3.152  16.379  0.1650 -0.0094  0.1697
 3374TIP3    H131537   2.302   3.063  16.385  1.2186 -0.6067 -1.8597
 3374TIP3    H231538   2.259   3.208  16.390 -0.5469 -1.1500  1.2628
 3375TIP3   OH231539   5.690   1.891  12.165  0.3327 -0.5676 -0.6024
 3375TIP3    H131540   5.674   1.797  12.167  1.5053 -0.8332 -2.0353
 3375TIP3    H231541   5.694   1.917  12.258  2.8079 -2.4814 -0.0558
 3376TIP3   OH231542   5.454   4.566  12.770  0.8222 -0.4251 -0.2161
 3376TIP3    H131543   5.497   4.611  12.843  0.3182  0.3694 -0.3910
 3376TIP3    H231544   5.399   4.499  12.812  0.5319  0.0284  0.1404
 3377TIP3   OH231545   0.224   4.787  10.457  0.5144  0.4558  0.1900
 3377TIP3    H131546   0.310   4.748  10.470  0.9234  1.3522  0.2598
 3377TIP3    H231547   0.242   4.877  10.428 -0.3929  0.5921  0.0070
 3378TIP3   OH231548   3.248   2.720   6.469  0.1652 -0.5514 -0.4434
 3378TIP3    H131549   3.320   2.722   6.405  0.8719 -1.0462  0.3232
 3378TIP3    H231550   3.270   2.788   6.532 -1.6963  1.5470 -1.9016
 3379TIP3   OH231551   0.105   1.904   1.987 -0.5096  0.0548  0.0532
 3379TIP3    H131552   0.078   1.869   1.903 -1.2098  1.3895 -0.3035
 3379TIP3    H231553   0.200   1.909   1.982 -0.4454 -1.1409 -0.1295
 3380TIP3   OH231554   3.303   0.039  15.325  0.7116  0.5826 -0.4681
 3380TIP3    H131555   3.311   0.064  15.417  1.8785  0.1001 -0.4231
 3380TIP3    H231556   3.232   0.094  15.291  1.4593  2.0640  0.2703
 3381TIP3   OH231557   0.999   2.256  16.991  0.4141  0.2018  1.0852
 3381TIP3    H131558   0.934   2.200  17.033 -0.6584  1.2894  0.9071
 3381TIP3    H231559   1.054   2.194  16.942 -1.2514 -0.6825  0.1995
 3382TIP3   OH231560   5.167   5.549  10.982 -0.4934  0.2439  0.2487
 3382TIP3    H131561   5.124   5.502  10.910 -0.2846  0.5555 -0.0855
 3382TIP3    H231562   5.237   5.489  11.010  0.6842  0.9075 -1.1170
 3383TIP3   OH231563   0.844   2.522   0.415  0.0527 -0.3374 -0.2709
 3383TIP3    H131564   0.906   2.512   0.487  0.0014  0.2235 -0.1419
 3383TIP3    H231565   0.861   2.447   0.359  1.3561  0.1729 -0.6129
 3384TIP3   OH231566   2.744   5.227   2.298  0.2314  0.1040 -0.3502
 3384TIP3    H131567   2.775   5.222   2.207 -0.3662  0.9952 -0.6190
 3384TIP3    H231568   2.706   5.315   2.305 -0.5233 -0.2758  0.5082
 3385TIP3   OH231569   3.017   3.178  15.818  0.0112  0.2480  0.0924
 3385TIP3    H131570   3.078   3.177  15.892  0.9310 -0.0985 -0.6508
 3385TIP3    H231571   2.965   3.257  15.831  0.8511  0.7402  0.5514
 3386TIP3   OH231572   1.380   6.401  10.757 -0.2926 -0.5527  0.3418
 3386TIP3    H131573   1.385   6.479  10.702 -0.6951 -0.6590  0.1487
 3386TIP3    H231574   1.311   6.420  10.820 -0.2217 -0.6558  0.4530
 3387TIP3   OH231575   3.400   4.528  13.528  0.1813 -0.6984  0.2447
 3387TIP3    H131576   3.461   4.553  13.598  1.5619 -0.3324 -1.0402
 3387TIP3    H231577   3.325   4.587  13.540  0.1007 -1.0706  1.7781
 3388TIP3   OH231578   2.532   2.542  10.750  0.3698  0.7793 -0.2621
 3388TIP3    H131579   2.451   2.569  10.708  0.9271  1.4724 -0.9368
 3388TIP3    H231580   2.601   2.575  10.692  1.1228 -0.4237 -0.0899
 3389TIP3   OH231581   0.126   4.165   1.545  0.3749  0.0367  0.1743
 3389TIP3    H131582   0.145   4.258   1.559 -1.1022  0.5250 -0.8338
 3389TIP3    H231583   0.069   4.163   1.468 -0.6655 -1.5951  0.9206
 3390TIP3   OH231584   3.401   4.076  14.565 -0.2073  0.1876 -0.3385
 3390TIP3    H131585   3.430   3.987  14.585  0.3954  0.5197  0.3246
 3390TIP3    H231586   3.475   4.116  14.519 -0.5357  0.2940 -0.7738
 3391TIP3   OH231587   2.141   6.099  11.543 -0.3037  0.3582 -0.4636
 3391TIP3    H131588   2.163   6.084  11.635 -1.8803  1.6023  0.1481
 3391TIP3    H231589   2.162   6.191  11.528  2.3177 -0.3948 -2.1127
 3392TIP3   OH231590   4.394   4.957  11.241 -0.2266  0.4635 -0.0913
 3392TIP3    H131591   4.302   4.981  11.255  0.3400  2.3177  0.8736
 3392TIP3    H231592   4.420   5.008  11.164 -0.6831 -2.1999 -2.1467
 3393TIP3   OH231593   1.389   4.294   4.281 -0.4042  0.3514 -0.5580
 3393TIP3    H131594   1.459   4.329   4.336 -1.2811 -0.2721  1.0086
 3393TIP3    H231595   1.313   4.291   4.338 -0.9289 -1.9891 -1.2625
 3394TIP3   OH231596   2.370   2.144   5.033  0.1054 -0.5654 -0.1220
 3394TIP3    H131597   2.379   2.049   5.025  1.0513 -0.5011  0.0652
 3394TIP3    H231598   2.318   2.156   5.113 -1.1554 -0.9392 -0.8495
 3395TIP3   OH231599   2.074   4.280   0.683 -0.0709  1.0809 -0.2270
 3395TIP3    H131600   1.994   4.253   0.727  0.0657  0.5331 -0.3067
 3395TIP3    H231601   2.073   4.375   0.687 -1.0059  1.0976 -0.7218
 3396TIP3   OH231602   2.266   1.536   4.242  0.1454  0.3496 -0.0037
 3396TIP3    H131603   2.213   1.469   4.199  0.6559 -0.1147  0.0786
 3396TIP3    H231604   2.343   1.547   4.185 -0.2155  1.3105 -0.3354
 3397TIP3   OH231605   4.222   4.386  16.403 -0.1676  0.0444 -0.1221
 3397TIP3    H131606   4.310   4.366  16.433  0.5283 -1.4910 -2.8798
 3397TIP3    H231607   4.234   4.443  16.327 -1.6891  1.4260  0.5964
 3398TIP3   OH231608   1.595   6.595   1.130 -0.8079  0.7584 -0.0603
 3398TIP3    H131609   1.516   6.575   1.079 -1.1721 -1.8694  1.3717
 3398TIP3    H231610   1.629   6.510   1.157  2.8974  1.7447 -1.0372
 3399TIP3   OH231611   3.074   1.387  16.000  0.3271 -0.9118 -0.5315
 3399TIP3    H131612   3.008   1.433  15.948  0.4834  0.2980  0.2989
 3399TIP3    H231613   3.147   1.448  16.006  0.1908 -0.8865  1.3535
 3400TIP3   OH231614   4.215   5.696  15.032  0.0777  0.7977  0.1463
 3400TIP3    H131615   4.142   5.639  15.005 -1.2460  2.6386 -0.3821
 3400TIP3    H231616   4.225   5.678  15.125  0.9726 -1.6104 -0.3301
 3401TIP3   OH231617   2.790   0.089  16.464 -0.3819  0.1742 -0.3722
 3401TIP3    H131618   2.811   0.136  16.544  0.6911 -0.6077 -0.1688
 3401TIP3    H231619   2.831   0.141  16.394 -0.9532  0.6257 -0.3784
 3402TIP3   OH231620   4.213   1.493   3.745 -0.2508  1.0565 -0.4180
 3402TIP3    H131621   4.190   1.435   3.818  2.8399 -0.5186 -0.5419
 3402TIP3    H231622   4.162   1.572   3.761 -1.9106 -0.3272  1.7767
 3403TIP3   OH231623   3.971   3.664  16.294  0.3289  0.0550  0.8942
 3403TIP3    H131624   3.923   3.586  16.321 -0.9954  0.8152  0.8194
 3403TIP3    H231625   3.972   3.720  16.371  1.2044  0.0167  0.9244
 3404TIP3   OH231626   2.161   4.000   2.855  0.0420  0.1986 -0.5428
 3404TIP3    H131627   2.116   4.084   2.868  1.0036  0.7717 -0.7911
 3404TIP3    H231628   2.185   3.971   2.943  1.5878  1.2656 -0.5776
 3405TIP3   OH231629   4.937   3.013   4.188 -0.1790  0.3734 -0.3745
 3405TIP3    H131630   4.886   3.088   4.160  0.1146  1.3618  1.5763
 3405TIP3    H231631   5.028   3.040   4.176 -0.0737  0.0757 -0.2672
 3406TIP3   OH231632   6.026   3.288   5.795  0.0147 -0.4067  0.5037
 3406TIP3    H131633   6.015   3.340   5.715 -0.5907 -0.9354  0.2354
 3406TIP3    H231634   5.941   3.247   5.809  0.3702 -1.0199  0.9231
 3407TIP3   OH231635   2.214   1.678   5.406 -0.7289 -0.4780  0.0162
 3407TIP3    H131636   2.291   1.706   5.456 -1.4581  0.9764  0.3860
 3407TIP3    H231637   2.243   1.602   5.357  0.7266 -0.4170  0.7413
 3408TIP3   OH231638   4.628   4.275  15.726  0.1713  0.0527  0.0110
 3408TIP3    H131639   4.672   4.195  15.754  1.0500  0.6159  0.2736
 3408TIP3    H231640   4.676   4.346  15.769  0.0637  0.7948 -1.0515
 3409TIP3   OH231641   6.168   6.651  16.989  0.4036  0.2918  0.4403
 3409TIP3    H131642   6.169   6.557  17.008 -5.1352 -0.3155 -0.4741
 3409TIP3    H231643   6.132   6.692  17.068  1.6942  1.5554  0.4211
 3410TIP3   OH231644   0.841   3.000  13.668 -0.0807  0.3178 -0.4038
 3410TIP3    H131645   0.792   2.918  13.663  0.2519 -0.1379  2.2448
 3410TIP3    H231646   0.853   3.027  13.577 -1.8836 -1.5454 -1.2605
 3411TIP3   OH231647   1.622   0.324   4.683  0.2402 -0.0544  0.2599
 3411TIP3    H131648   1.705   0.284   4.708  0.5922  1.3289  1.4110
 3411TIP3    H231649   1.603   0.385   4.753 -0.7206  1.1459 -1.0014
 3412TIP3   OH231650   6.474   6.084  16.849  0.2507  0.2407  0.1494
 3412TIP3    H131651   6.383   6.080  16.820 -0.1466 -2.3741  1.4676
 3412TIP3    H231652   6.514   6.150  16.792 -1.8126 -0.4260 -2.2938
 3413TIP3   OH231653   1.870   0.532   2.805  0.3068  0.2991 -0.4888
 3413TIP3    H131654   1.896   0.619   2.836  1.9007 -0.0016 -0.9083
 3413TIP3    H231655   1.781   0.545   2.771  0.5342  1.7879 -0.6099
 3414TIP3   OH231656   0.439   6.688  15.165  0.0830 -0.1442 -0.4729
 3414TIP3    H131657   0.384   6.758  15.198  0.5587  0.3030 -0.6264
 3414TIP3    H231658   0.449   6.707  15.071 -2.5849 -2.2520 -1.3423
 3415TIP3   OH231659   5.783   3.605  11.887  0.4198  0.3008 -0.1426
 3415TIP3    H131660   5.866   3.594  11.935  1.2952 -0.2779 -1.7064
 3415TIP3    H231661   5.716   3.576  11.949  1.5248 -0.6527  0.6602
 3416TIP3   OH231662   2.826   3.218  14.029 -0.0006 -0.0418  0.5829
 3416TIP3    H131663   2.867   3.268  14.099 -0.4751  0.8216  0.2707
 3416TIP3    H231664   2.760   3.278  13.993 -0.3109 -0.7575 -0.0715
 3417TIP3   OH231665   3.780   3.231  13.571  0.0380  0.3584 -0.5572
 3417TIP3    H131666   3.803   3.156  13.516 -1.0905 -1.7065  1.6415
 3417TIP3    H231667   3.856   3.243  13.628 -0.6769 -0.6997  0.6733
 3418TIP3   OH231668   6.630   4.102  16.317  0.2708  0.1408  1.1374
 3418TIP3    H131669   6.620   4.094  16.222 -0.7535 -0.7993  1.2918
 3418TIP3    H231670   6.608   4.193  16.337  1.6047  0.6513  0.3702
 3419TIP3   OH231671   5.602   4.365  11.506  0.5827 -0.6922 -0.6599
 3419TIP3    H131672   5.529   4.425  11.523  0.0484 -0.5201 -3.2073
 3419TIP3    H231673   5.567   4.278  11.527  0.7512 -0.3357  1.2422
 3420TIP3   OH231674   3.910   4.236   2.497  0.9143  0.9293 -0.1029
 3420TIP3    H131675   3.820   4.267   2.480  0.8778  1.2540  0.6325
 3420TIP3    H231676   3.901   4.142   2.509  0.6266  1.0040  0.2711
 3421TIP3   OH231677   2.230   1.935   2.157  0.4587  0.1997 -0.3208
 3421TIP3    H131678   2.177   2.008   2.189  1.7408  0.4724  1.2964
 3421TIP3    H231679   2.218   1.936   2.062  0.0603  2.2007 -0.2781
 3422TIP3   OH231680   0.984   2.183   5.357  0.2772 -0.0273  0.3436
 3422TIP3    H131681   1.044   2.234   5.303 -1.4001  1.6796 -0.0087
 3422TIP3    H231682   0.922   2.145   5.294 -0.3926  0.1737  0.8722
 3423TIP3   OH231683   5.387   3.518  15.706  0.2510  0.8152 -0.4489
 3423TIP3    H131684   5.315   3.472  15.662 -0.3731  1.9176 -0.6376
 3423TIP3    H231685   5.465   3.468  15.683 -0.4617 -0.4746 -0.1525
 3424TIP3   OH231686   4.006   2.194   5.322 -0.0237 -0.2806  0.3736
 3424TIP3    H131687   3.953   2.123   5.358  1.2103 -1.7321 -0.5919
 3424TIP3    H231688   4.015   2.173   5.229  1.0063  0.7234  0.2265
 3425TIP3   OH231689   2.952   6.214  16.270 -0.1608 -0.2455 -0.1438
 3425TIP3    H131690   2.974   6.307  16.275  0.2502 -0.3943  1.2169
 3425TIP3    H231691   2.862   6.209  16.302 -0.7931 -0.1326 -1.8261
 3426TIP3   OH231692   2.263   4.753  17.022  0.7077  0.4602  0.1671
 3426TIP3    H131693   2.302   4.674  16.985  1.3386  1.4845 -1.4250
 3426TIP3    H231694   2.269   4.818  16.953 -0.3310  1.7614  1.2426
 3427TIP3   OH231695   6.060   4.309   1.247 -0.6968 -0.2628  0.0029
 3427TIP3    H131696   5.985   4.314   1.188 -0.5015 -0.3466 -0.2537
 3427TIP3    H231697   6.026   4.339   1.331 -1.3161 -1.3635  0.1753
 3428TIP3   OH231698   5.924   3.826   2.065  0.0237 -0.1479 -0.1930
 3428TIP3    H131699   5.895   3.781   1.985 -1.6353  1.1634 -0.3902
 3428TIP3    H231700   5.902   3.918   2.050  1.7271  0.4852  0.9010
 3429TIP3   OH231701   0.860   1.830   1.132 -0.2100  0.3405 -0.4608
 3429TIP3    H131702   0.782   1.886   1.129 -0.8233 -0.4807 -0.1273
 3429TIP3    H231703   0.933   1.889   1.111 -0.8053  1.3217  0.1607
 3430TIP3   OH231704   2.558   5.916  11.078  0.5255 -0.1315  0.3417
 3430TIP3    H131705   2.538   5.933  10.986 -1.2570 -0.6224  0.6104
 3430TIP3    H231706   2.648   5.883  11.077  0.7964  0.5717 -1.1316
 3431TIP3   OH231707   0.374   0.521   2.096  0.0203 -0.5603  0.2885
 3431TIP3    H131708   0.403   0.461   2.027 -0.2989 -0.8052  0.3644
 3431TIP3    H231709   0.278   0.517   2.092 -0.0066  0.0914  0.1650
 3432TIP3   OH231710   6.539   6.307  12.513 -0.1473  0.0445 -0.2313
 3432TIP3    H131711   6.617   6.251  12.509  0.1026  0.4038 -0.4355
 3432TIP3    H231712   6.470   6.255  12.473  0.1012 -0.0862 -0.4927
 3433TIP3   OH231713   1.320   1.504   4.216  0.0794  0.0843  0.0595
 3433TIP3    H131714   1.244   1.454   4.246 -0.0182  0.0845 -0.1860
 3433TIP3    H231715   1.380   1.504   4.291  1.0550 -2.3075 -0.6322
 3434TIP3   OH231716   3.664   6.163  13.178 -0.1669 -0.4036 -0.5562
 3434TIP3    H131717   3.643   6.230  13.243  0.0045 -1.0439  0.1670
 3434TIP3    H231718   3.759   6.164  13.172 -0.1588 -0.6720 -0.4548
 3435TIP3   OH231719   5.787   0.185  13.932 -0.2581  0.3171 -0.5189
 3435TIP3    H131720   5.731   0.107  13.922 -1.0792  0.8422 -0.0774
 3435TIP3    H231721   5.824   0.198  13.844 -0.0869 -0.5786 -0.5974
 3436TIP3   OH231722   1.092   6.165   1.639 -0.2455  0.4341 -0.2107
 3436TIP3    H131723   1.105   6.071   1.646 -0.4063  0.5133  1.5924
 3436TIP3    H231724   1.020   6.175   1.577  0.9886 -0.5098 -1.8806
 3437TIP3   OH231725   0.973   6.332   5.965  0.4707  0.1001 -0.3780
 3437TIP3    H131726   0.949   6.279   6.041 -0.1851  0.4303 -0.3505
 3437TIP3    H231727   0.948   6.421   5.989 -0.3432  0.1115 -1.2201
 3438TIP3   OH231728   5.607   6.699  14.517 -0.0951 -0.2062 -0.1745
 3438TIP3    H131729   5.515   6.722  14.505 -0.1405 -1.2157 -2.2597
 3438TIP3    H231730   5.605   6.618  14.568 -0.2018  0.9675  1.7904
 3439TIP3   OH231731   3.403   4.263   2.377  0.1379  0.0744  0.6030
 3439TIP3    H131732   3.355   4.202   2.320 -0.0776  0.5770  0.2406
 3439TIP3    H231733   3.367   4.246   2.465 -0.5489  0.2793  0.3735
 3440TIP3   OH231734   1.593   5.690  11.798  0.1748 -0.1318  0.1141
 3440TIP3    H131735   1.626   5.765  11.847  0.6049 -0.8251  0.9131
 3440TIP3    H231736   1.516   5.724  11.752 -0.3733  0.4899  1.4437
 3441TIP3   OH231737   2.477   4.833   5.772 -0.8134 -0.2407 -0.1407
 3441TIP3    H131738   2.568   4.810   5.757 -0.6038  0.4199  0.0605
 3441TIP3    H231739   2.432   4.811   5.690 -0.8088 -2.1442  0.3178
 3442TIP3   OH231740   0.583   0.299   1.063  0.1650  0.0673 -0.6466
 3442TIP3    H131741   0.677   0.282   1.057  0.0858 -1.1137  0.9090
 3442TIP3    H231742   0.573   0.389   1.031  1.5194 -0.4594 -2.8377
 3443TIP3   OH231743   3.199   2.168  17.144 -0.1968  0.0857  0.3279
 3443TIP3    H131744   3.273   2.227  17.155  0.0889 -0.3508  0.7340
 3443TIP3    H231745   3.151   2.204  17.069  0.4401  0.3445  0.0424
 3444TIP3   OH231746   1.450   5.169   1.980  0.1377  0.1459 -0.0644
 3444TIP3    H131747   1.401   5.119   2.044  0.7722  0.8531  0.9973
 3444TIP3    H231748   1.532   5.119   1.968  0.9371  1.0841  1.2800
 3445TIP3   OH231749   1.046   0.623   4.120 -0.1663  0.0942  1.4161
 3445TIP3    H131750   1.084   0.539   4.145  2.9200  0.5108 -1.2417
 3445TIP3    H231751   1.014   0.660   4.202  1.5730 -2.1602  3.2519
 3446TIP3   OH231752   3.760   2.063   1.335 -0.9183  0.1480  0.4281
 3446TIP3    H131753   3.812   1.995   1.293 -1.3908  0.8720 -1.4154
 3446TIP3    H231754   3.733   2.121   1.263 -3.5337  0.3018  1.4186
 3447TIP3   OH231755   0.196   2.277  13.502 -0.4919 -0.1434  0.0981
 3447TIP3    H131756   0.263   2.267  13.434 -1.1375 -1.3808 -0.3891
 3447TIP3    H231757   0.225   2.219  13.572 -0.3786  0.3175  0.4326
 3448TIP3   OH231758   5.012   6.581   2.832 -0.1081 -0.4513 -0.1999
 3448TIP3    H131759   4.966   6.507   2.793 -1.5113  0.5266 -0.5074
 3448TIP3    H231760   5.006   6.567   2.926  0.9824 -1.4800 -0.2597
 3449TIP3   OH231761   1.614   2.677   4.102  0.1695  0.1037 -0.0398
 3449TIP3    H131762   1.599   2.771   4.090 -0.0634  0.1846  0.8184
 3449TIP3    H231763   1.527   2.642   4.120  0.4209 -0.0687  0.9034
 3450TIP3   OH231764   4.954   1.660   5.344 -0.1270  0.0547 -0.3312
 3450TIP3    H131765   5.046   1.665   5.317  0.0141  3.1215  0.3556
 3450TIP3    H231766   4.912   1.734   5.300 -2.1530 -0.8953 -0.1080
 3451TIP3   OH231767   3.997   6.692   1.080 -0.6217 -0.0805  0.4493
 3451TIP3    H131768   3.960   6.772   1.044 -0.5632 -0.0886  0.3697
 3451TIP3    H231769   3.969   6.624   1.018 -0.5081 -0.0925  0.4118
 3452TIP3   OH231770   0.304   0.846   2.953 -0.1880  0.1885 -0.9250
 3452TIP3    H131771   0.278   0.772   3.009 -0.0318  0.3540 -0.6365
 3452TIP3    H231772   0.380   0.814   2.905  2.3099  1.3831  1.9336
 3453TIP3   OH231773   2.432   4.938   2.384 -0.3239  0.4430 -1.1474
 3453TIP3    H131774   2.399   4.959   2.297 -1.4385  1.2235 -0.5552
 3453TIP3    H231775   2.373   4.984   2.444 -0.6128 -1.4667  0.0912
 3454TIP3   OH231776   5.988   0.760  13.564  0.5129  0.2699  0.3951
 3454TIP3    H131777   6.025   0.774  13.651  3.0230 -0.9258 -0.3774
 3454TIP3    H231778   5.910   0.707  13.579  1.3444 -0.6041  1.8683
 3455TIP3   OH231779   4.665   3.064   2.756  0.0530 -0.1518  0.5280
 3455TIP3    H131780   4.609   3.125   2.805  0.8295  0.3634  0.7995
 3455TIP3    H231781   4.663   3.096   2.666 -1.9404 -1.5083  0.0191
 3456TIP3   OH231782   6.288   1.427   0.873 -0.2966 -0.1162  0.9028
 3456TIP3    H131783   6.238   1.458   0.948  1.0070  2.0415  0.9745
 3456TIP3    H231784   6.331   1.347   0.904 -1.0759 -0.1628  1.9038
 3457TIP3   OH231785   3.934   4.646  15.809  0.2680  0.4293  0.1160
 3457TIP3    H131786   3.903   4.584  15.743 -1.7434  0.4060  1.0228
 3457TIP3    H231787   3.883   4.725  15.794  1.2802  1.1500  0.3458
 3458TIP3   OH231788   2.589   5.882  14.815  0.0510  0.2410 -0.0237
 3458TIP3    H131789   2.681   5.905  14.799 -0.2748  2.7622  1.3159
 3458TIP3    H231790   2.593   5.822  14.890  0.6432 -0.4869 -0.6175
 3459TIP3   OH231791   0.892   1.088   2.607  0.1309 -0.0239  0.2822
 3459TIP3    H131792   0.820   1.069   2.666 -0.1768  0.5615  0.1094
 3459TIP3    H231793   0.884   1.024   2.537 -0.3870  0.2082  0.1261
 3460TIP3   OH231794   0.381   2.583   3.866 -0.3394  0.2251 -0.3005
 3460TIP3    H131795   0.424   2.629   3.793 -0.2754  0.2380 -0.2542
 3460TIP3    H231796   0.310   2.534   3.824  0.5155 -0.8372 -0.5517
 3461TIP3   OH231797   2.312   3.089   4.192  0.4829 -0.0481  0.0047
 3461TIP3    H131798   2.367   3.166   4.178  0.0221  0.4642  0.8890
 3461TIP3    H231799   2.286   3.094   4.285 -2.1985  0.5295 -0.6817
 3462TIP3   OH231800   5.451   1.187   5.201  0.3187  0.6114 -0.6732
 3462TIP3    H131801   5.408   1.253   5.146  0.7792  1.8206  0.3593
 3462TIP3    H231802   5.542   1.189   5.173  0.4970  1.0261 -0.0824
 3463TIP3   OH231803   3.736   5.691   4.860 -0.0963  0.1377 -0.5287
 3463TIP3    H131804   3.671   5.641   4.810 -0.2887  1.0521 -1.2186
 3463TIP3    H231805   3.691   5.714   4.941  0.1968 -1.2973  0.0814
 3464TIP3   OH231806   0.010   1.049   2.105 -0.0976 -0.0761  0.0221
 3464TIP3    H131807  -0.040   1.109   2.160  1.0310  0.0854  0.9258
 3464TIP3    H231808   0.067   1.105   2.053 -0.6241 -0.2711 -0.7853
 3465TIP3   OH231809   4.514   4.070   5.355 -0.5115 -0.0096 -0.6732
 3465TIP3    H131810   4.578   4.080   5.425 -0.1685  0.5338 -1.0563
 3465TIP3    H231811   4.497   3.976   5.351 -0.0170 -0.1164 -0.3218
 3466TIP3   OH231812   4.137   1.413   4.634 -0.1423  0.7316 -0.0834
 3466TIP3    H131813   4.061   1.419   4.577  0.3445  4.3868 -0.6190
 3466TIP3    H231814   4.103   1.435   4.721 -0.1756 -0.7544  0.3052
 3467TIP3   OH231815   2.811   5.735   3.779  0.2103  0.0649 -0.1546
 3467TIP3    H131816   2.750   5.737   3.852  0.2228  0.5384 -0.1529
 3467TIP3    H231817   2.896   5.715   3.818 -0.1998 -2.2994 -0.3509
 3468TIP3   OH231818   5.745   4.181   1.432  0.1834  0.0360 -1.3184
 3468TIP3    H131819   5.653   4.154   1.426  0.1731 -0.1717 -0.4104
 3468TIP3    H231820   5.778   4.172   1.342 -0.7499  0.3815 -1.7132
 3469TIP3   OH231821   5.215   3.583   3.904  0.5084  0.0213 -0.0328
 3469TIP3    H131822   5.252   3.511   3.854 -2.3515  0.3054 -2.9828
 3469TIP3    H231823   5.267   3.660   3.878  0.0676 -0.1183 -1.4316
 3470TIP3   OH231824   5.954   3.790   4.037  0.2926 -0.0398 -0.0671
 3470TIP3    H131825   5.862   3.777   4.013  0.3851 -0.3812 -0.2478
 3470TIP3    H231826   5.955   3.783   4.132  0.2090 -0.5643 -0.1004
 3471TIP3   OH231827   0.597   3.800   2.037 -0.2991  0.2805 -0.6959
 3471TIP3    H131828   0.541   3.729   2.069 -1.2993  0.8298 -1.1745
 3471TIP3    H231829   0.538   3.874   2.026  0.4488  0.7637 -1.6085
 3472TIP3   OH231830   0.831   1.153   4.057  0.7825 -1.0002 -0.2796
 3472TIP3    H131831   0.773   1.092   4.012  0.0614  0.7396 -1.8227
 3472TIP3    H231832   0.776   1.198   4.120  0.6134  0.0515 -1.1513
 3473TIP3   OH231833   3.906   5.799   4.471 -1.1450  0.1650  0.3445
 3473TIP3    H131834   3.836   5.814   4.535  0.2816 -0.2328  2.0677
 3473TIP3    H231835   3.968   5.870   4.485  0.0605 -0.9191  0.6543
 3474TIP3   OH231836   0.900   5.730  16.944  0.5135 -0.3977  0.7591
 3474TIP3    H131837   0.897   5.817  16.903 -0.1790 -0.6701  0.2264
 3474TIP3    H231838   0.817   5.689  16.922  1.3985 -1.7642 -0.2501
 3475TIP3   OH231839   4.365   2.816  13.127 -0.0714  0.0234 -0.0451
 3475TIP3    H131840   4.383   2.726  13.153  1.7209  0.3058 -0.1964
 3475TIP3    H231841   4.294   2.809  13.062  0.0046 -1.2618 -0.0036
 3476TIP3   OH231842   5.332   3.325  13.378 -0.0414 -0.4199 -0.3228
 3476TIP3    H131843   5.294   3.244  13.344  0.1588 -0.7527  0.2453
 3476TIP3    H231844   5.367   3.302  13.463  0.0601  0.2560 -0.1729
 3477TIP3   OH231845   0.417   5.713   5.074 -0.6317 -0.0230  0.1737
 3477TIP3    H131846   0.504   5.717   5.114 -0.1549 -1.1257 -0.6864
 3477TIP3    H231847   0.361   5.763   5.133  0.2175 -0.8388  1.7302
 3478TIP3   OH231848   5.832   0.549   4.087  0.2851 -0.3305 -0.1644
 3478TIP3    H131849   5.858   0.624   4.139 -0.9531  1.7657 -2.3813
 3478TIP3    H231850   5.747   0.523   4.123 -0.1366  0.5156 -0.5311
 3479TIP3   OH231851   3.112   4.173   1.327  0.0200  0.0414  0.3466
 3479TIP3    H131852   3.196   4.169   1.282  1.3427  0.4631  2.5991
 3479TIP3    H231853   3.093   4.266   1.336 -0.1636 -0.0339  0.7686
 3480TIP3   OH231854   2.851   4.285  16.478 -0.8199 -0.3210  0.2434
 3480TIP3    H131855   2.778   4.238  16.518 -1.3355  0.5635  0.3645
 3480TIP3    H231856   2.858   4.248  16.390 -1.2617 -0.5739  0.3118
 3481TIP3   OH231857   5.750   5.761  13.380 -0.3137  0.3089 -0.3489
 3481TIP3    H131858   5.759   5.666  13.384  2.3166  0.5176  3.1434
 3481TIP3    H231859   5.840   5.793  13.367 -0.8424  2.3382  0.6580
 3482TIP3   OH231860   0.120   5.454  15.818  0.0799 -0.2775 -0.1200
 3482TIP3    H131861   0.175   5.376  15.809  1.0971  0.5747 -1.7677
 3482TIP3    H231862   0.052   5.443  15.751 -0.1022 -0.0242  0.0218
 3483TIP3   OH231863   3.172   4.084   1.644 -0.4350 -0.3751  0.4996
 3483TIP3    H131864   3.137   4.046   1.724 -1.1852  0.6178  0.6753
 3483TIP3    H231865   3.267   4.086   1.657 -0.5851  0.3873  1.6718
 3484TIP3   OH231866   2.903   2.879   4.770  0.0534  0.0227 -0.6153
 3484TIP3    H131867   2.921   2.938   4.697 -1.5462 -0.5390 -1.5139
 3484TIP3    H231868   2.971   2.812   4.765  0.3198  0.3336 -1.2328
 3485TIP3   OH231869   4.740   5.417  13.875 -0.1166 -0.1372  0.7589
 3485TIP3    H131870   4.689   5.480  13.822 -0.7776 -0.5403  0.9102
 3485TIP3    H231871   4.801   5.378  13.813 -1.9079 -1.7315 -0.1149
 3486TIP3   OH231872   3.761   4.791  11.687  0.2299  0.0590 -0.2087
 3486TIP3    H131873   3.777   4.860  11.751 -0.1949  0.9598 -1.0321
 3486TIP3    H231874   3.797   4.712  11.726 -0.7653  0.4142  1.4808
 3487TIP3   OH231875   5.437   1.467  13.255 -0.1896 -0.1345  0.1693
 3487TIP3    H131876   5.383   1.487  13.178 -0.4963 -1.4220  0.0263
 3487TIP3    H231877   5.516   1.521  13.244 -0.1522 -0.4307 -1.1389
 3488TIP3   OH231878   3.388   5.120   3.400  0.3562 -0.3322 -0.2363
 3488TIP3    H131879   3.471   5.079   3.374  0.1657  0.1005 -1.6173
 3488TIP3    H231880   3.409   5.166   3.481  1.2114 -1.0353 -0.0305
 3489TIP3   OH231881   5.946   0.094   0.305 -0.0789  0.1728  0.5140
 3489TIP3    H131882   5.866   0.049   0.279  0.9487 -1.6939  0.3961
 3489TIP3    H231883   5.945   0.176   0.255 -2.0108  0.3067  0.7256
 3490TIP3   OH231884   6.556   3.212  13.256  0.0415  0.3400  0.1760
 3490TIP3    H131885   6.568   3.155  13.180 -0.2698 -0.1373  0.4782
 3490TIP3    H231886   6.581   3.299  13.225  1.8232 -0.1700  0.0776
 3491TIP3   OH231887   0.617   5.431   2.522  0.6183  0.4254  0.3141
 3491TIP3    H131888   0.562   5.394   2.591  0.3520  0.9889  0.4122
 3491TIP3    H231889   0.557   5.480   2.467  0.5946 -1.1549 -1.1507
 3492TIP3   OH231890   1.782   5.617  14.947  0.6518  0.6706 -0.5643
 3492TIP3    H131891   1.799   5.524  14.958 -1.8711  0.4476  3.3362
 3492TIP3    H231892   1.703   5.621  14.893 -0.8276  0.3185  1.5029
 3493TIP3   OH231893   1.619   6.262  11.854  0.1150 -0.0870  0.4657
 3493TIP3    H131894   1.553   6.193  11.845 -0.3228  0.1351  1.7161
 3493TIP3    H231895   1.630   6.271  11.949  2.0986 -0.2668  0.2927
 3494TIP3   OH231896   2.296   4.531  10.858  0.4570  0.4354 -0.0011
 3494TIP3    H131897   2.323   4.445  10.891  0.8879  0.2139 -0.9127
 3494TIP3    H231898   2.243   4.568  10.929  2.0251  0.3059  1.2827
 3495TIP3   OH231899   2.249   3.559   6.155 -0.3305 -0.8599 -0.1259
 3495TIP3    H131900   2.344   3.551   6.163 -0.5596 -3.3372  1.0161
 3495TIP3    H231901   2.226   3.635   6.209  0.9751 -0.2297 -0.4288
 3496TIP3   OH231902   5.461   1.696   0.394  0.0161  0.5062  0.0661
 3496TIP3    H131903   5.407   1.753   0.448 -0.4376  1.2498 -1.1424
 3496TIP3    H231904   5.514   1.755   0.342  1.5557 -0.2104  0.7590
 3497TIP3   OH231905   3.491   5.657   0.386  0.4094 -0.5457 -0.1287
 3497TIP3    H131906   3.424   5.599   0.349 -1.2130  0.0670  1.6957
 3497TIP3    H231907   3.507   5.722   0.317 -1.3008 -0.3898 -0.4239
 3498TIP3   OH231908   3.877   0.932   2.138  0.4276  0.1782 -0.4881
 3498TIP3    H131909   3.966   0.923   2.173  0.4958  2.1432 -0.0100
 3498TIP3    H231910   3.838   1.003   2.189 -0.1937  1.7526 -2.9442
 3499TIP3   OH231911   2.326   4.433   4.412  0.2029  0.0862  0.0858
 3499TIP3    H131912   2.257   4.378   4.450  0.9049 -1.7159 -1.1063
 3499TIP3    H231913   2.279   4.503   4.366 -1.0569 -2.3601 -2.6499
 3500TIP3   OH231914   1.199   2.291   1.989 -0.2105  0.2847 -0.5252
 3500TIP3    H131915   1.208   2.335   1.904  1.0939  1.7462  0.3112
 3500TIP3    H231916   1.288   2.265   2.012 -0.4111  0.7044  0.7968
 3501TIP3   OH231917   1.456   5.824  12.272  0.1885 -0.2081 -0.1842
 3501TIP3    H131918   1.387   5.890  12.266  0.9561  0.8311  1.8091
 3501TIP3    H231919   1.417   5.745  12.233 -0.6064  1.4363 -3.0600
 3502TIP3   OH231920   2.596   2.150   0.106  0.1800 -0.5143  0.2925
 3502TIP3    H131921   2.571   2.059   0.096 -1.2684 -0.0205 -0.9573
 3502TIP3    H231922   2.663   2.164   0.038  0.3538 -0.6216  0.4407
 3503TIP3   OH231923   5.573   3.590  14.980  0.2945  0.0281 -0.3608
 3503TIP3    H131924   5.517   3.643  14.924  0.0729  1.5114  1.1799
 3503TIP3    H231925   5.525   3.583  15.062  1.7578  0.1755  0.5404
 3504TIP3   OH231926   3.957   1.687  14.829 -0.0678  1.2578 -0.2223
 3504TIP3    H131927   4.035   1.681  14.884  0.1783  0.7239 -0.6203
 3504TIP3    H231928   3.903   1.754  14.871 -0.8243 -0.5451  1.8756
 3505TIP3   OH231929   1.608   0.187   2.141 -0.1895 -0.6637 -0.1900
 3505TIP3    H131930   1.563   0.157   2.062  0.4902 -0.3424 -0.7082
 3505TIP3    H231931   1.587   0.120   2.206 -0.9503 -0.8130 -0.5708
 3506TIP3   OH231932   2.075   2.445  11.301 -0.3466  0.0248  0.1910
 3506TIP3    H131933   2.015   2.372  11.317 -1.0531  0.6220  0.3364
 3506TIP3    H231934   2.097   2.479  11.388  0.8907 -0.7103  0.1916
 3507TIP3   OH231935   1.411   0.348   1.268  1.4083 -0.1030  0.1333
 3507TIP3    H131936   1.386   0.279   1.207 -2.1529 -0.2794  1.5513
 3507TIP3    H231937   1.348   0.418   1.253  1.4236  0.5130  2.4798
 3508TIP3   OH231938   0.207   5.675  11.300 -0.0058 -0.0841  0.8350
 3508TIP3    H131939   0.149   5.743  11.266 -0.6985 -0.3743  1.3941
 3508TIP3    H231940   0.166   5.593  11.274  0.5616 -0.2971  0.5921
 3509TIP3   OH231941   1.811   3.989  15.573  0.1149 -0.0056  0.4399
 3509TIP3    H131942   1.763   3.972  15.492 -0.9994  1.9196  0.6086
 3509TIP3    H231943   1.784   3.919  15.632 -1.6067  0.3308  0.1268
 3510TIP3   OH231944   1.067   5.700   4.336  0.1005  0.5341 -0.0937
 3510TIP3    H131945   1.138   5.738   4.388  0.9096  0.2934 -0.9886
 3510TIP3    H231946   1.019   5.776   4.302 -0.7013  0.6868  1.3291
 3511TIP3   OH231947   6.720   6.430   5.291  0.1634 -0.1463 -0.6706
 3511TIP3    H131948   6.714   6.364   5.222 -1.1406  0.6047 -1.3124
 3511TIP3    H231949   6.630   6.462   5.302  0.4756  0.2956  0.8450
 3512TIP3   OH231950   1.106   4.514  12.620 -0.2375 -0.3226  0.0179
 3512TIP3    H131951   1.116   4.604  12.652 -0.5872 -0.6241  1.0123
 3512TIP3    H231952   1.192   4.475  12.633 -0.0224 -0.0764 -0.6227
 3513TIP3   OH231953   0.943   0.530   1.410 -0.1970  0.5425  0.1948
 3513TIP3    H131954   0.914   0.523   1.319  2.0315 -0.7334 -0.4763
 3513TIP3    H231955   0.926   0.444   1.448 -0.4543  0.8533  0.8178
 3514TIP3   OH231956   0.442   4.634   5.762  0.2250 -0.4464  0.9472
 3514TIP3    H131957   0.478   4.669   5.844  0.5095  1.2944  0.1150
 3514TIP3    H231958   0.384   4.702   5.730  0.9062 -0.6380 -0.8189
 3515TIP3   OH231959   2.595   4.223  12.213 -0.0216 -0.2810  0.3512
 3515TIP3    H131960   2.635   4.310  12.210 -2.2688  0.8094 -0.3143
 3515TIP3    H231961   2.501   4.240  12.216 -0.5405 -2.7086 -0.0488
 3516TIP3   OH231962   6.099   2.984   5.190  0.3029 -0.9051  0.0129
 3516TIP3    H131963   6.136   2.896   5.192  2.6682 -0.0473 -1.2305
 3516TIP3    H231964   6.160   3.034   5.136 -1.0240  1.4792  0.5704
 3517TIP3   OH231965   0.896   3.375  14.696 -0.5408  0.4521  0.4130
 3517TIP3    H131966   0.873   3.288  14.727  1.1102 -0.0870  0.2172
 3517TIP3    H231967   0.942   3.360  14.613 -1.3671  1.6072 -0.2828
 3518TIP3   OH231968   2.381   5.997   2.706  0.3041 -0.1214 -0.5874
 3518TIP3    H131969   2.355   5.917   2.751  0.8258 -0.8317 -1.5130
 3518TIP3    H231970   2.366   6.067   2.770 -0.5946 -0.8947  0.0689
 3519TIP3   OH231971   0.218   4.886  16.371  0.2268  0.7521 -0.3051
 3519TIP3    H131972   0.204   4.885  16.466 -1.2043  0.8067 -0.4844
 3519TIP3    H231973   0.312   4.875  16.360  0.1207 -2.8005  1.0612
 3520TIP3   OH231974   2.736   1.486   3.389 -0.1668  0.3505 -0.0286
 3520TIP3    H131975   2.700   1.449   3.309  3.2899  2.6586 -3.0044
 3520TIP3    H231976   2.823   1.446   3.397 -1.0796 -1.2882  3.8874
 3521TIP3   OH231977   5.893   6.334  16.327  0.0297  0.1444 -0.2505
 3521TIP3    H131978   5.856   6.287  16.253 -0.5995 -2.9423  1.8454
 3521TIP3    H231979   5.973   6.286  16.349  1.0991  1.9824  0.1263
 3522TIP3   OH231980   2.202   0.496  16.403 -0.8846  0.0722  0.4098
 3522TIP3    H131981   2.114   0.506  16.367 -1.4650 -0.5510  1.5865
 3522TIP3    H231982   2.237   0.418  16.359 -0.2706  1.2056 -1.2273
 3523TIP3   OH231983   5.348   3.380   3.775 -0.0943 -0.3256 -0.2969
 3523TIP3    H131984   5.426   3.414   3.731  1.9015 -2.2202  1.4689
 3523TIP3    H231985   5.381   3.304   3.824 -2.2272  0.9897  3.6048
 3524TIP3   OH231986   3.497   6.162   5.609 -0.1998  0.0441  0.4572
 3524TIP3    H131987   3.420   6.202   5.569 -0.0671  0.7325  0.8816
 3524TIP3    H231988   3.534   6.106   5.540 -1.4629 -0.8408  0.4733
 3525TIP3   OH231989   0.000   0.127  11.534  0.1594  0.3686  0.2207
 3525TIP3    H131990   0.041   0.161  11.454  0.5152 -0.6325 -0.0429
 3525TIP3    H231991   0.061   0.061  11.565 -0.3783  0.1696  0.8715
 3526TIP3   OH231992   4.949   5.983   2.170  0.1992  0.0127 -0.5881
 3526TIP3    H131993   4.907   5.900   2.192 -0.2583  0.2432 -0.5911
 3526TIP3    H231994   5.041   5.969   2.193  0.1352 -0.5061 -0.6234
 3527TIP3   OH231995   6.346   5.888   2.770  0.2788  0.0370 -0.0623
 3527TIP3    H131996   6.351   5.979   2.801  1.0889  0.7182 -2.0215
 3527TIP3    H231997   6.424   5.846   2.807 -0.3438 -0.0302  1.2388
 3528TIP3   OH231998   3.149   3.956   5.861  0.1907  0.4738  0.4528
 3528TIP3    H131999   3.195   3.881   5.825  0.2255  0.4438  0.5573
 3528TIP3    H232000   3.191   3.972   5.946 -0.4683 -0.0195  0.8817
 3529TIP3   OH232001   2.988   0.933  13.683  0.1366  0.6574  0.5050
 3529TIP3    H132002   2.914   0.970  13.732 -0.0580 -0.4414  1.0683
 3529TIP3    H232003   3.064   0.951  13.738  0.2700  1.5205  0.0664
 3530TIP3   OH232004   5.522   4.048  14.339 -0.3037  0.2119 -0.3906
 3530TIP3    H132005   5.545   4.097  14.260 -0.8366 -0.3888 -0.9333
 3530TIP3    H232006   5.583   4.080  14.405 -1.3293  2.4145 -0.4009
 3531TIP3   OH232007   0.767   6.573   2.417 -0.1275  0.5185 -0.1806
 3531TIP3    H132008   0.837   6.634   2.390  0.6534  0.8642  2.3479
 3531TIP3    H232009   0.811   6.510   2.474 -1.1804 -1.7246 -1.7054
 3532TIP3   OH232010   3.623   1.855  13.191  0.0325 -0.1994  0.2195
 3532TIP3    H132011   3.650   1.764  13.197  0.0920 -0.1649  0.4884
 3532TIP3    H232012   3.547   1.854  13.132  1.2403 -0.1516 -1.3998
 3533TIP3   OH232013   3.015   5.872  11.015  0.0142 -0.1060 -0.0859
 3533TIP3    H132014   3.022   5.787  11.058  0.5424 -0.6296 -1.1681
 3533TIP3    H232015   2.959   5.857  10.940 -2.3823  1.1946  1.3162
 3534TIP3   OH232016   1.504   2.648  12.464  0.0897  0.2412 -0.1630
 3534TIP3    H132017   1.579   2.676  12.516  1.1239 -0.5407 -1.1765
 3534TIP3    H232018   1.487   2.720  12.403  1.0676 -0.2010 -0.9981
 3535TIP3   OH232019   2.128   5.724  12.831  0.3927 -0.2329 -0.4080
 3535TIP3    H132020   2.032   5.722  12.832  0.2508  2.1853 -1.2990
 3535TIP3    H232021   2.152   5.764  12.915  0.5602  0.1571 -0.6410
 3536TIP3   OH232022   3.822   0.635   0.064  0.1089 -0.2573  0.3296
 3536TIP3    H132023   3.824   0.568  -0.005  0.1729 -1.1260  1.1533
 3536TIP3    H232024   3.871   0.709   0.027  3.3138 -1.9944  0.7352
 3537TIP3   OH232025   5.842   2.262   1.954 -0.4498  0.2496 -0.4074
 3537TIP3    H132026   5.784   2.325   1.996 -2.6868 -1.5584 -0.6159
 3537TIP3    H232027   5.809   2.253   1.865 -1.0773 -2.1149 -0.0209
 3538TIP3   OH232028   5.713   4.100   6.036  0.3421  0.0009 -0.3144
 3538TIP3    H132029   5.743   4.167   5.974  0.2622  0.0660 -0.2822
 3538TIP3    H232030   5.668   4.149   6.104 -1.3006 -0.2163 -1.1931
 3539TIP3   OH232031   0.394   5.484  14.062  0.6889 -0.1027  0.8232
 3539TIP3    H132032   0.346   5.465  14.142 -0.3793 -0.0728  0.2103
 3539TIP3    H232033   0.434   5.401  14.037  1.1432 -0.0813  1.4460
 3540TIP3   OH232034   6.727   6.269  17.145 -0.3908 -0.0982 -0.1100
 3540TIP3    H132035   6.730   6.354  17.101  0.8614 -0.1735 -0.2176
 3540TIP3    H232036   6.812   6.230  17.126 -1.3962 -1.9302 -1.1252
 3541TIP3   OH232037   0.388   1.061   4.005 -0.5925  0.0362  0.0750
 3541TIP3    H132038   0.390   0.965   4.001 -0.6809 -0.0009  0.8361
 3541TIP3    H232039   0.305   1.084   3.963 -2.0192 -0.3962  2.4778
 3542TIP3   OH232040   0.683   6.390  13.743  1.0528 -0.7446  0.0252
 3542TIP3    H132041   0.617   6.352  13.802 -2.1252  0.1593 -2.6592
 3542TIP3    H232042   0.737   6.444  13.801 -1.1100 -0.8223  2.3267
 3543TIP3   OH232043   4.503   0.211   1.824 -0.3235 -0.2979  0.5098
 3543TIP3    H132044   4.508   0.116   1.818  1.5818 -0.1410 -2.4187
 3543TIP3    H232045   4.574   0.235   1.884 -0.0911 -0.6576  0.3830
 3544TIP3   OH232046   0.955   2.825  15.553 -0.0110  0.4790  0.0087
 3544TIP3    H132047   1.050   2.829  15.538  0.1253  0.2361  0.7627
 3544TIP3    H232048   0.920   2.901  15.506  0.5885  0.7311 -0.0367
 3545TIP3   OH232049   1.792   6.743   6.151  0.9277  0.0026  0.0602
 3545TIP3    H132050   1.823   6.653   6.138 -1.7665 -0.6607 -3.5134
 3545TIP3    H232051   1.846   6.796   6.092 -0.4120 -0.1388 -1.3705
 3546TIP3   OH232052   3.767   6.589   5.697  0.0203 -0.2360 -0.9001
 3546TIP3    H132053   3.739   6.567   5.785 -0.1430 -2.0794 -1.3672
 3546TIP3    H232054   3.856   6.622   5.707  0.0098 -0.4540 -0.0354
 3547TIP3   OH232055   2.810   3.155  16.964 -0.2613  0.3405  0.0259
 3547TIP3    H132056   2.776   3.231  17.010  2.8266  1.9918 -0.1906
 3547TIP3    H232057   2.796   3.174  16.872 -0.3507  0.1944  0.0094
 3548TIP3   OH232058   5.174   4.251   2.786 -0.3875 -0.4583  0.2206
 3548TIP3    H132059   5.122   4.182   2.746 -0.5449 -1.4256  1.9740
 3548TIP3    H232060   5.189   4.315   2.716  1.2784 -3.0657 -1.9646
 3549TIP3   OH232061   2.493   0.940   5.376 -0.0173 -0.5631 -0.2176
 3549TIP3    H132062   2.536   1.025   5.361 -0.5371 -0.5510 -1.8182
 3549TIP3    H232063   2.532   0.908   5.457  0.3736  1.0904  0.2920
 3550TIP3   OH232064   1.703   4.094  16.300 -0.2827 -0.4579  0.0442
 3550TIP3    H132065   1.644   4.169  16.304 -0.5328 -0.4835 -1.9614
 3550TIP3    H232066   1.645   4.018  16.297 -0.0596 -0.6667  0.8400
 3551TIP3   OH232067   5.196   1.698   2.992 -0.9161  0.1798  0.4367
 3551TIP3    H132068   5.241   1.695   2.908 -0.2643 -1.0234  0.8170
 3551TIP3    H232069   5.130   1.767   2.981 -1.5681 -0.6833 -1.4153
 3552TIP3   OH232070   1.408   6.191   0.257 -0.3955  0.4379  0.1957
 3552TIP3    H132071   1.314   6.188   0.276 -0.5584  2.5725  0.0104
 3552TIP3    H232072   1.418   6.140   0.177 -1.1737 -0.8445  0.8746
 3553TIP3   OH232073   4.812   3.715  12.998  0.4340 -0.0717 -0.4723
 3553TIP3    H132074   4.878   3.706  12.929 -0.2843 -0.2963 -1.1599
 3553TIP3    H232075   4.729   3.695  12.953 -0.1362  0.5806  0.2743
 3554TIP3   OH232076   0.968   3.708   0.736 -0.2352 -0.4740  0.0176
 3554TIP3    H132077   0.991   3.661   0.816 -0.5480 -1.4395 -0.4373
 3554TIP3    H232078   1.009   3.794   0.746 -1.8360  0.1493  2.0718
 3555TIP3   OH232079   4.593   3.974  16.638 -0.5718  0.4895 -0.2358
 3555TIP3    H132080   4.567   4.024  16.715  1.1849  1.0666  0.0041
 3555TIP3    H232081   4.511   3.933  16.609 -1.5328  1.3449  1.1161
 3556TIP3   OH232082   3.217   4.175   1.950 -0.0227  0.0066 -0.3820
 3556TIP3    H132083   3.260   4.233   2.013  0.1111  0.5528 -0.9726
 3556TIP3    H232084   3.179   4.233   1.885 -0.1028 -0.5555 -0.8468
 3557TIP3   OH232085   2.920   4.795  14.393  0.3540 -0.2147  0.5843
 3557TIP3    H132086   2.985   4.732  14.426  0.2294 -0.7440 -0.1649
 3557TIP3    H232087   2.972   4.859  14.345  0.5087  0.4128  1.5621
 3558TIP3   OH232088   4.531   5.587  13.709 -0.2200 -0.1879 -0.7679
 3558TIP3    H132089   4.594   5.654  13.736  0.3120 -0.1844 -1.9609
 3558TIP3    H232090   4.514   5.606  13.617  0.1000 -1.8192 -1.1889
 3559TIP3   OH232091   5.566   1.525  16.613 -0.2988  0.0388  0.2737
 3559TIP3    H132092   5.624   1.537  16.688 -0.8909 -1.2422  0.9560
 3559TIP3    H232093   5.501   1.594  16.622  0.1421  0.4411  0.4399
 3560TIP3   OH232094   6.251   5.242  15.423 -0.7214  0.3549 -0.0941
 3560TIP3    H132095   6.248   5.294  15.343 -0.6450  0.7783  0.1797
 3560TIP3    H232096   6.219   5.155  15.396  2.4731 -0.5558 -1.3821
 3561TIP3   OH232097   2.844   6.661   1.664 -0.1148 -0.5218  0.1340
 3561TIP3    H132098   2.843   6.601   1.589  0.4284 -2.6141  1.7056
 3561TIP3    H232099   2.780   6.728   1.641 -0.7974 -1.7019 -1.7149
 3562TIP3   OH232100   6.001   0.622   0.023 -0.1313 -0.3625 -0.0380
 3562TIP3    H132101   5.977   0.706   0.064  0.7493 -0.1690  0.1118
 3562TIP3    H232102   6.050   0.647  -0.055  0.1381 -0.7388  0.0088
 3563TIP3   OH232103   1.972   5.076   4.260  0.0878 -0.0725 -0.4179
 3563TIP3    H132104   1.900   5.130   4.227  0.8421  0.5695 -1.0454
 3563TIP3    H232105   2.051   5.126   4.241  0.6580 -0.3305  1.1205
 3564TIP3   OH232106   3.675   0.008   3.617 -0.6899 -0.5590  0.3998
 3564TIP3    H132107   3.601   0.064   3.593 -2.3895 -2.4853  0.9386
 3564TIP3    H232108   3.647  -0.080   3.595  1.4101 -1.3824  0.7959
 3565TIP3   OH232109   0.001   1.854   5.453  0.3405 -0.1530  0.4512
 3565TIP3    H132110   0.093   1.881   5.455  0.2537  0.4157 -1.2735
 3565TIP3    H232111   0.004   1.759   5.458  0.9231 -0.0822  1.8480
 3566TIP3   OH232112   2.867   2.064   3.188 -0.0133 -0.0950  0.0340
 3566TIP3    H132113   2.930   2.093   3.122 -0.2091  1.6185  0.5584
 3566TIP3    H232114   2.836   1.980   3.155  0.1622  0.5274 -1.8726
 3567TIP3   OH232115   4.822   5.782  11.749 -0.1088 -0.4618 -0.0324
 3567TIP3    H132116   4.816   5.825  11.664  0.0057  0.2417  0.3102
 3567TIP3    H232117   4.893   5.828  11.795 -1.1419  0.1380  0.9987
 3568TIP3   OH232118   3.164   4.440   1.233 -0.4126  0.0551  0.7956
 3568TIP3    H132119   3.138   4.478   1.149  0.9899  2.1410  1.2444
 3568TIP3    H232120   3.252   4.407   1.218 -0.7260 -0.9442  1.0687
 3569TIP3   OH232121   3.683   4.983  14.185  0.1871  0.5827 -0.4055
 3569TIP3    H132122   3.779   4.974  14.186  0.1933  0.3693 -1.7585
 3569TIP3    H232123   3.667   5.064  14.138 -0.2811  1.4683  1.1897
 3570TIP3   OH232124   3.422   3.905   0.226 -0.0095 -0.3037  0.5116
 3570TIP3    H132125   3.458   3.826   0.184  0.9217 -0.7692  2.0824
 3570TIP3    H232126   3.329   3.886   0.236 -0.4666  0.2030 -2.0718
 3571TIP3   OH232127   5.844   2.806   2.510 -0.2648  0.4738 -0.2368
 3571TIP3    H132128   5.807   2.788   2.424  1.1013  1.4940 -1.0879
 3571TIP3    H232129   5.906   2.734   2.526 -0.3632  0.3965 -0.2062
 3572TIP3   OH232130   2.314   2.350   0.498  0.1592  0.4675 -0.1286
 3572TIP3    H132131   2.262   2.325   0.421 -2.5497  0.6112  1.5482
 3572TIP3    H232132   2.350   2.436   0.476 -1.7732  1.1662 -0.7245
 3573TIP3   OH232133   5.200   3.251  14.037 -0.2301  0.3615  0.1906
 3573TIP3    H132134   5.146   3.179  14.071  1.1663 -0.7002  0.2345
 3573TIP3    H232135   5.214   3.308  14.113  0.2374 -0.3252  0.6208
 3574TIP3   OH232136   2.439   1.993   0.450  0.7064 -0.1995 -1.1101
 3574TIP3    H132137   2.495   2.071   0.450 -2.4229  2.2846 -3.0623
 3574TIP3    H232138   2.375   2.009   0.519 -1.9063  0.6818 -3.5594
 3575TIP3   OH232139   4.835   6.562   3.360 -0.3144  0.1433  0.3955
 3575TIP3    H132140   4.784   6.641   3.346  0.1257  0.2291 -0.7646
 3575TIP3    H232141   4.832   6.548   3.455 -0.8074  1.2606  0.5523
 3576TIP3   OH232142   4.748   3.640   1.119 -0.2328 -0.0013 -0.1855
 3576TIP3    H132143   4.812   3.675   1.181 -0.7695  0.3519  0.1700
 3576TIP3    H232144   4.781   3.668   1.033 -0.5342  1.2136  0.0699
 3577TIP3   OH232145   4.943   5.095   1.139 -0.1091 -0.4707 -0.6992
 3577TIP3    H132146   4.917   5.004   1.148 -1.4070 -0.1165 -0.5393
 3577TIP3    H232147   5.003   5.110   1.212 -0.9626 -0.8543  0.1124
 3578TIP3   OH232148   5.353   2.278  11.711  0.0412  0.7458  0.3954
 3578TIP3    H132149   5.384   2.257  11.623  0.4957 -1.4828  1.0368
 3578TIP3    H232150   5.279   2.219  11.725 -0.3550  1.4369  1.3311
 3579TIP3   OH232151   2.951   1.560  12.241 -0.4881 -0.2043  0.5110
 3579TIP3    H132152   2.996   1.475  12.233 -0.7156 -0.2209 -1.0035
 3579TIP3    H232153   2.872   1.540  12.291  0.4556 -0.4517  1.9743
 3580TIP3   OH232154   5.492   1.977   3.343  0.0987 -0.0822  0.0057
 3580TIP3    H132155   5.468   2.026   3.422  0.5529 -0.5569  0.4460
 3580TIP3    H232156   5.451   1.892   3.355 -0.5075  0.1048 -0.6578
 3581TIP3   OH232157   4.300   5.670  10.894 -0.1581 -0.0751  0.5189
 3581TIP3    H132158   4.299   5.766  10.891  1.5185 -0.0361  0.5679
 3581TIP3    H232159   4.235   5.643  10.830  0.4573  1.0899 -0.6310
 3582TIP3   OH232160   5.027   5.402   2.427  0.1649 -0.3083 -0.1884
 3582TIP3    H132161   5.100   5.364   2.476 -0.4570 -0.6724  0.4735
 3582TIP3    H232162   5.068   5.460   2.363  0.9979  0.1387  0.7321
 3583TIP3   OH232163   3.319   6.628   0.924  0.0557  0.3017 -0.3144
 3583TIP3    H132164   3.407   6.655   0.950  0.5720 -0.6783 -0.9708
 3583TIP3    H232165   3.329   6.536   0.897 -0.9521  0.4887 -1.4047
 3584TIP3   OH232166   5.780   6.337   3.349  0.0608 -0.1431 -0.5427
 3584TIP3    H132167   5.826   6.364   3.428 -1.2619  0.5850  0.0098
 3584TIP3    H232168   5.740   6.253   3.372 -1.2462  0.6019 -0.0475
 3585TIP3   OH232169   6.443   2.523   2.694 -0.0320 -0.1266  0.3685
 3585TIP3    H132170   6.523   2.471   2.693 -1.5718 -2.7249  1.3373
 3585TIP3    H232171   6.451   2.577   2.773  0.1464 -1.5030  1.3311
 3586TIP3   OH232172   5.221   5.037  15.474 -0.8428  0.0608 -0.1830
 3586TIP3    H132173   5.194   4.976  15.542 -0.0289 -0.9098 -0.7022
 3586TIP3    H232174   5.280   5.098  15.519 -0.7501 -0.2364  0.1003
 3587TIP3   OH232175   4.562   4.767  15.933 -0.0543  0.5678 -0.1747
 3587TIP3    H132176   4.653   4.773  15.903  0.1390 -0.5813  0.1331
 3587TIP3    H232177   4.532   4.857  15.936  0.8923  0.9233 -0.8525
 3588TIP3   OH232178   3.907   2.687   5.520 -0.3431  0.3560 -0.2085
 3588TIP3    H132179   4.001   2.707   5.520 -0.3028  0.1726 -0.3433
 3588TIP3    H232180   3.903   2.592   5.503 -0.5195  0.1753  0.7951
 3589TIP3   OH232181   3.523   3.673  13.427  0.0458 -0.0285  0.2183
 3589TIP3    H132182   3.578   3.716  13.493 -1.6086 -0.2182  1.8125
 3589TIP3    H232183   3.456   3.738  13.406  0.5731  0.0435 -1.3769
 3590TIP3   OH232184   5.268   3.606  16.328 -0.2208 -0.1452 -0.6046
 3590TIP3    H132185   5.315   3.627  16.247  0.3705  0.2575 -0.1708
 3590TIP3    H232186   5.178   3.589  16.301 -0.3517  1.3628 -1.1823
 3591TIP3   OH232187   2.971   2.922   4.454 -0.1735  0.3998 -0.5106
 3591TIP3    H132188   3.059   2.907   4.418 -0.2503 -1.2282 -0.0872
 3591TIP3    H232189   2.978   3.006   4.498  1.4098 -0.0416  0.1775
 3592TIP3   OH232190   4.484   2.048  15.941 -0.4665 -0.4793 -0.2165
 3592TIP3    H132191   4.460   2.124  15.887 -2.7973 -0.3157  0.9179
 3592TIP3    H232192   4.485   2.082  16.031 -0.1245 -1.4901  0.1744
 3593TIP3   OH232193   1.027   0.928   4.257 -0.2233  0.2157 -0.4587
 3593TIP3    H132194   0.959   0.986   4.291 -1.1950 -0.6362 -0.9122
 3593TIP3    H232195   1.031   0.947   4.163 -1.2853 -1.1523 -0.8098
 3594TIP3   OH232196   1.151   6.229   0.654 -0.4742  0.4419 -0.3331
 3594TIP3    H132197   1.165   6.322   0.669  0.5282  0.1783  0.4571
 3594TIP3    H232198   1.155   6.218   0.559  0.9380  0.9692 -0.3462
 3595TIP3   OH232199   5.311   2.404  14.898  0.4230  0.4749 -0.3620
 3595TIP3    H132200   5.336   2.479  14.843  1.0810  0.7511  0.3060
 3595TIP3    H232201   5.319   2.329  14.840 -2.2230  1.0712 -1.6793
 3596TIP3   OH232202   4.928   1.782  13.756 -0.2440  0.1887 -0.2845
 3596TIP3    H132203   4.981   1.861  13.765  0.9541 -0.5155 -0.9147
 3596TIP3    H232204   4.850   1.799  13.810  1.3097  0.6356  1.9542
 3597TIP3   OH232205   1.401   0.977  14.279  0.0717  0.2283  0.0776
 3597TIP3    H132206   1.445   0.921  14.342 -1.0171  0.5141  1.1373
 3597TIP3    H232207   1.433   1.065  14.298  0.0403  0.2653 -0.0354
 3598TIP3   OH232208   6.008   6.064   3.318 -0.1664 -0.1471 -0.5716
 3598TIP3    H132209   5.952   6.027   3.250 -0.4555 -0.3865 -0.2117
 3598TIP3    H232210   6.039   6.147   3.282 -2.3899  1.0057  0.0020
 3599TIP3   OH232211   0.469   0.988   0.767 -0.3523 -0.2348  0.1918
 3599TIP3    H132212   0.507   1.069   0.802 -3.5463  1.3178  0.4637
 3599TIP3    H232213   0.436   0.942   0.845 -0.2467 -0.8531 -0.1247
 3600TIP3   OH232214   0.698   5.294   0.458  0.1733  0.3106 -0.5954
 3600TIP3    H132215   0.739   5.229   0.401  0.6963  1.1088 -1.1471
 3600TIP3    H232216   0.741   5.280   0.543 -0.9353 -1.1883 -0.2348
 3601TIP3   OH232217   6.512   1.936   1.453  0.5204  0.3949 -0.3066
 3601TIP3    H132218   6.505   2.002   1.523  2.0003  0.8756 -0.5845
 3601TIP3    H232219   6.577   1.972   1.393  2.1778 -1.8190  0.0761
 3602TIP3   OH232220   4.283   5.864  11.511  0.0315  0.6404 -0.0172
 3602TIP3    H132221   4.270   5.809  11.589  2.1899  1.5733  1.1051
 3602TIP3    H232222   4.262   5.806  11.437  1.3583 -1.4832  1.1416
 3603TIP3   OH232223   1.132   3.930   5.339 -0.1716 -0.5210  0.0731
 3603TIP3    H132224   1.174   4.016   5.345 -0.4132 -0.3607 -0.5249
 3603TIP3    H232225   1.163   3.883   5.417  0.4041 -0.0908  0.1074
 3604TIP3   OH232226   3.497   3.945   5.962  0.0788 -0.4243 -0.5512
 3604TIP3    H132227   3.559   3.915   6.027 -1.4606  1.5800  2.0536
 3604TIP3    H232228   3.411   3.934   6.003 -0.9302  1.4572 -1.9452
 3605TIP3   OH232229   5.273   1.018  11.742  0.1277  0.0540  0.2502
 3605TIP3    H132230   5.191   1.002  11.695 -0.7758 -0.1420  1.8100
 3605TIP3    H232231   5.285   0.941  11.797  1.0635  0.3314  0.4606
 3606TIP3   OH232232   2.647   2.796   5.434 -0.8580 -0.1386  0.0984
 3606TIP3    H132233   2.695   2.775   5.513  1.0989  0.7785 -0.7824
 3606TIP3    H232234   2.621   2.888   5.445 -1.4271 -0.2918  0.0754
 3607TIP3   OH232235   0.962   2.266  14.969  0.0444 -0.0866 -0.9351
 3607TIP3    H132236   1.050   2.260  15.007 -0.1787  0.2547 -0.3646
 3607TIP3    H232237   0.911   2.200  15.015 -0.1985  0.2516 -0.7168
 3608TIP3   OH232238   3.579   6.025   5.373  0.1033 -0.5397  0.1135
 3608TIP3    H132239   3.562   5.933   5.393  0.0704 -0.1162  2.2082
 3608TIP3    H232240   3.505   6.051   5.317 -0.7612 -1.3786  0.8223
 3609TIP3   OH232241   2.441   1.043   1.026  0.6840 -0.3856  0.0141
 3609TIP3    H132242   2.446   0.951   1.001  0.8508 -0.5801  0.7433
 3609TIP3    H232243   2.528   1.078   1.006  0.3865 -0.1902 -0.9841
 3610TIP3   OH232244   2.300   5.729   3.995 -0.8193 -0.0707  0.4295
 3610TIP3    H132245   2.341   5.643   3.995 -1.4959 -0.4297 -1.3041
 3610TIP3    H232246   2.373   5.790   4.009  0.5578 -0.6450 -3.1636
 3611TIP3   OH232247   5.925   0.631   2.155  0.1025 -0.4082  0.3869
 3611TIP3    H132248   5.906   0.539   2.137 -0.5832 -0.1765 -0.1145
 3611TIP3    H232249   5.985   0.629   2.230 -1.7718 -1.2092  1.9443
 3612TIP3   OH232250   4.545   4.323  11.931 -0.3651  0.5435 -0.6820
 3612TIP3    H132251   4.458   4.294  11.904  0.1759 -1.1985 -0.6961
 3612TIP3    H232252   4.534   4.415  11.955 -1.9086  0.7397 -2.0137
 3613TIP3   OH232253   1.186   0.739  15.495 -0.6848  0.0237  0.3303
 3613TIP3    H132254   1.176   0.646  15.474  0.3246  0.2013 -1.0340
 3613TIP3    H232255   1.212   0.739  15.587 -1.5146 -0.9865  0.5944
 3614TIP3   OH232256   5.767   2.271  13.457 -0.6946 -0.5747 -0.0701
 3614TIP3    H132257   5.769   2.213  13.381  0.1816 -1.7358  0.7885
 3614TIP3    H232258   5.793   2.356  13.424 -0.2718 -1.0792 -1.0637
 3615TIP3   OH232259   3.749   5.113  12.970 -0.2291 -0.2420 -0.0219
 3615TIP3    H132260   3.757   5.022  12.939  0.3426 -0.5184  0.8871
 3615TIP3    H232261   3.838   5.137  12.996 -0.7798 -0.2746  2.0297
 3616TIP3   OH232262   1.585   4.910  12.967 -0.2362 -0.1648  0.3872
 3616TIP3    H132263   1.567   4.992  13.012  0.5749  0.6159 -0.6503
 3616TIP3    H232264   1.542   4.918  12.882  1.0412 -0.1805 -0.2957
 3617TIP3   OH232265   2.216   1.626   4.682 -0.0991 -0.3259 -0.0149
 3617TIP3    H132266   2.302   1.584   4.691  0.6248  1.1669  0.4663
 3617TIP3    H232267   2.185   1.600   4.595  1.5202  0.2401 -0.8160
 3618TIP3   OH232268   3.498   2.579   2.533 -0.1798 -0.2115 -0.3503
 3618TIP3    H132269   3.531   2.489   2.537  1.0466  0.2652  0.7457
 3618TIP3    H232270   3.563   2.627   2.482 -0.5767  0.1711 -0.5070
 3619TIP3   OH232271   6.541   3.476  13.862  0.0892 -0.4596 -0.0808
 3619TIP3    H132272   6.562   3.477  13.955  2.6754 -0.2004 -0.5857
 3619TIP3    H232273   6.558   3.565  13.832 -1.3959 -0.3571 -0.7012
 3620TIP3   OH232274   6.501   4.925   3.101  0.1243 -0.1885  0.0626
 3620TIP3    H132275   6.573   4.984   3.123  0.6464 -0.9765  0.5363
 3620TIP3    H232276   6.461   4.964   3.023  1.2076  0.1475 -0.3467
 3621TIP3   OH232277   4.560   0.712  16.983  0.8524 -0.4556  0.2377
 3621TIP3    H132278   4.554   0.625  16.944 -0.7343 -0.2315 -0.0886
 3621TIP3    H232279   4.486   0.761  16.945  1.6338  0.9936  0.4987
 3622TIP3   OH232280   1.719   5.920  15.831  0.0215  0.1326 -0.0695
 3622TIP3    H132281   1.647   5.965  15.786  0.1668 -2.4372 -3.2521
 3622TIP3    H232282   1.675   5.852  15.883  0.0139  0.2847  0.1191
 3623TIP3   OH232283   6.255   0.418  16.078 -0.4092  0.1036  0.1512
 3623TIP3    H132284   6.282   0.331  16.051 -0.5453 -0.3084  1.2966
 3623TIP3    H232285   6.300   0.433  16.161  0.1638  1.4154 -0.3687
 3624TIP3   OH232286   1.843   1.530   4.614 -0.5457 -0.1097  0.0484
 3624TIP3    H132287   1.934   1.539   4.643 -0.4508 -1.4285  0.2514
 3624TIP3    H232288   1.827   1.607   4.560  0.8805 -0.1219 -0.4503
 3625TIP3   OH232289   4.411   4.051   1.329 -0.4028 -0.1931 -0.1138
 3625TIP3    H132290   4.488   4.092   1.369 -0.4304  0.3098 -0.5491
 3625TIP3    H232291   4.426   3.957   1.338 -1.7070 -0.1816  3.5223
 3626TIP3   OH232292   0.860   2.188   5.674  1.1193  0.1976 -0.2136
 3626TIP3    H132293   0.857   2.257   5.608  3.8118 -0.2687 -0.9638
 3626TIP3    H232294   0.810   2.116   5.636  2.6316 -0.0687 -1.8215
 3627TIP3   OH232295   1.304   2.513   1.409 -0.3725  0.0108 -0.0105
 3627TIP3    H132296   1.235   2.564   1.367  0.5458  1.6599  0.4113
 3627TIP3    H232297   1.302   2.540   1.501  1.7873  1.2817 -0.2614
 3628TIP3   OH232298   0.193   4.610   2.551 -0.3440 -0.3210  0.1584
 3628TIP3    H132299   0.146   4.651   2.624 -1.0140  1.9074 -1.4073
 3628TIP3    H232300   0.128   4.554   2.509  0.4588 -2.8722  2.0539
 3629TIP3   OH232301   6.478   1.489  10.911 -0.4042  0.0430 -0.8171
 3629TIP3    H132302   6.429   1.415  10.876 -1.7591  1.2233 -1.5552
 3629TIP3    H232303   6.411   1.550  10.940  0.6818  0.8168  0.1574
 3630TIP3   OH232304   3.470   2.882   2.507  0.4678 -0.6438 -0.5081
 3630TIP3    H132305   3.505   2.803   2.548 -0.3180  0.2969  2.2419
 3630TIP3    H232306   3.530   2.952   2.535 -1.9207  0.5736  2.1196
 3631TIP3   OH232307   3.523   4.926  12.649 -0.4359 -0.0319 -0.0446
 3631TIP3    H132308   3.480   4.845  12.622  0.0909 -0.0275 -0.9412
 3631TIP3    H232309   3.614   4.914  12.625 -0.7197  1.7292 -2.4781
 3632TIP3   OH232310   2.894   2.620   5.048  0.2698 -0.4038  0.1542
 3632TIP3    H132311   2.872   2.567   4.971 -1.2820  1.7603 -1.0173
 3632TIP3    H232312   2.989   2.623   5.048  0.3239 -0.9072 -1.3720
 3633TIP3   OH232313   4.131   6.288   5.949 -0.3045  0.1890  0.3623
 3633TIP3    H132314   4.127   6.319   6.039 -1.3198 -0.6529  0.6351
 3633TIP3    H232315   4.164   6.198   5.955  1.3566  0.7198 -0.2904
 3634TIP3   OH232316   6.548   4.961   2.689 -0.1074 -0.4529 -0.2007
 3634TIP3    H132317   6.488   4.924   2.624 -2.0759  0.7930  0.8060
 3634TIP3    H232318   6.497   4.964   2.770  2.0691 -1.3905  1.2959
 3635TIP3   OH232319   1.566   4.882   2.170 -0.0983  0.0490  0.2122
 3635TIP3    H132320   1.477   4.897   2.139  0.3845 -0.2833 -1.4213
 3635TIP3    H232321   1.622   4.923   2.103  0.9890 -0.4567  0.7819
 3636TIP3   OH232322   0.312   6.132   3.807 -0.3021  0.3098  0.2037
 3636TIP3    H132323   0.288   6.040   3.823 -0.6851  0.2844 -0.4833
 3636TIP3    H232324   0.396   6.127   3.761 -0.1201  0.3214  0.5309
 3637TIP3   OH232325   1.594   6.488  16.026  0.3548 -0.1651 -0.8902
 3637TIP3    H132326   1.598   6.393  16.021  0.7974 -0.0864 -2.3199
 3637TIP3    H232327   1.611   6.508  16.118 -1.3862 -1.5318 -0.2136
 3638TIP3   OH232328   4.833   4.814   4.347 -0.2723 -0.1773 -0.2107
 3638TIP3    H132329   4.861   4.728   4.317  0.8912 -0.4089  1.4027
 3638TIP3    H232330   4.747   4.827   4.307  0.8053 -0.7609 -2.8907
 3639TIP3   OH232331   2.586   5.721   2.700 -0.0722 -0.4062 -0.4453
 3639TIP3    H132332   2.595   5.636   2.657 -0.8228  0.2044 -1.8900
 3639TIP3    H232333   2.604   5.785   2.630 -0.3205  0.6280  0.4102
 3640TIP3   OH232334   5.268   2.961   3.898 -0.0031  0.3513  0.2967
 3640TIP3    H132335   5.278   2.923   3.986 -0.7665  0.6707  0.5352
 3640TIP3    H232336   5.337   2.920   3.846  1.9669  1.8772  1.5836
 3641TIP3   OH232337   4.015   2.881   6.064  0.4040 -0.4673  0.1432
 3641TIP3    H132338   4.094   2.852   6.110  0.6522  0.4092  0.2833
 3641TIP3    H232339   3.982   2.953   6.117 -0.9537 -1.3404  0.5364
 3642TIP3   OH232340   2.181   0.812   5.676 -0.0720 -0.1840  0.3311
 3642TIP3    H132341   2.195   0.881   5.610 -0.1621  0.0894  0.5965
 3642TIP3    H232342   2.223   0.735   5.638  1.6865  0.4639  0.8340
 3643TIP3   OH232343   5.214   0.129   3.642  0.0347  0.5250 -0.2713
 3643TIP3    H132344   5.202   0.066   3.572 -1.3185  0.2655  0.1732
 3643TIP3    H232345   5.243   0.209   3.598  0.6344 -0.0487 -0.9490
 3644TIP3   OH232346   2.713   3.741  16.689  0.1390  0.5159 -0.4443
 3644TIP3    H132347   2.752   3.653  16.687  0.4215  0.5848  0.7869
 3644TIP3    H232348   2.746   3.779  16.771 -0.4438  1.5566 -0.6810
 3645TIP3   OH232349   5.349   5.505  13.687 -0.4867  0.1544  0.2349
 3645TIP3    H132350   5.334   5.518  13.781  0.0646 -1.6393  0.6085
 3645TIP3    H232351   5.311   5.420  13.668  2.2080 -1.0079 -0.4299
 3646TIP3   OH232352   3.437   1.606  12.786  0.2112  0.0014  0.5014
 3646TIP3    H132353   3.497   1.661  12.836 -0.6744  1.0203  0.4817
 3646TIP3    H232354   3.351   1.623  12.826 -0.6584  1.4202 -1.7774
 3647TIP3   OH232355   3.472   6.011  13.327 -0.1911  0.5982 -0.4276
 3647TIP3    H132356   3.490   6.055  13.244 -0.7130 -1.7147 -1.8630
 3647TIP3    H232357   3.555   6.012  13.374 -0.1210  2.7852 -0.5081
 3648TIP3   OH232358   3.142   5.732   6.698  0.3191  0.2223 -0.2793
 3648TIP3    H132359   3.129   5.809   6.643 -1.5621  0.2025  0.0556
 3648TIP3    H232360   3.206   5.678   6.652 -0.8723  0.4050 -2.2344
 3649TIP3   OH232361   3.671   3.382   5.830  0.0656  0.2438  0.1363
 3649TIP3    H132362   3.596   3.430   5.865  0.4222  0.2059  0.9753
 3649TIP3    H232363   3.651   3.290   5.847  1.2349  0.3291  2.3473
 3650TIP3   OH232364   5.129   3.283  13.124 -0.1929  0.2928  0.0701
 3650TIP3    H132365   5.162   3.308  13.038 -1.7632  0.5198 -0.5118
 3650TIP3    H232366   5.202   3.240  13.167  1.1649  1.7262 -0.7042
 3651TIP3   OH232367   1.865   4.770   4.505  0.0444  0.1535  0.2591
 3651TIP3    H132368   1.941   4.768   4.562  0.7725  0.0694 -0.6843
 3651TIP3    H232369   1.810   4.840   4.540  1.1016  1.0014  0.2899
 3652TIP3   OH232370   6.418   2.435   3.643 -0.3615  0.4259  0.1912
 3652TIP3    H132371   6.453   2.513   3.598 -1.1534  1.8135  1.8782
 3652TIP3    H232372   6.485   2.414   3.708  0.2133 -0.8469 -0.7519
 3653TIP3   OH232373   6.330   4.172  15.002 -0.7722  0.5108  0.2293
 3653TIP3    H132374   6.403   4.136  14.952 -0.3426  2.7742 -0.9231
 3653TIP3    H232375   6.367   4.194  15.088 -0.3218  0.7846 -0.0333
 3654TIP3   OH232376   5.729   0.951   4.060 -0.2932  0.3016 -0.1594
 3654TIP3    H132377   5.651   0.932   4.009  0.2035 -1.7132 -0.2378
 3654TIP3    H232378   5.802   0.921   4.006  0.2929 -1.2442  1.3987
 3655TIP3   OH232379   0.685   1.953   2.767  0.4800 -0.5209 -0.2602
 3655TIP3    H132380   0.722   1.982   2.851 -1.4000  0.2542  0.3458
 3655TIP3    H232381   0.758   1.909   2.723  1.2650 -1.8596  2.1947
 3656TIP3   OH232382   5.102   1.127  14.713 -0.3620  0.2621 -0.0594
 3656TIP3    H132383   5.172   1.121  14.778  0.1123 -1.2901 -0.6731
 3656TIP3    H232384   5.133   1.193  14.651  0.7840 -0.7413 -0.5762
 3657TIP3   OH232385   4.734   5.969   0.304  0.2538  0.1486  0.3104
 3657TIP3    H132386   4.726   5.878   0.332  0.3800 -0.9765 -2.8878
 3657TIP3    H232387   4.646   6.005   0.315 -0.3251 -1.0142 -0.2650
 3658TIP3   OH232388   1.004   4.105   5.011 -0.1674  0.1229  0.5117
 3658TIP3    H132389   1.086   4.154   5.007 -0.1768  0.2704  1.8079
 3658TIP3    H232390   0.945   4.154   4.954  0.4643  0.3448  0.0279
 3659TIP3   OH232391   1.039   2.570  15.057 -0.0592 -0.3356 -0.4388
 3659TIP3    H132392   1.067   2.504  15.120  2.4420 -0.2221 -1.2976
 3659TIP3    H232393   1.005   2.520  14.983  0.6239 -0.6434 -0.5536
 3660TIP3   OH232394   3.326   0.822   2.367 -0.2722  0.3155  0.3568
 3660TIP3    H132395   3.329   0.913   2.337  0.7453 -0.1925 -1.1995
 3660TIP3    H232396   3.344   0.771   2.289 -2.2778 -1.3291  0.8787
 3661TIP3   OH232397   5.154   4.819  15.629  0.4902  0.1372 -0.1405
 3661TIP3    H132398   5.078   4.783  15.585  1.0564 -0.1715 -0.8901
 3661TIP3    H232399   5.134   4.812  15.722 -0.2724 -0.2027 -0.3271
 3662TIP3   OH232400   2.153   2.778   4.157  0.2194 -0.1380 -0.3951
 3662TIP3    H132401   2.119   2.847   4.213  1.3616 -0.1010  0.2714
 3662TIP3    H232402   2.183   2.823   4.078 -0.1312 -0.0326 -0.4727
 3663TIP3   OH232403   3.724   2.245  12.949  0.3426 -0.4977  0.0145
 3663TIP3    H132404   3.776   2.166  12.965  0.4139 -0.0576  2.5144
 3663TIP3    H232405   3.662   2.248  13.022 -1.9325  0.0510 -1.8268
 3664TIP3   OH232406   6.495   0.636   1.494  0.4373 -0.0294 -0.2234
 3664TIP3    H132407   6.510   0.545   1.522 -0.3398  0.1226  0.7201
 3664TIP3    H232408   6.554   0.647   1.420 -0.9821 -2.0022 -1.7916
 3665TIP3   OH232409   6.484   2.141  13.512 -0.2946 -0.4414  0.8158
 3665TIP3    H132410   6.575   2.112  13.505 -0.5625 -1.2704  0.6892
 3665TIP3    H232411   6.476   2.175  13.602  0.2655  0.1102  0.6645
 3666TIP3   OH232412   2.834   6.464   4.428  0.2615  0.3559  0.3487
 3666TIP3    H132413   2.865   6.552   4.447  0.5464 -0.1419  2.3866
 3666TIP3    H232414   2.781   6.440   4.504  1.5908 -1.8334  0.6787
 3667TIP3   OH232415   3.774   6.524   1.225  0.2305  0.0189 -0.3419
 3667TIP3    H132416   3.724   6.449   1.193 -0.0453  0.8326 -1.9032
 3667TIP3    H232417   3.821   6.556   1.148  0.7502  1.1360  0.4193
 3668TIP3   OH232418   2.524   1.987   3.352  0.2519  0.3581 -0.0856
 3668TIP3    H132419   2.506   1.982   3.258  0.6685 -0.2254 -0.1398
 3668TIP3    H232420   2.510   2.079   3.374  2.9467  1.1804 -1.3216
 3669TIP3   OH232421   1.900   6.084   6.108 -0.4341 -0.0905  0.0531
 3669TIP3    H132422   1.973   6.089   6.046 -1.0450 -1.7015 -0.8366
 3669TIP3    H232423   1.899   5.993   6.138 -2.4783 -0.3034 -0.4937
 3670TIP3   OH232424   4.010   0.032  17.034  0.9094 -0.3554 -0.0020
 3670TIP3    H132425   4.036  -0.017  17.112  0.8650 -0.0140  0.2268
 3670TIP3    H232426   4.023  -0.030  16.961  0.0619 -0.9934  0.3712
 3671TIP3   OH232427   0.185   5.543   2.861 -0.0006  0.3447  0.1514
 3671TIP3    H132428   0.143   5.543   2.775  1.9514  2.1734 -0.8849
 3671TIP3    H232429   0.136   5.607   2.912 -0.8318 -0.3590  0.2638
 3672TIP3   OH232430   2.220   2.720   4.688  0.1761  0.1177  0.0126
 3672TIP3    H132431   2.291   2.656   4.677  1.0086  0.5200  2.4674
 3672TIP3    H232432   2.244   2.769   4.766 -1.6866  1.8282 -0.4128
 3673TIP3   OH232433   2.810   1.544  15.082  0.1470 -0.2454 -0.1076
 3673TIP3    H132434   2.832   1.474  15.143 -0.0194 -1.1010 -1.0022
 3673TIP3    H232435   2.772   1.499  15.006  0.3007  0.7911 -0.8255
 3674TIP3   OH232436   4.264   5.551   0.674 -0.7713  0.4012  0.0986
 3674TIP3    H132437   4.223   5.547   0.760  0.1496  0.9008  0.5689
 3674TIP3    H232438   4.358   5.557   0.691 -0.5796  0.6668 -0.9357
 3675TIP3   OH232439   3.258   2.811   0.931  0.5404  1.0075  0.4452
 3675TIP3    H132440   3.290   2.902   0.935  4.2193 -0.0877 -0.3440
 3675TIP3    H232441   3.242   2.795   0.838 -0.1496  0.8348  0.5882
 3676TIP3   OH232442   5.177   1.890  13.615  0.3203 -0.0078  0.1342
 3676TIP3    H132443   5.127   1.972  13.617 -0.2214 -0.2826 -1.2257
 3676TIP3    H232444   5.153   1.849  13.532  1.3332 -1.0861  0.3473
 3677TIP3   OH232445   4.897   3.934   2.134  0.2133  0.1602 -0.1435
 3677TIP3    H132446   4.980   3.909   2.175 -0.9257  0.2581  2.4248
 3677TIP3    H232447   4.892   4.028   2.146 -0.4678  0.0912  0.1341
 3678TIP3   OH232448   1.472   6.746  14.711 -0.2820 -0.2245 -0.5979
 3678TIP3    H132449   1.481   6.691  14.633  0.2691 -0.6385 -0.2475
 3678TIP3    H232450   1.562   6.769  14.734 -0.1794 -2.4346  1.5600
 3679TIP3   OH232451   2.584   0.064   5.572  0.3022  0.3010  0.6656
 3679TIP3    H132452   2.615   0.032   5.657 -0.4746  1.1653  1.2923
 3679TIP3    H232453   2.589  -0.013   5.514  0.3606 -0.4348  1.6205
 3680TIP3   OH232454   0.211   2.910   5.611  0.5651 -0.1057 -0.4880
 3680TIP3    H132455   0.272   2.917   5.684 -0.3777  0.4024  0.2636
 3680TIP3    H232456   0.267   2.891   5.535  1.6496  0.3703  0.1733
 3681TIP3   OH232457   6.211   4.689  16.810  0.0350 -0.0661 -0.5593
 3681TIP3    H132458   6.275   4.704  16.740  0.1665 -0.1059 -0.4479
 3681TIP3    H232459   6.195   4.777  16.846  0.9480 -0.1967  0.2179
 3682TIP3   OH232460   1.135   1.407  14.598 -0.7886  0.4143  0.1912
 3682TIP3    H132461   1.132   1.384  14.505 -2.3174 -2.1459  0.7798
 3682TIP3    H232462   1.054   1.456  14.613 -2.7107 -2.7080  0.8741
 3683TIP3   OH232463   0.232   6.081  14.762 -0.2616 -0.2974 -0.0520
 3683TIP3    H132464   0.251   6.137  14.837  1.7476 -3.5676  2.1043
 3683TIP3    H232465   0.263   6.132  14.686  2.5938  1.0730  1.8651
 3684TIP3   OH232466   6.398   5.117   0.955  0.0608  0.5229  0.0525
 3684TIP3    H132467   6.397   5.181   1.027 -0.3993 -0.3931  0.8777
 3684TIP3    H232468   6.329   5.055   0.978  0.2221 -0.0381 -0.9589
 3685TIP3   OH232469   2.407   0.369   4.657 -0.3968  0.0050  1.2814
 3685TIP3    H132470   2.442   0.454   4.628 -0.6366 -0.1452  0.5272
 3685TIP3    H232471   2.343   0.391   4.724 -1.5647  0.5510  0.0385
 3686TIP3   OH232472   5.070   3.621   3.319  0.0813 -0.1876  0.6160
 3686TIP3    H132473   4.977   3.642   3.322  0.4588  1.5318  1.5418
 3686TIP3    H232474   5.077   3.550   3.255 -1.1865  3.4936 -4.2133
 3687TIP3   OH232475   1.683   5.388   0.002 -0.6468 -0.1105  0.3802
 3687TIP3    H132476   1.611   5.404  -0.059  0.9617  1.8904 -1.1589
 3687TIP3    H232477   1.649   5.416   0.087 -1.9504 -0.0297 -0.1454
 3688TIP3   OH232478   6.250   0.036   0.478 -0.0920  0.5106 -0.2283
 3688TIP3    H132479   6.199   0.025   0.397 -2.5840 -0.0298  1.3076
 3688TIP3    H232480   6.274   0.129   0.478  0.2560  0.4585 -1.7184
 3689TIP3   OH232481   4.517   0.032   5.754  0.0905 -0.0651  0.3283
 3689TIP3    H132482   4.507   0.055   5.846 -3.3129  0.8568 -0.1106
 3689TIP3    H232483   4.576   0.099   5.718  0.8512  0.0065  1.6662
 3690TIP3   OH232484   5.220   1.606   1.574 -0.0177  0.4424 -0.7917
 3690TIP3    H132485   5.281   1.547   1.619 -0.0541  0.4667 -0.7097
 3690TIP3    H232486   5.150   1.621   1.638  0.9708  2.1654 -0.0452
 3691TIP3   OH232487   6.205   2.708  13.473 -0.2122  0.2176 -0.3356
 3691TIP3    H132488   6.165   2.750  13.550  0.1535 -1.4022  0.7967
 3691TIP3    H232489   6.198   2.614  13.492  1.4415 -0.1683 -1.4981
 3692TIP3   OH232490   6.442   5.115   3.510 -0.2585  0.4557  0.3173
 3692TIP3    H132491   6.499   5.101   3.585 -0.8891 -0.3075  0.6724
 3692TIP3    H232492   6.428   5.210   3.508 -1.9552  0.3266  2.5052
 3693TIP3   OH232493   4.082   2.919   4.451 -0.0339  0.2672 -0.0130
 3693TIP3    H132494   4.037   2.887   4.373 -0.4885  0.9029 -0.0175
 3693TIP3    H232495   4.012   2.950   4.509  0.3815  1.0981  0.0578
 3694TIP3   OH232496   4.952   6.434   0.553 -0.4334 -0.7575  0.6677
 3694TIP3    H132497   5.015   6.365   0.534  0.7413  0.5498 -0.3324
 3694TIP3    H232498   4.868   6.399   0.523  0.4556 -1.0007 -1.6826
 3695TIP3   OH232499   3.771   3.204   3.999 -0.7395  0.3221 -0.5232
 3695TIP3    H132500   3.735   3.150   4.070  1.0127  0.6740  0.6749
 3695TIP3    H232501   3.695   3.221   3.943 -1.9622 -0.8667  0.6594
 3696TIP3   OH232502   1.023   3.589   1.515  0.3148  0.3445 -0.3192
 3696TIP3    H132503   1.087   3.547   1.457  0.5351  0.1997  0.0264
 3696TIP3    H232504   0.989   3.518   1.569  0.1218  0.4825 -0.2573
 3697TIP3   OH232505   5.323   3.018   2.359  0.1878 -1.0387  0.0267
 3697TIP3    H132506   5.238   3.062   2.353  0.3271 -0.3829  2.0751
 3697TIP3    H232507   5.374   3.055   2.286 -0.7182 -0.1238 -0.1640
 3698TIP3   OH232508   2.261   4.348  14.075  0.3786  0.4319  0.3691
 3698TIP3    H132509   2.236   4.440  14.069  1.2611  0.7061  0.7382
 3698TIP3    H232510   2.227   4.308  13.995 -0.3974  0.9825  0.4203
 3699TIP3   OH232511   1.252   4.249   2.112 -0.0450 -0.3303  0.4692
 3699TIP3    H132512   1.288   4.290   2.033 -0.1097 -0.1948  0.5092
 3699TIP3    H232513   1.302   4.169   2.123 -1.6828 -1.6438 -1.1411
 3700TIP3   OH232514   6.206   4.487   3.885 -0.0360  0.6625  0.6263
 3700TIP3    H132515   6.219   4.576   3.851 -1.3650 -0.2672 -2.6076
 3700TIP3    H232516   6.284   4.439   3.858  0.2381  0.5717  1.5357
 3701TIP3   OH232517   6.468   6.072  15.337 -0.3845  0.1401  0.0916
 3701TIP3    H132518   6.474   6.063  15.242 -0.8589  0.3321  0.0437
 3701TIP3    H232519   6.500   6.160  15.356 -0.5583  0.2042  0.0846
 3702TIP3   OH232520   0.146   1.850  14.214  0.7306  0.5910  0.8572
 3702TIP3    H132521   0.067   1.796  14.215  2.6451 -2.4456  1.1495
 3702TIP3    H232522   0.119   1.933  14.253 -1.6089 -1.4750  4.1765
 3703TIP3   OH232523   3.198   5.464  15.357  0.2643 -0.4606  0.5022
 3703TIP3    H132524   3.107   5.438  15.363 -0.0266 -0.4360 -2.2212
 3703TIP3    H232525   3.196   5.548  15.310  1.7195 -1.8786 -2.3572
 3704TIP3   OH232526   4.308   2.141   0.038 -0.0674  0.7769  0.3298
 3704TIP3    H132527   4.233   2.097   0.076 -1.3363  2.4936 -0.0444
 3704TIP3    H232528   4.358   2.174   0.113 -1.4104  2.3084  0.6021
 3705TIP3   OH232529   5.879   1.814  10.952  0.1783  0.4123  0.2311
 3705TIP3    H132530   5.965   1.847  10.927  0.6361 -0.8316  0.0967
 3705TIP3    H232531   5.867   1.736  10.898 -0.4167 -0.2306  1.2672
 3706TIP3   OH232532   6.103   2.708   6.383 -0.0711  0.5434  0.0110
 3706TIP3    H132533   6.083   2.800   6.366  4.8458  2.0358  0.8680
 3706TIP3    H232534   6.166   2.709   6.455  0.5213 -3.4895 -0.1901
 3707TIP3   OH232535   0.650   5.657  15.982 -0.2432 -0.2044 -0.0276
 3707TIP3    H132536   0.643   5.646  15.887 -0.1242 -1.7573  0.1243
 3707TIP3    H232537   0.744   5.651  16.000 -0.3242 -0.5937  0.2681
 3708TIP3   OH232538   0.095   2.674   5.133 -0.3273 -0.5102  0.0243
 3708TIP3    H132539   0.080   2.743   5.198 -0.3402  0.3576 -0.8751
 3708TIP3    H232540   0.182   2.693   5.098 -1.2097  0.4269 -1.8148
 3709TIP3   OH232541   5.808   6.533  11.278 -0.5933 -0.1794  0.1472
 3709TIP3    H132542   5.892   6.568  11.248 -0.0088 -0.5413  1.3237
 3709TIP3    H232543   5.830   6.451  11.321 -1.5256 -0.1811  0.6429
 3710TIP3   OH232544   1.372   4.195   0.396  0.3513 -0.1168 -0.1811
 3710TIP3    H132545   1.357   4.159   0.308  0.0859 -1.7040  0.4845
 3710TIP3    H232546   1.320   4.139   0.454 -0.7872  1.9041  0.8370
 3711TIP3   OH232547   3.034   6.355   4.715  0.3843  0.4367  0.1453
 3711TIP3    H132548   2.968   6.424   4.712  1.6880  1.7144  0.0578
 3711TIP3    H232549   3.028   6.313   4.629  0.1141  0.9545 -0.0919
 3712TIP3   OH232550   1.181   2.802   0.551 -0.0137  0.2809  0.0169
 3712TIP3    H132551   1.209   2.797   0.642 -1.6658  0.4427  0.5737
 3712TIP3    H232552   1.132   2.885   0.546 -1.2564 -0.4615 -0.6038
 3713TIP3   OH232553   3.605   2.502  14.651 -0.1452 -0.4803  0.4918
 3713TIP3    H132554   3.677   2.440  14.665  2.3056  1.5444 -2.0321
 3713TIP3    H232555   3.578   2.526  14.740  2.4084 -1.2093  1.5697
 3714TIP3   OH232556   5.238   1.065   2.978 -0.0978  0.1790  0.1963
 3714TIP3    H132557   5.275   1.014   2.906 -1.8613  1.0368 -1.4047
 3714TIP3    H232558   5.176   1.005   3.020  0.8221 -0.2736  0.9380
 3715TIP3   OH232559   3.845   2.574   0.891 -0.5548 -0.4894  0.1558
 3715TIP3    H132560   3.849   2.573   0.987  0.9430  0.5743  0.1384
 3715TIP3    H232561   3.886   2.656   0.866 -1.2407 -0.5887 -1.4085
 3716TIP3   OH232562   1.589   0.449   2.930 -0.0702 -0.1997 -0.1754
 3716TIP3    H132563   1.618   0.358   2.932  1.5274  0.2705  1.1399
 3716TIP3    H232564   1.575   0.469   2.837  0.4876 -1.5159 -0.5584
 3717TIP3   OH232565   1.976   3.704  17.022 -0.5621 -0.2595 -0.3475
 3717TIP3    H132566   1.956   3.778  17.078 -0.1525  1.0399 -1.8357
 3717TIP3    H232567   2.066   3.680  17.044 -0.3627  0.3217 -0.5081
 3718TIP3   OH232568   3.582   4.160   4.176 -0.0897  0.1407  0.2637
 3718TIP3    H132569   3.641   4.212   4.121 -0.5148 -0.5477 -0.8744
 3718TIP3    H232570   3.550   4.090   4.118 -1.1363 -0.1687  1.1794
 3719TIP3   OH232571   2.618   4.482   4.733  0.1745 -0.1662  0.3564
 3719TIP3    H132572   2.536   4.531   4.720  1.2142  1.6466  0.2119
 3719TIP3    H232573   2.677   4.546   4.773  1.3993 -1.5662  0.8581
 3720TIP3   OH232574   5.486   1.924   1.991  0.1930  0.3545  0.1733
 3720TIP3    H132575   5.562   1.873   2.017  0.1904  0.8011  1.1045
 3720TIP3    H232576   5.479   1.992   2.058 -1.9433 -0.6011  1.0107
 3721TIP3   OH232577   3.283   1.956  12.652  0.3383 -0.3068 -0.1043
 3721TIP3    H132578   3.299   1.986  12.741  0.7824 -0.2151 -0.2098
 3721TIP3    H232579   3.306   2.030  12.597  0.5542 -0.5302 -0.3194
 3722TIP3   OH232580   4.286   1.837  11.759 -0.1804 -0.2719 -0.8004
 3722TIP3    H132581   4.349   1.905  11.782  0.4318 -0.9234 -0.5335
 3722TIP3    H232582   4.226   1.834  11.833 -1.3230  1.2373 -1.6058
 3723TIP3   OH232583   1.412   5.504   1.928 -0.3137 -0.1945 -0.4428
 3723TIP3    H132584   1.409   5.430   1.989 -1.7787  1.5705  1.8379
 3723TIP3    H232585   1.324   5.508   1.892 -0.0882  0.1268 -0.9602
 3724TIP3   OH232586   4.375   3.887  12.787  0.6671 -0.4523 -0.1883
 3724TIP3    H132587   4.353   3.863  12.697 -2.4482  0.5520  0.1756
 3724TIP3    H232588   4.460   3.847  12.803  1.5974 -0.2260 -3.7375
 3725TIP3   OH232589   3.656   3.713  14.291  0.0889  0.0521 -0.4696
 3725TIP3    H132590   3.562   3.733  14.292  0.4694  2.0695  0.5237
 3725TIP3    H232591   3.698   3.794  14.321  2.2214 -0.5052 -1.7075
 3726TIP3   OH232592   2.772   6.523  14.210 -0.4894 -0.1304  0.5082
 3726TIP3    H132593   2.855   6.480  14.189 -1.4043 -0.9626 -1.7373
 3726TIP3    H232594   2.793   6.584  14.281  2.3450  0.7102 -0.9137
 3727TIP3   OH232595   5.635   6.127  11.127 -0.7182  0.1885  0.1269
 3727TIP3    H132596   5.587   6.044  11.125 -2.1734  0.9125 -3.7929
 3727TIP3    H232597   5.616   6.167  11.042  2.8712  2.8962  0.3976
 3728TIP3   OH232598   2.368   3.156  11.879  0.3016  0.3175 -0.1639
 3728TIP3    H132599   2.384   3.063  11.894 -1.8123  0.2301  2.1572
 3728TIP3    H232600   2.402   3.200  11.957 -0.0484  1.3203 -0.5550
 3729TIP3   OH232601   1.053   3.395   1.910 -0.0011 -0.1664 -0.0969
 3729TIP3    H132602   1.050   3.469   1.849  0.2008 -0.0477  0.0362
 3729TIP3    H232603   1.128   3.413   1.966 -1.5618  0.9024  1.7235
 3730TIP3   OH232604   2.379   5.848   0.133  0.5084  0.1678  0.0287
 3730TIP3    H132605   2.297   5.896   0.151 -0.5288 -0.3689 -2.7737
 3730TIP3    H232606   2.444   5.917   0.119 -0.5065  0.8002 -1.9756
 3731TIP3   OH232607   5.500   1.940  16.827 -0.4071 -0.0354  0.0224
 3731TIP3    H132608   5.552   1.978  16.897 -1.0086  0.0160  0.4496
 3731TIP3    H232609   5.561   1.884  16.779  0.8748  2.3958 -1.4280
 3732TIP3   OH232610   3.215   0.917  16.673  0.3377 -0.0273 -0.0482
 3732TIP3    H132611   3.273   0.879  16.607 -1.2121 -1.6007 -0.5905
 3732TIP3    H232612   3.174   0.991  16.628  1.7096  0.9736  0.2738
 3733TIP3   OH232613   5.291   1.414  14.066  0.3293 -0.7099 -0.2794
 3733TIP3    H132614   5.293   1.390  14.159 -0.0391 -1.2838 -0.4124
 3733TIP3    H232615   5.383   1.422  14.041  0.4673  2.3533  0.8377
 3734TIP3   OH232616   1.658   3.195   0.096  0.4466 -0.0020  0.3560
 3734TIP3    H132617   1.699   3.281   0.108  1.2072 -0.1108 -1.2508
 3734TIP3    H232618   1.730   3.133   0.099 -0.2381 -0.7962  2.9104
 3735TIP3   OH232619   1.868   2.951  12.110  0.2456 -1.0282  0.8243
 3735TIP3    H132620   1.875   3.015  12.180 -1.4798 -0.8929  0.9361
 3735TIP3    H232621   1.876   3.002  12.029  0.6383 -0.9373  0.9234
 3736TIP3   OH232622   4.776   4.839   6.588  0.4243 -0.0870  0.2635
 3736TIP3    H132623   4.698   4.874   6.631  0.4648 -0.1068  0.3540
 3736TIP3    H232624   4.837   4.913   6.585 -0.0063  0.2394 -0.8111
 3737TIP3   OH232625   4.732   6.627   1.995  0.2628  0.5497  0.0815
 3737TIP3    H132626   4.706   6.622   1.903 -0.3585  0.1060  0.2770
 3737TIP3    H232627   4.736   6.535   2.023  0.9437  0.6607  0.3639
 3738TIP3   OH232628   6.200   5.838   3.351 -0.2079 -0.1545 -0.2960
 3738TIP3    H132629   6.136   5.771   3.326 -2.5049  1.4112  0.9831
 3738TIP3    H232630   6.169   5.917   3.307 -0.3347  1.0742  1.8663
 3739TIP3   OH232631   4.635   4.745  13.860 -0.0808  1.0578 -0.1742
 3739TIP3    H132632   4.570   4.692  13.814  1.0141  1.2762 -2.1128
 3739TIP3    H232633   4.714   4.691  13.859  0.6255  2.0719 -0.7695
 3740TIP3   OH232634   4.776   6.194   2.392  0.5193 -0.4736  0.0953
 3740TIP3    H132635   4.818   6.158   2.314  1.0126 -0.0427  0.1532
 3740TIP3    H232636   4.816   6.280   2.403 -0.1773 -0.1712  0.3271
 3741TIP3   OH232637   1.272   2.739   5.350  0.2494 -0.3335 -0.1793
 3741TIP3    H132638   1.188   2.695   5.359 -0.0522  0.3619  0.5702
 3741TIP3    H232639   1.266   2.784   5.266 -0.5674  0.5782  0.3400
 3742TIP3   OH232640   5.840   1.058   0.890 -0.4704  0.0953 -0.1253
 3742TIP3    H132641   5.820   1.062   0.796 -1.8244  2.4135  0.1828
 3742TIP3    H232642   5.935   1.055   0.894 -0.4012 -0.8443 -1.5575
 3743TIP3   OH232643   3.431   0.748   6.046  0.3135 -0.2388  0.4795
 3743TIP3    H132644   3.387   0.760   6.130 -0.0072 -0.4990  0.3504
 3743TIP3    H232645   3.508   0.804   6.051 -0.7164  1.2590  0.1920
 3744TIP3   OH232646   4.579   4.558   3.354 -0.3814 -0.3613 -0.6261
 3744TIP3    H132647   4.654   4.529   3.405  0.1551 -0.1784 -1.2935
 3744TIP3    H232648   4.553   4.482   3.303  1.8066  0.5562 -3.3197
 3745TIP3   OH232649   6.404   6.408  15.904 -0.0300  0.0775 -0.0007
 3745TIP3    H132650   6.357   6.340  15.952  1.1799 -0.2572  0.7675
 3745TIP3    H232651   6.424   6.369  15.820  1.2455 -0.8071  0.6781
 3746TIP3   OH232652   2.191   2.439  12.136 -0.0615  0.0865  0.2276
 3746TIP3    H132653   2.276   2.452  12.093  0.2650  1.2465  1.1682
 3746TIP3    H232654   2.152   2.364  12.091  0.6190  0.7417 -1.5225
 3747TIP3   OH232655   1.723   1.757   0.686  0.4134 -0.8054  0.0270
 3747TIP3    H132656   1.690   1.727   0.602 -1.5261 -0.1446  0.5129
 3747TIP3    H232657   1.677   1.704   0.751  2.0136 -1.4374  0.7150
 3748TIP3   OH232658   4.600   0.274  13.450 -0.9573  0.4508  1.1120
 3748TIP3    H132659   4.586   0.194  13.501 -0.3550  0.0878  0.7287
 3748TIP3    H232660   4.513   0.312  13.440 -1.1101  0.4247  2.2300
 3749TIP3   OH232661   2.797   1.632  15.347  0.6902 -0.2193  0.3671
 3749TIP3    H132662   2.742   1.603  15.274  1.7723 -1.1986 -0.0760
 3749TIP3    H232663   2.883   1.648  15.308  0.5776  2.0982  0.8908
 3750TIP3   OH232664   2.308   0.481  11.089 -0.0079 -0.2605  0.6440
 3750TIP3    H132665   2.308   0.487  10.993  0.0604  1.6048  0.7104
 3750TIP3    H232666   2.325   0.389  11.108 -1.5586 -0.9699 -1.1385
 3751TIP3   OH232667   2.034   5.121  11.885  0.1693 -0.3065 -0.3277
 3751TIP3    H132668   2.125   5.097  11.900 -0.0169  0.1733  1.9667
 3751TIP3    H232669   2.030   5.214  11.907 -1.0059 -0.4737  0.2297
 3752TIP3   OH232670   3.490   6.381   3.146  0.1712  0.5018  0.5647
 3752TIP3    H132671   3.430   6.310   3.122  1.0471  0.3918 -1.5327
 3752TIP3    H232672   3.572   6.337   3.168  0.9576  0.8177 -1.4966
 3753TIP3   OH232673   6.104   4.644   2.582 -0.4677 -0.3606  0.3396
 3753TIP3    H132674   6.138   4.661   2.670  0.4711  2.4165 -0.4392
 3753TIP3    H232675   6.138   4.558   2.559  3.3670  0.8067  0.9517
 3754TIP3   OH232676   0.624   3.897  12.624 -0.1427  0.2710  0.3069
 3754TIP3    H132677   0.641   3.989  12.605 -0.9751 -0.0616 -2.5983
 3754TIP3    H232678   0.687   3.874  12.692 -0.1348  3.0302  1.3378
 3755TIP3   OH232679   6.195   3.320  16.834  0.1994 -0.0004  0.6119
 3755TIP3    H132680   6.102   3.302  16.841  0.2236  0.0826  1.1998
 3755TIP3    H232681   6.230   3.300  16.920  0.8154 -0.5163  0.2536
 3756TIP3   OH232682   3.925   4.238   3.613  0.1368  0.4263 -0.2511
 3756TIP3    H132683   3.904   4.206   3.700  0.0553  1.1674  0.0062
 3756TIP3    H232684   3.941   4.159   3.561 -0.7945 -0.0620  0.1808
 3757TIP3   OH232685   2.403   3.661   3.273  0.2069  0.2300 -0.0940
 3757TIP3    H132686   2.436   3.615   3.350 -1.2962  0.7093  0.8795
 3757TIP3    H232687   2.482   3.689   3.226  1.1580 -1.8835  0.1335
 3758TIP3   OH232688   2.047   2.846   2.857  0.2981 -0.1834 -0.0729
 3758TIP3    H132689   2.052   2.941   2.873 -1.2228 -0.0802 -0.0386
 3758TIP3    H232690   2.104   2.832   2.782  0.9963  0.6632  0.2714
 3759TIP3   OH232691   3.675   4.138  11.905  0.3214  0.5767  0.2164
 3759TIP3    H132692   3.716   4.097  11.981  0.9479 -0.3419 -0.5932
 3759TIP3    H232693   3.657   4.228  11.933 -0.4485 -0.0326  1.8009
 3760TIP3   OH232694   4.016   4.408   5.764 -0.4976 -0.6287  0.2761
 3760TIP3    H132695   3.999   4.439   5.854 -0.6065 -0.8987  0.3501
 3760TIP3    H232696   3.929   4.396   5.727 -0.4524  0.1052 -0.0874
 3761TIP3   OH232697   5.820   4.772  13.191  0.5536  0.3269 -0.1878
 3761TIP3    H132698   5.841   4.864  13.177  0.9041  0.2797  0.0285
 3761TIP3    H232699   5.825   4.733  13.103  0.4639  0.4985 -0.2707
 3762TIP3   OH232700   1.779   4.340  12.252  0.4419 -0.3705  0.1813
 3762TIP3    H132701   1.857   4.393  12.240 -1.6506  2.6316 -1.5503
 3762TIP3    H232702   1.799   4.258  12.205  2.9537 -0.2744  0.9316
 3763TIP3   OH232703   3.161   4.134  11.416 -0.4086  0.5704 -0.0330
 3763TIP3    H132704   3.217   4.212  11.411  0.2924  0.0248 -1.4708
 3763TIP3    H232705   3.097   4.146  11.345  0.1881 -0.4863 -0.7783
 3764TIP3   OH232706   0.956   5.159   5.518 -0.2622  0.3863 -0.2132
 3764TIP3    H132707   1.037   5.155   5.466 -1.1610 -0.3056 -1.6392
 3764TIP3    H232708   0.970   5.231   5.579  0.6732  1.5783 -1.7520
 3765TIP3   OH232709   4.568   3.538   0.474  0.1452 -0.1527  0.0185
 3765TIP3    H132710   4.590   3.509   0.385 -1.1035  1.8151 -1.0284
 3765TIP3    H232711   4.548   3.457   0.521 -2.0555 -1.1869 -2.3734
 3766TIP3   OH232712   3.299   6.336   4.193 -0.2197 -0.1958 -0.0974
 3766TIP3    H132713   3.354   6.354   4.117 -1.2366  0.7883 -0.6320
 3766TIP3    H232714   3.338   6.259   4.234  1.8314  0.7356 -0.1658
 3767TIP3   OH232715   1.610   0.668  17.091  0.3615 -0.4233  0.7651
 3767TIP3    H132716   1.638   0.716  17.012  0.4096  0.2770  1.2010
 3767TIP3    H232717   1.635   0.725  17.163 -1.4241 -0.1684  1.2138
 3768TIP3   OH232718   1.160   4.965  12.452  0.6200 -0.3315  0.2296
 3768TIP3    H132719   1.069   4.988  12.470  0.4630 -0.3041 -0.5574
 3768TIP3    H232720   1.201   5.049  12.427  1.1183 -0.1561  1.5433
 3769TIP3   OH232721   6.303   1.258   1.948  0.0766  0.1823  0.2503
 3769TIP3    H132722   6.355   1.198   2.000 -1.3220 -0.7091  0.6933
 3769TIP3    H232723   6.223   1.271   2.000  0.1984  2.1772  0.0127
 3770TIP3   OH232724   5.800   5.196  10.941  0.3709  0.5197 -0.0814
 3770TIP3    H132725   5.708   5.220  10.957 -0.8917 -2.1821 -2.4621
 3770TIP3    H232726   5.817   5.226  10.852  1.7928  0.7913  0.2564
 3771TIP3   OH232727   2.300   4.346   2.386  0.2779  0.1148  0.2660
 3771TIP3    H132728   2.263   4.371   2.471 -0.4488 -0.1895  0.0460
 3771TIP3    H232729   2.265   4.409   2.324 -0.4392 -0.5763 -0.0551
 3772TIP3   OH232730   2.409   1.053   3.553 -0.8351 -0.0434  0.1192
 3772TIP3    H132731   2.374   0.965   3.563 -1.8038  0.3608  0.4039
 3772TIP3    H232732   2.332   1.109   3.547 -0.2664  0.6366 -1.6114
 3773TIP3   OH232733   0.189   4.244   4.709  0.4436 -0.2319  0.3194
 3773TIP3    H132734   0.195   4.194   4.791  0.8743 -0.8028 -0.0562
 3773TIP3    H232735   0.103   4.287   4.714 -0.4498 -1.9438  0.1239
 3774TIP3   OH232736   3.223   3.120   5.270  0.4185 -0.5325 -0.1120
 3774TIP3    H132737   3.191   3.143   5.183  0.6840  0.5087  0.0542
 3774TIP3    H232738   3.250   3.203   5.309  3.0132 -1.2970 -0.1074
 3775TIP3   OH232739   6.095   4.484  13.070 -0.2759 -0.0789  0.5106
 3775TIP3    H132740   6.074   4.551  13.005  2.2671  1.2786  0.9667
 3775TIP3    H232741   6.158   4.427  13.026  0.7989  0.3447  1.4502
 3776TIP3   OH232742   2.137   2.713   2.299  0.0376 -0.6432 -0.3262
 3776TIP3    H132743   2.160   2.637   2.246  2.3985 -1.4627  1.6742
 3776TIP3    H232744   2.113   2.676   2.384 -1.3379  0.7593 -0.0522
 3777TIP3   OH232745   1.286   6.052   2.161  0.3668 -0.2676 -0.0914
 3777TIP3    H132746   1.201   6.063   2.119  0.2420  2.7422  0.7048
 3777TIP3    H232747   1.269   5.993   2.235 -1.0827  0.4173  0.1521
 3778TIP3   OH232748   4.346   3.058   1.408 -0.0293  0.7687  0.1605
 3778TIP3    H132749   4.362   3.070   1.501  1.7468  0.0325  0.0061
 3778TIP3    H232750   4.428   3.021   1.375 -2.0700 -3.5334 -0.8182
 3779TIP3   OH232751   3.983   0.616   0.361 -0.4980 -0.5183 -0.6310
 3779TIP3    H132752   3.896   0.655   0.368 -0.6047 -1.0166  1.0629
 3779TIP3    H232753   3.973   0.528   0.397 -0.0212 -1.8443 -3.4395
 3780TIP3   OH232754   1.920   5.476   1.102  0.2459 -0.2003 -0.0760
 3780TIP3    H132755   1.924   5.383   1.078 -1.9441 -0.0464 -1.3061
 3780TIP3    H232756   1.959   5.522   1.028  2.8871 -0.1091  1.2324
 3781TIP3   OH232757   5.880   1.829   1.922  0.1027 -0.0929  0.0343
 3781TIP3    H132758   5.894   1.742   1.958 -2.3446 -0.4801  0.1872
 3781TIP3    H232759   5.885   1.887   1.998  2.1656  0.0139 -0.1279
 3782TIP3   OH232760   2.890   2.326   5.789  0.6558 -0.0662  0.0588
 3782TIP3    H132761   2.927   2.337   5.701 -1.1731 -1.7433 -1.0079
 3782TIP3    H232762   2.922   2.241   5.818 -2.5364 -1.8596 -1.1424
 3783TIP3   OH232763   6.400   1.698  11.696  0.2911  0.1919 -0.7729
 3783TIP3    H132764   6.377   1.788  11.717 -0.8455 -0.4070  0.7037
 3783TIP3    H232765   6.351   1.678  11.616 -0.8275  0.3603 -0.1492
 3784TIP3   OH232766   4.895   5.806   3.479  0.0567  0.3452  0.2828
 3784TIP3    H132767   4.813   5.826   3.525  0.6576 -1.2404  2.1738
 3784TIP3    H232768   4.959   5.866   3.517  0.3748 -0.3866  0.9170
 3785TIP3   OH232769   1.862   5.561  13.593 -0.4241 -0.2084  0.1681
 3785TIP3    H132770   1.894   5.580  13.682 -0.5563  2.8864 -0.3390
 3785TIP3    H232771   1.825   5.644  13.563 -0.5893 -1.2372 -2.7175
 3786TIP3   OH232772   4.894   2.343  13.598  0.2881  0.0708 -0.9444
 3786TIP3    H132773   4.837   2.354  13.674  3.1621 -0.6412  1.5264
 3786TIP3    H232774   4.910   2.432  13.567 -0.8481  0.3897 -0.6544
 3787TIP3   OH232775   1.284   0.191   1.725 -0.2377  0.0984  0.0156
 3787TIP3    H132776   1.246   0.103   1.727  2.1039 -1.2307 -3.4076
 3787TIP3    H232777   1.246   0.231   1.647  1.3658  0.6948 -0.4995
 3788TIP3   OH232778   4.672   3.415   5.592 -0.0143  1.1997  0.0983
 3788TIP3    H132779   4.728   3.370   5.528 -0.6918 -1.5470  1.2652
 3788TIP3    H232780   4.733   3.450   5.656  0.5144  0.2954  0.1148
 3789TIP3   OH232781   3.561   0.671   5.682 -0.3140 -0.5896  0.0259
 3789TIP3    H132782   3.564   0.592   5.628 -0.0612 -0.4553 -0.1582
 3789TIP3    H232783   3.637   0.722   5.654 -0.0822 -0.5974  0.6274
 3790TIP3   OH232784   0.715   0.842  11.684  0.0536  0.0158 -0.9337
 3790TIP3    H132785   0.750   0.929  11.663  0.5448  1.3221  3.8951
 3790TIP3    H232786   0.793   0.791  11.706 -0.3870 -0.9993 -1.6912
 3791TIP3   OH232787   2.319   0.577  10.835  0.1604  0.3431 -0.3730
 3791TIP3    H132788   2.233   0.619  10.834 -1.2458 -2.3494 -1.2956
 3791TIP3    H232789   2.349   0.581  10.744  0.5041  0.2716 -0.2630
 3792TIP3   OH232790   6.367   5.138   1.752  0.3208 -0.1017  0.2173
 3792TIP3    H132791   6.330   5.168   1.835 -3.3570 -0.0082 -1.2926
 3792TIP3    H232792   6.329   5.052   1.738  0.3549  0.1463 -1.6539
 3793TIP3   OH232793   3.608   3.808  11.066  0.4687  0.1038 -0.0280
 3793TIP3    H132794   3.559   3.735  11.104  1.7166 -0.7131  0.0708
 3793TIP3    H232795   3.563   3.886  11.098 -0.1917 -0.5970  0.8236
 3794TIP3   OH232796   5.304   0.105   3.336 -0.0109  0.6573 -0.1108
 3794TIP3    H132797   5.374   0.118   3.400 -0.2199  0.2159  0.2120
 3794TIP3    H232798   5.238   0.055   3.383 -0.1527  0.2968 -0.6888
 3795TIP3   OH232799   4.023   3.483  12.151  0.1016 -0.1171  0.2341
 3795TIP3    H132800   4.032   3.504  12.058  0.8218  0.1176  0.3524
 3795TIP3    H232801   4.005   3.568  12.193  1.6166  0.0871  0.5338
 3796TIP3   OH232802   5.166   6.301   0.427 -0.2811  0.2406  0.0392
 3796TIP3    H132803   5.192   6.375   0.372 -0.9557  0.7315  0.3561
 3796TIP3    H232804   5.215   6.227   0.393  1.0825  1.0102  0.2813
 3797TIP3   OH232805   4.917   2.556  11.417 -0.5894 -1.2825 -0.2757
 3797TIP3    H132806   4.973   2.621  11.458 -1.4735 -0.5967 -0.1132
 3797TIP3    H232807   4.931   2.568  11.323 -1.1800 -0.4367 -0.2693
 3798TIP3   OH232808   5.304   2.570   0.417 -0.0366 -0.3341  0.2120
 3798TIP3    H132809   5.325   2.609   0.502 -1.5598 -0.7452  0.8029
 3798TIP3    H232810   5.288   2.644   0.359  0.3005 -0.0577  0.4702
 3799TIP3   OH232811   5.323   2.616  16.874  0.5480  0.1200  0.0159
 3799TIP3    H132812   5.329   2.580  16.785  0.9812 -2.4038  0.9839
 3799TIP3    H232813   5.403   2.667  16.885  0.4298  0.5616 -1.0690
 3800TIP3   OH232814   6.063   2.258  15.627  0.1071 -0.0197  0.7417
 3800TIP3    H132815   6.114   2.214  15.560 -1.2634 -0.1186 -0.2788
 3800TIP3    H232816   6.050   2.346  15.593  0.0720  0.1752  1.2538
 3801TIP3   OH232817   4.621   3.341  12.222 -0.0969  0.2541 -0.0985
 3801TIP3    H132818   4.559   3.273  12.249  0.1047  0.5551  1.1550
 3801TIP3    H232819   4.642   3.318  12.131 -0.9713 -0.6497 -0.0964
 3802TIP3   OH232820   1.657   4.554   3.186  0.5219  0.1378 -0.1500
 3802TIP3    H132821   1.673   4.524   3.276  0.8214  0.9717  0.0797
 3802TIP3    H232822   1.610   4.481   3.145  1.6217 -0.8360  0.2617
 3803TIP3   OH232823   6.625   1.302  11.139 -0.0027 -0.5161  0.0518
 3803TIP3    H132824   6.573   1.257  11.205 -1.4043 -2.8143 -2.4310
 3803TIP3    H232825   6.560   1.340  11.080  1.1466 -0.6056 -1.3227
 3804TIP3   OH232826   5.697   3.955   2.608  0.1361  0.5708 -0.6402
 3804TIP3    H132827   5.675   3.863   2.600 -0.1050  0.0873  3.4910
 3804TIP3    H232828   5.784   3.956   2.647 -0.9993  1.8574  2.1639
 3805TIP3   OH232829   1.805   6.134   2.789 -0.1511 -0.4489 -0.0856
 3805TIP3    H132830   1.796   6.042   2.815  0.7955 -1.0003 -1.5599
 3805TIP3    H232831   1.771   6.183   2.863 -3.9571 -2.0198 -0.5258
 3806TIP3   OH232832   5.181   2.971   1.233  0.3392  0.7340  0.2039
 3806TIP3    H132833   5.111   2.906   1.234 -1.1283  2.2303  0.2493
 3806TIP3    H232834   5.185   3.003   1.323 -0.4570  2.1752 -0.2376
 3807TIP3   OH232835   0.435   5.719  16.347  0.1264 -0.5095 -0.5122
 3807TIP3    H132836   0.440   5.624  16.359 -0.8274 -0.4724  0.4340
 3807TIP3    H232837   0.510   5.754  16.395  0.1084 -0.7542 -0.3073
 3808TIP3   OH232838   5.410   2.654   1.977  0.2053 -0.9085 -0.1978
 3808TIP3    H132839   5.468   2.651   1.901 -0.8307  2.1528 -1.2690
 3808TIP3    H232840   5.332   2.607   1.949  0.5893 -1.5121 -0.2690
 3809TIP3   OH232841   5.148   5.849  13.973  0.9100 -0.3028 -0.3560
 3809TIP3    H132842   5.077   5.836  13.911  0.7196  1.8232 -0.6468
 3809TIP3    H232843   5.105   5.857  14.058  0.8388  0.2657 -0.4386
 3810TIP3   OH232844   1.351   0.481   3.446 -0.0549 -0.5022  0.3390
 3810TIP3    H132845   1.383   0.459   3.533  0.2978  2.5921  1.1076
 3810TIP3    H232846   1.265   0.521   3.460 -0.8255 -1.6261 -0.9448
 3811TIP3   OH232847   3.852   0.086   2.759  0.5514  0.4368 -0.0643
 3811TIP3    H132848   3.882   0.098   2.669  1.5311  0.2290  0.2231
 3811TIP3    H232849   3.818  -0.003   2.760 -1.1871  1.0511 -0.6789
 3812TIP3   OH232850   2.067   4.799  14.497 -0.2086  0.1798  0.2460
 3812TIP3    H132851   2.024   4.820  14.414  1.1965  0.0005 -0.5580
 3812TIP3    H232852   2.120   4.722  14.478  2.0997  1.5780  0.5825
 3813TIP3   OH232853   1.939   5.632  16.688  0.5167 -0.5581  0.2387
 3813TIP3    H132854   1.918   5.689  16.761  0.6744  0.6272 -0.6194
 3813TIP3    H232855   1.855   5.616  16.644  0.4315 -1.2131  0.6344
 3814TIP3   OH232856   4.876   4.612   0.751  0.3186 -0.6477  0.6439
 3814TIP3    H132857   4.885   4.518   0.761 -1.8846 -0.9573  0.0779
 3814TIP3    H232858   4.876   4.626   0.656 -0.5522 -0.2321  0.6951
 3815TIP3   OH232859   5.238   6.623   5.550 -0.0260  0.1547 -0.3822
 3815TIP3    H132860   5.199   6.615   5.636 -0.2415 -0.2113 -0.5090
 3815TIP3    H232861   5.239   6.533   5.516  0.8714  0.1600 -0.4040
 3816TIP3   OH232862   1.308   2.251   6.671  0.1217  0.4612  0.4414
 3816TIP3    H132863   1.255   2.273   6.747  0.0120  0.9536  0.2267
 3816TIP3    H232864   1.340   2.162   6.688  0.7855  0.8820  1.4484
 3817TIP3   OH232865   1.776   2.739   5.290  0.1736  0.5105 -0.2089
 3817TIP3    H132866   1.722   2.660   5.287  0.3606  0.3796 -0.1567
 3817TIP3    H232867   1.856   2.715   5.244  0.5629  0.4102  0.4962
 3818TIP3   OH232868   2.721   5.694  11.292 -0.0093  0.1183  0.1886
 3818TIP3    H132869   2.741   5.614  11.339 -0.7916 -0.6966 -0.8223
 3818TIP3    H232870   2.633   5.719  11.321  0.2523  0.6446  0.5415
 3819TIP3   OH232871   2.185   4.436  16.542  0.0078 -0.3903  0.0443
 3819TIP3    H132872   2.136   4.469  16.466 -0.9405 -1.5738  0.1185
 3819TIP3    H232873   2.243   4.368  16.506 -0.7743 -1.2763  0.4289
 3820TIP3   OH232874   2.569   2.155   0.754  0.1733 -0.6688  0.1071
 3820TIP3    H132875   2.657   2.183   0.730 -0.3698  1.1663  0.1062
 3820TIP3    H232876   2.562   2.173   0.847 -0.5864  0.3488 -0.1297
 3821TIP3   OH232877   1.971   3.912  16.826 -0.3345 -0.2841 -0.0716
 3821TIP3    H132878   1.948   3.839  16.883  0.0817 -3.4490 -3.5732
 3821TIP3    H232879   1.894   3.969  16.828 -1.6703 -2.0283  1.0650
 3822TIP3   OH232880   2.809   4.847  15.137  0.3053  0.1323 -0.8521
 3822TIP3    H132881   2.882   4.909  15.136  1.3633 -1.0851 -0.8998
 3822TIP3    H232882   2.826   4.790  15.211 -1.8977  1.2617  0.6338
 3823TIP3   OH232883   2.631   5.183  13.860  0.4929  0.2788  0.8335
 3823TIP3    H132884   2.690   5.110  13.842  0.2141  0.4615 -1.0932
 3823TIP3    H232885   2.641   5.241  13.784 -2.1718  0.2930  0.3999
 3824TIP3   OH232886   0.493   0.404   1.564 -0.3005 -0.1206 -0.1119
 3824TIP3    H132887   0.533   0.419   1.478  0.3109 -0.5265  0.0911
 3824TIP3    H232888   0.449   0.486   1.585  0.9056  0.5492 -0.1007
 3825TIP3   OH232889   1.461   1.023  13.327  0.0982  0.4352 -0.7477
 3825TIP3    H132890   1.399   1.041  13.398 -1.1377 -0.1983 -1.6252
 3825TIP3    H232891   1.441   1.090  13.262  1.5446  1.3042 -0.3282
 3826TIP3   OH232892   0.937   3.505   2.681 -0.3015  0.0609  0.1513
 3826TIP3    H132893   0.992   3.454   2.740 -0.5306 -0.8651 -0.4104
 3826TIP3    H232894   0.856   3.519   2.730  0.1771  0.8789  0.7365
 3827TIP3   OH232895   5.298   4.442  13.780  0.2190 -0.1234  0.2144
 3827TIP3    H132896   5.392   4.451  13.761  0.3695  0.1985  1.0762
 3827TIP3    H232897   5.260   4.413  13.697  1.1272 -0.5856 -0.0565
 3828TIP3   OH232898   5.463   6.154   5.389  0.1721  0.2743  0.4416
 3828TIP3    H132899   5.520   6.144   5.465 -0.4337  0.1555  0.8869
 3828TIP3    H232900   5.516   6.126   5.315 -0.0903 -2.2386  1.1145
 3829TIP3   OH232901   3.651   0.143  16.444  0.2464  0.1156  0.1538
 3829TIP3    H132902   3.614   0.111  16.362 -0.5883  0.0731  0.5314
 3829TIP3    H232903   3.626   0.235  16.448  1.4630  0.4746 -0.2788
 3830TIP3   OH232904   4.274   2.756  15.364 -0.2569 -0.0176 -0.9086
 3830TIP3    H132905   4.239   2.827  15.417 -0.8373  0.3858 -1.8161
 3830TIP3    H232906   4.342   2.717  15.419 -2.3511 -1.0983  1.1241
 3831TIP3   OH232907   6.711   4.345  11.294 -0.3586 -0.4338  0.5365
 3831TIP3    H132908   6.672   4.428  11.322 -0.4696 -0.4862  0.5374
 3831TIP3    H232909   6.728   4.298  11.376 -0.9751 -0.7209  0.5110
 3832TIP3   OH232910   1.264   4.643   1.466 -0.1264 -0.3633  0.2628
 3832TIP3    H132911   1.342   4.592   1.444 -0.1863 -0.4546  0.2595
 3832TIP3    H232912   1.283   4.732   1.436 -1.2173 -0.9889 -2.6213
 3833TIP3   OH232913   6.301   3.164  16.645 -0.7913 -0.0190 -0.1289
 3833TIP3    H132914   6.276   3.250  16.680  1.9334 -0.4267  3.3340
 3833TIP3    H232915   6.358   3.184  16.572  0.7422  1.2699  1.3287
 3834TIP3   OH232916   6.417   2.916   0.971  0.4835 -0.6757  0.2136
 3834TIP3    H132917   6.425   2.823   0.989 -1.1303 -1.0918 -1.0417
 3834TIP3    H232918   6.337   2.943   1.015  0.1697 -0.2182 -0.6052
 3835TIP3   OH232919   6.606   1.834   3.903 -0.2465 -0.0189 -0.1435
 3835TIP3    H132920   6.657   1.771   3.953 -0.0958 -0.8718 -1.3184
 3835TIP3    H232921   6.561   1.781   3.837 -0.1494  1.0867 -1.1324
 3836TIP3   OH232922   4.557   1.084   2.599 -0.0151  0.0274 -0.2505
 3836TIP3    H132923   4.470   1.082   2.560 -1.3415  1.4353  2.3180
 3836TIP3    H232924   4.581   1.177   2.597  0.5207 -0.0746  0.8060
 3837TIP3   OH232925   6.657   5.258   0.388 -0.5536  0.6609  0.5136
 3837TIP3    H132926   6.616   5.189   0.438 -0.4293 -0.2874 -0.6430
 3837TIP3    H232927   6.751   5.237   0.390 -0.3346  1.6365  1.3861
 3838TIP3   OH232928   6.590   1.183   3.690  0.0332  0.3929  0.8711
 3838TIP3    H132929   6.547   1.126   3.627 -0.6022 -1.4431  2.8735
 3838TIP3    H232930   6.521   1.243   3.719 -0.0570  0.2609  0.9280
 3839TIP3   OH232931   5.462   1.199  10.842 -0.5280  0.0679 -0.0715
 3839TIP3    H132932   5.552   1.168  10.851 -0.5974  0.1208  0.8748
 3839TIP3    H232933   5.463   1.286  10.882 -1.0970 -0.0976  0.3067
 3840TIP3   OH232934   4.903   0.964  12.614 -0.0096  0.0373 -0.2547
 3840TIP3    H132935   4.885   1.017  12.692  1.4126  0.1223  0.0484
 3840TIP3    H232936   4.828   0.906  12.607 -0.3943  0.3600  0.8993
 3841TIP3   OH232937   0.999   6.717  16.845  0.0865 -0.0271 -0.3475
 3841TIP3    H132938   1.045   6.770  16.780 -2.4192  0.4248 -1.9179
 3841TIP3    H232939   0.959   6.780  16.904 -0.9397 -0.2334 -0.8008
 3842TIP3   OH232940   1.136   0.834  11.001  0.4664  0.0484  0.4523
 3842TIP3    H132941   1.133   0.827  11.096 -0.2145 -0.9279  0.3685
 3842TIP3    H232942   1.062   0.891  10.979  0.9833  0.7622  0.5435
 3843TIP3   OH232943   6.287   5.217  12.735  0.0596  0.5713  0.6446
 3843TIP3    H132944   6.347   5.210  12.810 -0.0711  1.2079  0.8176
 3843TIP3    H232945   6.307   5.140  12.681  0.5417  0.3998  1.0530
 3844TIP3   OH232946   1.501   2.536  14.627 -0.2170 -0.5891 -0.0305
 3844TIP3    H132947   1.405   2.535  14.632 -0.2928 -0.7261 -1.2687
 3844TIP3    H232948   1.521   2.586  14.548  0.7642  0.0678  0.6147
 3845TIP3   OH232949   0.709   3.471   3.184  0.2928  0.2012  0.4050
 3845TIP3    H132950   0.674   3.422   3.258 -2.0452  2.7929  1.1968
 3845TIP3    H232951   0.639   3.469   3.118  0.9805  0.7283 -0.3646
 3846TIP3   OH232952   5.486   1.437   0.035 -0.9149  0.1080  0.0216
 3846TIP3    H132953   5.408   1.416  -0.017 -0.4963  0.3309 -0.7110
 3846TIP3    H232954   5.560   1.415  -0.022 -0.4398  0.0907  0.6335
 3847TIP3   OH232955   1.922   4.238  11.470  0.3728 -0.0815  0.1674
 3847TIP3    H132956   1.955   4.327  11.478 -0.7659  0.4132 -0.3898
 3847TIP3    H232957   1.969   4.188  11.537  1.4377  0.7980  0.1054
 3848TIP3   OH232958   1.668   2.020  12.936 -0.5696  0.4507 -0.2586
 3848TIP3    H132959   1.589   1.978  12.900 -0.1955 -1.7265  1.2639
 3848TIP3    H232960   1.737   1.955  12.923  0.3112  1.0677  1.1396
 3849TIP3   OH232961   5.036   5.924  12.053  0.0137 -0.3201 -0.2569
 3849TIP3    H132962   5.003   5.835  12.042  0.0817 -0.2971 -0.6570
 3849TIP3    H232963   5.086   5.921  12.134  0.7381 -0.8581 -0.7153
 3850TIP3   OH232964   5.811   1.899   3.777  0.2560  0.7259  0.3506
 3850TIP3    H132965   5.799   1.917   3.684 -1.8163 -0.3790  0.3604
 3850TIP3    H232966   5.906   1.907   3.791  0.8065 -0.4713 -2.1511
 3851TIP3   OH232967   5.929   5.978  11.115  0.4794  0.3170  0.0372
 3851TIP3    H132968   6.023   5.989  11.099  0.3430  0.0160 -1.0582
 3851TIP3    H232969   5.895   5.942  11.033 -0.6249  0.6098  0.3506
 3852TIP3   OH232970   4.324   0.311   6.278  0.4586  0.0423 -0.4415
 3852TIP3    H132971   4.314   0.220   6.305  1.2167  0.5359  1.7149
 3852TIP3    H232972   4.271   0.361   6.341 -1.1141  1.0536 -2.4379
 3853TIP3   OH232973   0.328   4.294  14.331 -0.0642  0.3977  0.1745
 3853TIP3    H132974   0.296   4.384  14.325 -1.7443 -0.1231  0.7895
 3853TIP3    H232975   0.399   4.289  14.267 -0.3750  1.9750 -0.3250
 3854TIP3   OH232976   3.363   4.441  16.355  0.0334 -0.0028  0.5440
 3854TIP3    H132977   3.378   4.442  16.449  0.0329 -0.7588  0.5546
 3854TIP3    H232978   3.324   4.355  16.337 -1.3756  0.6956  0.0707
 3855TIP3   OH232979   5.086   3.858  15.872 -0.2300  0.1612 -0.0565
 3855TIP3    H132980   5.094   3.861  15.777 -0.8011 -3.1117 -0.3293
 3855TIP3    H232981   5.175   3.874  15.904  0.6418 -1.6411 -1.3565
 3856TIP3   OH232982   5.475   0.475  12.164  0.2571 -0.0836  0.2087
 3856TIP3    H132983   5.518   0.398  12.203 -0.8382 -0.4483  0.7179
 3856TIP3    H232984   5.382   0.451  12.160  0.1102  0.6251 -1.0487
 3857TIP3   OH232985   1.775   5.756  14.040 -0.2506  0.6401 -0.5444
 3857TIP3    H132986   1.823   5.685  14.082 -0.9098 -0.3225 -1.3810
 3857TIP3    H232987   1.834   5.832  14.048  0.6366 -0.0804  0.0037
 3858TIP3   OH232988   4.770   2.356  13.874  0.0349  0.1970 -0.2622
 3858TIP3    H132989   4.744   2.414  13.946  2.5743 -0.6451  1.4647
 3858TIP3    H232990   4.688   2.336  13.829 -1.3133  2.8360  0.7885
 3859TIP3   OH232991   1.734   2.766   4.372 -0.3200  0.3420  0.5591
 3859TIP3    H132992   1.650   2.811   4.361 -0.3339  0.1724 -0.0648
 3859TIP3    H232993   1.758   2.737   4.284  0.0897 -0.1581  0.8244
 3860TIP3   OH232994   1.542   5.438   6.265 -0.0627 -0.0217  0.1497
 3860TIP3    H132995   1.586   5.371   6.317 -0.2718  0.3306  0.7945
 3860TIP3    H232996   1.495   5.390   6.197 -1.0423 -0.6091  1.2095
 3861TIP3   OH232997   3.522   0.090  13.393  0.1845 -0.3267 -0.3157
 3861TIP3    H132998   3.554  -0.000  13.398  0.1523 -0.3588 -0.7270
 3861TIP3    H232999   3.505   0.114  13.485  0.3309 -0.6875 -0.1927
 3862TIP3   OH233000   0.157   5.534   4.649 -0.0316 -0.5843  1.2721
 3862TIP3    H133001   0.209   5.563   4.724  0.2981 -1.1721  1.2748
 3862TIP3    H233002   0.162   5.438   4.652  0.6869 -0.6094  0.0022
 3863TIP3   OH233003   3.363   2.236   5.857 -0.2005 -0.5369 -0.4834
 3863TIP3    H133004   3.360   2.182   5.778  1.4068  0.2697 -1.1389
 3863TIP3    H233005   3.293   2.300   5.846 -0.8380 -1.2487 -0.6211
 3864TIP3   OH233006   0.836   3.490   0.689  0.3890 -0.1117  0.3370
 3864TIP3    H133007   0.894   3.564   0.707 -1.2287  1.4445 -0.4825
 3864TIP3    H233008   0.760   3.529   0.646 -0.8580 -2.1715  0.5102
 3865TIP3   OH233009   5.892   1.500   3.947 -0.5042  0.1940 -0.0460
 3865TIP3    H133010   5.896   1.468   3.857 -0.1154 -1.5034  0.5169
 3865TIP3    H233011   5.819   1.452   3.986  0.6952 -0.8021  1.1021
 3866TIP3   OH233012   3.655   3.526  13.235 -0.4540  0.0374 -0.4360
 3866TIP3    H133013   3.606   3.563  13.308 -0.8508 -1.2340 -0.0278
 3866TIP3    H233014   3.652   3.593  13.167  0.0639  1.3243  0.7537
 3867TIP3   OH233015   5.588   5.052  13.978 -0.0598  0.2889  0.0283
 3867TIP3    H133016   5.640   4.980  13.941 -0.0477 -0.4819  1.4586
 3867TIP3    H233017   5.498   5.021  13.972 -0.0675  0.2123  0.4885
 3868TIP3   OH233018   6.636   4.270  12.249 -0.1977 -0.3008  0.1262
 3868TIP3    H133019   6.706   4.222  12.206  0.1940 -1.1836  1.6872
 3868TIP3    H233020   6.561   4.263  12.190  0.4278 -1.1359 -0.5749
 3869TIP3   OH233021   3.855   4.576  14.659 -0.7672  0.1453  0.6965
 3869TIP3    H133022   3.950   4.582  14.648 -1.0206  2.8163 -1.0019
 3869TIP3    H233023   3.841   4.583  14.754  0.7020  0.0457  0.9368
 3870TIP3   OH233024   3.884   3.197   5.389  0.7678 -0.4476  0.3160
 3870TIP3    H133025   3.927   3.117   5.357  1.1774  0.1147 -0.5637
 3870TIP3    H233026   3.823   3.165   5.456 -0.1732 -1.6969 -1.0649
 3871TIP3   OH233027   4.793   0.787   4.503 -0.5070  0.4239 -0.1386
 3871TIP3    H133028   4.763   0.768   4.415  0.5250  1.3704 -0.7208
 3871TIP3    H233029   4.845   0.867   4.495 -0.2897  0.4695  1.3020
 3872TIP3   OH233030   3.453   2.400  12.921  0.2297  0.2368 -0.7922
 3872TIP3    H133031   3.470   2.483  12.966 -2.3604 -0.0867  0.9853
 3872TIP3    H233032   3.391   2.354  12.978  0.7462 -2.4761 -2.2611
 3873TIP3   OH233033   3.471   4.270  12.700  0.2423  0.5321 -0.3414
 3873TIP3    H133034   3.479   4.365  12.688  0.6504  0.3448 -1.6278
 3873TIP3    H233035   3.378   4.252  12.683  0.4177  0.5404 -1.3635
 3874TIP3   OH233036   3.628   0.694  13.222 -0.2328  0.5539  0.7422
 3874TIP3    H133037   3.696   0.762  13.224  2.1437 -1.4718 -2.0435
 3874TIP3    H233038   3.559   0.733  13.169  0.0286  1.6096  1.1295
 3875TIP3   OH233039   6.528   3.542  16.892 -0.4300  0.0288 -0.0497
 3875TIP3    H133040   6.557   3.485  16.821 -1.5367 -1.5167  0.6905
 3875TIP3    H233041   6.513   3.627  16.849 -0.8839 -0.8071 -1.6343
 3876TIP3   OH233042   0.003   6.458   5.838 -0.0143  0.0155 -0.0986
 3876TIP3    H133043   0.026   6.493   5.751 -0.6067 -1.1607 -0.7448
 3876TIP3    H233044   0.087   6.454   5.884  1.1056 -3.3002 -2.0881
 3877TIP3   OH233045   3.372   0.430  16.146  0.0687  0.0755 -0.0722
 3877TIP3    H133046   3.455   0.400  16.110  0.6925 -0.2090  1.4915
 3877TIP3    H233047   3.307   0.409  16.079  0.9645 -1.6541 -0.4667
 3878TIP3   OH233048   0.459   1.583  16.585  0.7559 -0.0338  0.4442
 3878TIP3    H133049   0.432   1.635  16.661 -1.9744  0.5542 -0.7949
 3878TIP3    H233050   0.422   1.496  16.601  1.0643 -0.1941  0.2770
 3879TIP3   OH233051   0.760   4.095   3.450 -0.2771 -0.1414  0.2237
 3879TIP3    H133052   0.700   4.148   3.397 -0.8569 -0.5022  0.5101
 3879TIP3    H233053   0.710   4.076   3.530  1.3668  2.4244  2.0455
 3880TIP3   OH233054   1.485   4.690  14.212 -0.2828 -0.8895 -0.3669
 3880TIP3    H133055   1.447   4.671  14.127 -0.8573 -1.7525  0.0659
 3880TIP3    H233056   1.564   4.637  14.215 -0.3097 -0.9273 -0.3291
 3881TIP3   OH233057   4.733   4.369  10.917 -0.4532  0.2159 -0.4987
 3881TIP3    H133058   4.811   4.396  10.870 -1.2136  1.5857 -1.0352
 3881TIP3    H233059   4.661   4.384  10.855 -1.5442  2.5100  1.1787
 3882TIP3   OH233060   5.354   4.610  16.487  0.0257 -0.5196 -0.0008
 3882TIP3    H133061   5.430   4.610  16.546 -0.4885 -1.6322  0.7043
 3882TIP3    H233062   5.392   4.606  16.399  0.8063  1.0790  0.2198
 3883TIP3   OH233063   1.651   3.443   3.952  0.1895 -0.6491  0.4278
 3883TIP3    H133064   1.691   3.518   3.909 -0.1135 -1.4659 -1.3729
 3883TIP3    H233065   1.639   3.471   4.043  1.0833  1.0606  0.0612
 3884TIP3   OH233066   2.229   1.141  11.759 -0.8696 -0.4204  0.0073
 3884TIP3    H133067   2.265   1.178  11.678 -0.8512 -0.4699 -0.0070
 3884TIP3    H233068   2.137   1.169  11.759 -0.6046  0.4868  0.4973
 3885TIP3   OH233069   0.893   6.072   4.838 -0.0730  0.1810  0.1840
 3885TIP3    H133070   0.876   6.163   4.863 -0.7031 -0.2189  1.2896
 3885TIP3    H233071   0.944   6.079   4.757 -1.3151  1.5065 -0.5519
 3886TIP3   OH233072   2.925   4.605  17.023  0.4162 -0.5143  0.1151
 3886TIP3    H133073   3.015   4.638  17.020  0.5164 -0.8348 -0.8715
 3886TIP3    H233074   2.881   4.648  16.949 -0.6890  0.8386  1.4867
 3887TIP3   OH233075   4.020   5.408   3.798 -0.0744  0.2896 -0.0547
 3887TIP3    H133076   3.927   5.402   3.775  0.0631 -0.7647 -0.3797
 3887TIP3    H233077   4.022   5.460   3.879 -0.9871 -0.1309  0.2433
 3888TIP3   OH233078   1.591   2.389  15.319  0.3430 -0.3136 -0.2373
 3888TIP3    H133079   1.649   2.352  15.253  0.6222  1.3445 -0.9872
 3888TIP3    H233080   1.650   2.429  15.383  0.0836 -2.1069  1.1945
 3889TIP3   OH233081   2.332   1.297   3.183 -0.4193  0.2442 -0.7824
 3889TIP3    H133082   2.403   1.354   3.156  0.5462 -1.2019 -1.4366
 3889TIP3    H233083   2.286   1.276   3.101 -0.5557 -0.1662 -0.6057
 3890TIP3   OH233084   5.079   3.132  15.763  0.0639 -0.0209  0.1030
 3890TIP3    H133085   5.039   3.145  15.849  0.3400 -0.6062  0.3235
 3890TIP3    H233086   5.006   3.109  15.706  0.1122 -1.5685  0.6065
 3891TIP3   OH233087   1.816   0.586  14.751  0.2072  0.0020  0.2800
 3891TIP3    H133088   1.892   0.626  14.709 -0.3605  0.0842 -0.7028
 3891TIP3    H233089   1.754   0.658  14.762 -0.2203 -0.3003 -0.1012
 3892TIP3   OH233090   2.580   3.439   5.175  0.0465  0.3102 -0.1477
 3892TIP3    H133091   2.564   3.478   5.262 -0.9912  0.6734 -0.4835
 3892TIP3    H233092   2.493   3.433   5.136  0.7159  2.5121 -2.1689
 3893TIP3   OH233093   0.509   1.684   4.011 -0.4313 -0.5821 -0.1828
 3893TIP3    H133094   0.566   1.761   4.019  0.5408 -1.2258 -0.7439
 3893TIP3    H233095   0.423   1.716   4.036  0.3641  0.1431  1.8614
 3894TIP3   OH233096   5.940   6.462  11.901 -0.0807  0.0202  0.2673
 3894TIP3    H133097   5.896   6.534  11.946  0.4365 -0.4972  1.6888
 3894TIP3    H233098   5.983   6.503  11.826 -0.3625  1.0724  0.6577
 3895TIP3   OH233099   3.664   5.460   0.210 -0.3662  0.2415  0.3294
 3895TIP3    H133100   3.653   5.554   0.200 -1.0439  0.3282  1.6418
 3895TIP3    H233101   3.758   5.445   0.204 -0.3593  0.7859 -1.4299
 3896TIP3   OH233102   2.727   4.819   0.060 -0.2242 -0.2545 -0.0655
 3896TIP3    H133103   2.690   4.901   0.094  1.1996  0.4580 -0.1543
 3896TIP3    H233104   2.705   4.819  -0.033 -1.3821 -0.6411  0.2004
 3897TIP3   OH233105   1.771   4.956  11.453 -1.0550 -0.2256  0.0532
 3897TIP3    H133106   1.811   5.042  11.439 -1.2033 -0.2787 -0.7758
 3897TIP3    H233107   1.810   4.924  11.534  1.4724 -0.7765 -1.2588
 3898TIP3   OH233108   0.160   5.202  14.921  0.5902  0.2028  0.5187
 3898TIP3    H133109   0.176   5.110  14.901  0.3946  0.4163 -0.6644
 3898TIP3    H233110   0.065   5.212  14.914  0.7260  0.7974 -0.7849
 3899TIP3   OH233111   1.130   2.965  11.993 -0.0571 -0.0492 -0.1921
 3899TIP3    H133112   1.192   3.038  11.994 -1.6018  1.3180  0.5024
 3899TIP3    H233113   1.159   2.908  12.065 -0.4738  1.3966  1.1955
 3900TIP3   OH233114   5.324   3.213  11.594 -0.3502 -0.0706 -0.5349
 3900TIP3    H133115   5.406   3.178  11.559 -0.2911 -0.2985 -0.1835
 3900TIP3    H233116   5.323   3.304  11.566  0.9554  0.4867  1.0137
 3901TIP3   OH233117   4.940   5.764  10.742  0.4017 -0.7590 -0.3023
 3901TIP3    H133118   4.940   5.799  10.831  0.1890 -0.3004 -0.4767
 3901TIP3    H233119   4.931   5.669  10.753  1.9170 -0.8664  0.2048
 3902TIP3   OH233120   3.605   4.306  11.432  0.1930 -0.0298  0.0082
 3902TIP3    H133121   3.615   4.212  11.448  0.1444 -0.5081 -2.3789
 3902TIP3    H233122   3.537   4.311  11.364 -1.3937  1.9030  1.6159
 3903TIP3   OH233123   3.957   6.412   2.638  0.2901  0.0293  0.0456
 3903TIP3    H133124   3.886   6.456   2.685 -0.1511 -0.1852 -0.4197
 3903TIP3    H233125   3.918   6.330   2.607  0.6167  0.1070 -0.5788
 3904TIP3   OH233126   6.163   4.817   4.270  0.0020 -0.0854 -0.1062
 3904TIP3    H133127   6.206   4.843   4.188  0.8679 -0.1109  0.3307
 3904TIP3    H233128   6.157   4.897   4.321 -0.5795 -0.0615 -0.2091
 3905TIP3   OH233129   4.680   0.853   5.197 -0.2962 -0.0253 -0.2054
 3905TIP3    H133130   4.644   0.892   5.276 -0.2523 -0.2719 -0.0625
 3905TIP3    H233131   4.667   0.919   5.129  0.7851  0.6941  0.2642
 3906TIP3   OH233132   1.991   0.909  17.039 -0.5668  0.1590  0.3008
 3906TIP3    H133133   1.967   0.865  16.958  1.3647 -1.8093  0.6849
 3906TIP3    H233134   1.922   0.884  17.101 -0.7487 -0.3997 -0.1143
 3907TIP3   OH233135   5.270   1.928   5.194  0.5966 -0.4865  0.2559
 3907TIP3    H133136   5.324   2.000   5.162 -1.5320  0.4137 -1.5209
 3907TIP3    H233137   5.216   1.902   5.120  0.5475 -3.2768  1.1325
 3908TIP3   OH233138   3.986   0.999   4.654  0.2756 -0.3838 -0.2328
 3908TIP3    H133139   3.932   0.983   4.731  0.6024  2.3528  0.6634
 3908TIP3    H233140   3.943   0.949   4.584 -2.6563  0.5576  0.7464
 3909TIP3   OH233141   0.655   4.925   2.147  0.3404 -0.6215 -0.0377
 3909TIP3    H133142   0.656   5.008   2.099  0.1675 -1.0671 -0.8344
 3909TIP3    H233143   0.610   4.864   2.088 -0.1632 -1.1118  0.8304
 3910TIP3   OH233144   2.455   1.332  13.476 -0.4114 -0.0431 -0.2074
 3910TIP3    H133145   2.432   1.421  13.503  0.4925  0.8497 -2.1985
 3910TIP3    H233146   2.400   1.316  13.399  1.7600  0.1390 -1.8998
 3911TIP3   OH233147   6.613   1.575  15.895  0.7476  0.7009  0.3199
 3911TIP3    H133148   6.704   1.558  15.869  0.1408  0.6371 -1.9115
 3911TIP3    H233149   6.582   1.491  15.929  1.4058  0.6432  0.8117
 3912TIP3   OH233150   1.699   6.217  16.080  0.0200  0.2972  0.2891
 3912TIP3    H133151   1.743   6.302  16.087  1.3040 -0.2440 -0.8078
 3912TIP3    H233152   1.737   6.165  16.151  1.7279 -0.3784 -1.0518
 3913TIP3   OH233153   6.332   6.450   1.957  0.0563  0.5432  0.1146
 3913TIP3    H133154   6.254   6.438   1.904  1.2589 -2.2235 -1.2171
 3913TIP3    H233155   6.318   6.395   2.034  0.5659  0.2503  0.0043
 3914TIP3   OH233156   1.124   1.668   3.299  0.1771  0.0471  0.7056
 3914TIP3    H133157   1.193   1.644   3.238 -0.6927  1.8096 -1.0784
 3914TIP3    H233158   1.164   1.656   3.386  2.0574 -0.8101 -0.2169
 3915TIP3   OH233159   0.545   5.088   3.270 -0.2440  0.1047 -0.3695
 3915TIP3    H133160   0.555   5.168   3.218  1.2938 -0.2273 -0.6328
 3915TIP3    H233161   0.581   5.019   3.214 -1.3726 -0.7660 -0.0627
 3916TIP3   OH233162   1.365   1.529   2.508 -0.6874  0.3115 -0.7227
 3916TIP3    H133163   1.377   1.438   2.536  4.2412  0.9732  0.3808
 3916TIP3    H233164   1.405   1.532   2.421  0.3559  1.5776 -0.2275
 3917TIP3   OH233165   3.661   0.281   2.798  0.4182 -0.4196 -0.0955
 3917TIP3    H133166   3.725   0.212   2.783  0.3108 -0.5411  0.0008
 3917TIP3    H233167   3.701   0.337   2.864 -0.1027 -1.1953  0.9054
 3918TIP3   OH233168   5.877   4.352  13.958  0.2103  0.2159 -0.4021
 3918TIP3    H133169   5.785   4.364  13.982  0.1292 -2.0568  0.6889
 3918TIP3    H233170   5.924   4.352  14.042  0.9369 -0.5871 -0.7899
 3919TIP3   OH233171   6.003   4.341  14.187 -0.3026  0.2104  0.1527
 3919TIP3    H133172   5.951   4.310  14.261 -1.3673 -0.4315 -0.8374
 3919TIP3    H233173   6.089   4.361  14.225 -0.6481 -0.6415  1.4515
 3920TIP3   OH233174   6.551   2.150   5.456  0.0798  0.2333  0.2418
 3920TIP3    H133175   6.545   2.057   5.479  0.2639 -0.0095 -0.6438
 3920TIP3    H233176   6.462   2.174   5.429  0.2215  0.0704 -0.3886
 3921TIP3   OH233177   2.085   3.550  12.324 -0.8442  0.5298 -0.1728
 3921TIP3    H133178   2.114   3.612  12.390  0.1110 -0.0102 -0.0641
 3921TIP3    H233179   2.163   3.533  12.271 -1.3614  0.2404 -0.8640
 3922TIP3   OH233180   0.405   6.704   5.076 -0.3622  0.0486 -0.5632
 3922TIP3    H133181   0.453   6.765   5.132 -2.5781  1.7126 -0.3132
 3922TIP3    H233182   0.438   6.720   4.988  0.7779 -0.1635 -0.1849
 3923TIP3   OH233183   0.581   6.090   2.195 -0.2621  0.6645  0.7677
 3923TIP3    H133184   0.676   6.103   2.194 -0.0505 -0.6847 -0.1013
 3923TIP3    H233185   0.562   6.053   2.109 -0.7931 -3.7729  2.5280
 3924TIP3   OH233186   0.913   2.831   6.326  0.3179 -0.1081  0.8508
 3924TIP3    H133187   0.837   2.785   6.292  1.2494 -2.9706  2.2687
 3924TIP3    H233188   0.979   2.762   6.339  1.8246  1.6082  3.2407
 3925TIP3   OH233189   6.259   3.064   0.743 -0.1604  0.0212  0.1118
 3925TIP3    H133190   6.318   3.109   0.804 -0.3999 -0.2745  0.5629
 3925TIP3    H233191   6.260   2.973   0.771 -1.9834  0.2493  1.0850
 3926TIP3   OH233192   4.843   3.137  13.728 -0.1485 -0.3539 -0.2572
 3926TIP3    H133193   4.931   3.149  13.692 -0.2875  1.2972 -0.0961
 3926TIP3    H233194   4.794   3.097  13.657 -0.0066  1.3944 -1.3961
 3927TIP3   OH233195   5.342   3.370  14.870 -0.7978  0.1700  0.9586
 3927TIP3    H133196   5.331   3.392  14.962  0.7063  0.3787  1.1184
 3927TIP3    H233197   5.272   3.419  14.825 -1.8355 -0.3047  2.0050
 3928TIP3   OH233198   4.439   1.514   5.882  0.2117  0.1568  0.0204
 3928TIP3    H133199   4.487   1.530   5.963 -1.5145  1.2140  0.9055
 3928TIP3    H233200   4.441   1.597   5.835  1.6939 -0.6039 -1.3616
 3929TIP3   OH233201   0.701   4.266  13.896  0.0015  0.2444 -0.0075
 3929TIP3    H133202   0.764   4.264  13.969 -0.8574  1.0290  0.7723
 3929TIP3    H233203   0.753   4.241  13.820  0.6366 -1.9369  1.0592
 3930TIP3   OH233204   3.498   2.209  14.624  0.4631 -0.2543  0.2874
 3930TIP3    H133205   3.576   2.167  14.588  1.2102  0.2529  1.2797
 3930TIP3    H233206   3.531   2.266  14.693 -0.4189  2.5508 -1.4397
 3931TIP3   OH233207   2.635   1.823  14.401 -0.6622 -0.6216 -0.0657
 3931TIP3    H133208   2.605   1.902  14.446 -1.0352 -0.5247 -0.4736
 3931TIP3    H233209   2.726   1.812  14.429 -0.1554  0.7474 -1.0554
 3932TIP3   OH233210   1.159   6.298  12.938 -0.7323  0.0457 -0.4498
 3932TIP3    H133211   1.250   6.270  12.925 -0.6435 -0.4547  1.1102
 3932TIP3    H233212   1.109   6.217  12.942 -0.9992  0.2439  0.4064
 3933TIP3   OH233213   1.671   3.364  16.408  0.1918 -0.0462 -0.0285
 3933TIP3    H133214   1.643   3.295  16.467  1.8280 -0.4526  0.3233
 3933TIP3    H233215   1.765   3.349  16.396  0.2953  1.2489 -1.1011
 3934TIP3   OH233216   4.658   3.601  16.319 -0.4356  0.1069  0.6449
 3934TIP3    H133217   4.565   3.594  16.300 -0.2288 -1.1691 -0.0548
 3934TIP3    H233218   4.687   3.680  16.274 -0.4832 -1.4586 -2.3730
 3935TIP3   OH233219   5.877   6.050  16.699  0.1903 -0.7317 -0.0211
 3935TIP3    H133220   5.852   6.101  16.622  0.5100  0.6926  0.7795
 3935TIP3    H233221   5.809   6.070  16.764 -1.0862 -3.3031 -0.4314
 3936TIP3   OH233222   4.182   4.552   1.695 -0.0619 -0.4888 -0.2458
 3936TIP3    H133223   4.111   4.583   1.638  0.6684 -0.8312 -1.3876
 3936TIP3    H233224   4.262   4.577   1.648  0.5972  0.3809  1.2820
 3937TIP3   OH233225   3.432   1.824  16.188 -0.3057  0.3622 -0.1815
 3937TIP3    H133226   3.412   1.785  16.273 -1.0604  0.4353 -0.3184
 3937TIP3    H233227   3.449   1.916  16.207  0.1402  0.2554 -0.0368
 3938TIP3   OH233228   0.272   2.918  11.646 -0.2131  0.6716  0.4590
 3938TIP3    H133229   0.281   2.996  11.590 -5.2347  0.9468 -0.4473
 3938TIP3    H233230   0.251   2.953  11.732  0.5004  0.2678  0.8001
 3939TIP3   OH233231   6.156   3.103  11.566  0.2660  0.3489  0.0412
 3939TIP3    H133232   6.114   3.128  11.483 -0.5623 -2.0704 -0.3534
 3939TIP3    H233233   6.086   3.112  11.631 -0.1842 -1.1860 -0.1812
 3940TIP3   OH233234   0.830   2.691   5.068 -0.0023 -0.5087  0.0228
 3940TIP3    H133235   0.766   2.688   5.138 -0.4360 -1.0645 -0.3917
 3940TIP3    H233236   0.812   2.773   5.022  0.4781  0.0111  0.7198
 3941TIP3   OH233237   6.211   5.793   3.028 -0.0861 -0.3774  0.3886
 3941TIP3    H133238   6.163   5.875   3.021  1.4111  0.4428 -0.9769
 3941TIP3    H233239   6.174   5.737   2.960  0.7381  0.2075 -0.5749
 3942TIP3   OH233240   0.652   3.109  11.457  0.4657  0.1503 -0.8355
 3942TIP3    H133241   0.688   3.029  11.418  0.5400  0.6773 -1.8625
 3942TIP3    H233242   0.631   3.165  11.383  2.3848  1.9562 -0.1087
 3943TIP3   OH233243   2.048   3.435  13.432 -0.5293  0.4265  0.6583
 3943TIP3    H133244   1.981   3.493  13.468 -1.6390 -0.8425  0.7713
 3943TIP3    H233245   1.998   3.360  13.399  0.9348 -1.1638  1.8784
 3944TIP3   OH233246   3.527   2.330   2.802 -0.4357  0.0426  0.3392
 3944TIP3    H133247   3.595   2.294   2.859  0.3584  0.8722 -0.0493
 3944TIP3    H233248   3.555   2.303   2.714 -0.1173  1.1379  0.0964
 3945TIP3   OH233249   4.661   5.647  14.841 -0.2160  0.7361 -0.0783
 3945TIP3    H133250   4.566   5.646  14.848 -0.1898 -1.0052  0.5932
 3945TIP3    H233251   4.691   5.601  14.920  1.2170  1.8382  0.0656
 3946TIP3   OH233252   6.415   5.588   3.720  0.3717 -0.3022  0.1947
 3946TIP3    H133253   6.506   5.586   3.748  0.1219  0.0237  1.0691
 3946TIP3    H233254   6.404   5.672   3.677  0.9068 -1.0402 -1.4855
 3947TIP3   OH233255   5.757   6.490  13.009 -0.6149 -0.0713  0.5425
 3947TIP3    H133256   5.742   6.537  13.091 -2.2774  0.2552  0.0895
 3947TIP3    H233257   5.802   6.554  12.953 -0.4470  0.0683  0.8353
 3948TIP3   OH233258   1.257   0.037  13.391 -0.5032 -0.0834  0.0307
 3948TIP3    H133259   1.291   0.011  13.306 -1.2993  0.5554 -0.5036
 3948TIP3    H233260   1.201  -0.036  13.418 -1.0992  0.1697 -0.5007
 3949TIP3   OH233261   6.540   4.769   0.153 -0.2558 -0.8749  0.0172
 3949TIP3    H133262   6.576   4.681   0.164  0.6463 -0.6542 -0.9967
 3949TIP3    H233263   6.551   4.811   0.238  0.1214 -1.4521  0.2586
 3950TIP3   OH233264   0.591   3.085  15.594 -0.7922 -0.7178 -0.6090
 3950TIP3    H133265   0.615   2.998  15.562  0.3062 -1.0661  1.0464
 3950TIP3    H233266   0.500   3.096  15.567 -0.6076 -1.9008 -1.8241
 3951TIP3   OH233267   0.305   3.741   6.751  0.4300  0.0505 -0.2848
 3951TIP3    H133268   0.281   3.649   6.743  1.7768 -0.4129  0.5702
 3951TIP3    H233269   0.390   3.748   6.706  0.4254  0.8392 -0.1975
 3952TIP3   OH233270   0.580   0.295  13.640  0.2313  0.2016  0.0367
 3952TIP3    H133271   0.638   0.321  13.711  1.1246  0.2440 -0.6870
 3952TIP3    H233272   0.623   0.329  13.561 -0.0268 -1.0179 -0.6467
 3953TIP3   OH233273   6.424   4.836  14.874  0.4707 -0.4087  0.0617
 3953TIP3    H133274   6.512   4.802  14.889 -0.3276 -2.2021  0.9025
 3953TIP3    H233275   6.393   4.789  14.797  0.3361  0.4481 -0.4229
 3954TIP3   OH233276   4.749   2.657   1.499  0.2421 -0.1685 -0.0370
 3954TIP3    H133277   4.669   2.679   1.451  0.5274  0.3712 -0.2687
 3954TIP3    H233278   4.795   2.595   1.443  0.1662 -0.1940 -0.0710
 3955TIP3   OH233279   1.681   4.100   2.744  0.3281  0.3071  0.0857
 3955TIP3    H133280   1.680   4.051   2.661 -0.0091  1.9014 -0.8915
 3955TIP3    H233281   1.598   4.077   2.787  0.3179 -0.2140 -0.2039
 3956TIP3   OH233282   5.837   3.516  14.672 -0.1946 -0.2528 -0.2013
 3956TIP3    H133283   5.918   3.498  14.625 -0.5799 -0.3005 -0.8659
 3956TIP3    H233284   5.790   3.577  14.615 -0.3662  0.2308  0.4555
 3957TIP3   OH233285   2.717   5.876  12.318  0.6064  0.0482 -0.6596
 3957TIP3    H133286   2.666   5.820  12.376  0.9534 -0.2662 -0.6478
 3957TIP3    H233287   2.656   5.902  12.249  0.9358 -2.0602 -1.8376
 3958TIP3   OH233288   5.386   6.339  13.002  0.2733 -0.0096  0.3650
 3958TIP3    H133289   5.434   6.325  12.921 -1.4685 -0.2590 -0.6831
 3958TIP3    H233290   5.346   6.425  12.991 -1.1586 -0.6473  0.2767
 3959TIP3   OH233291   6.737   6.599  11.804 -0.7920 -0.7016  0.5404
 3959TIP3    H133292   6.675   6.670  11.819 -0.7948 -0.6153  0.1062
 3959TIP3    H233293   6.700   6.524  11.851 -2.8597 -1.5643 -2.2074
 3960TIP3   OH233294   5.218   4.914  13.284 -0.1946  0.0339  0.0186
 3960TIP3    H133295   5.259   4.955  13.360 -1.0135 -0.3520  0.6853
 3960TIP3    H233296   5.156   4.979  13.252  0.5665  0.4253 -0.6914
 3961TIP3   OH233297   1.754   2.122  13.206  0.2252  0.0148 -0.6047
 3961TIP3    H133298   1.809   2.188  13.249  0.6795 -0.7220 -0.0074
 3961TIP3    H233299   1.775   2.129  13.113  1.5650 -0.4378 -0.3578
 3962TIP3   OH233300   5.892   3.152  12.202  0.3922 -0.2566 -0.1513
 3962TIP3    H133301   5.959   3.166  12.135  1.7060  0.3049  1.2332
 3962TIP3    H233302   5.878   3.239  12.240 -0.6380 -0.4930  0.0373
 3963TIP3   OH233303   3.268   0.025   3.957 -0.4843  0.2699  0.0743
 3963TIP3    H133304   3.223  -0.059   3.949 -1.0150  0.5856 -0.3514
 3963TIP3    H233305   3.267   0.044   4.051  0.6208 -0.7166  0.3029
 3964TIP3   OH233306   3.048   2.974   3.637 -0.8092 -0.1715  0.2328
 3964TIP3    H133307   3.115   2.980   3.569  1.3996  0.7014  2.3296
 3964TIP3    H233308   2.984   3.041   3.614 -0.6937 -0.6126 -1.5032
 3965TIP3   OH233309   3.248   4.769  14.417  0.1077 -0.0089  0.4350
 3965TIP3    H133310   3.299   4.814  14.485  1.2669  0.2340 -0.5556
 3965TIP3    H233311   3.284   4.802  14.335  0.6842 -2.3760 -0.3374
 3966TIP3   OH233312   1.633   0.784  14.776  0.6203 -0.2588 -0.0837
 3966TIP3    H133313   1.574   0.762  14.848  2.2401 -2.1253  0.7613
 3966TIP3    H233314   1.657   0.876  14.792 -1.5598  0.3815 -0.1616
 3967TIP3   OH233315   0.773   0.864  12.898 -0.1057  0.6873  0.3203
 3967TIP3    H133316   0.821   0.781  12.898  1.7202  1.6526 -1.9075
 3967TIP3    H233317   0.702   0.850  12.835 -0.4267  0.5375  0.7033
 3968TIP3   OH233318   3.279   1.010  10.588  0.4094  0.6016 -0.0885
 3968TIP3    H133319   3.357   0.964  10.556  0.8606  1.1580  0.1955
 3968TIP3    H233320   3.210   0.985  10.527  0.7885  0.0305 -0.2948
 3969TIP3   OH233321   0.371   4.792   0.791 -0.2567 -0.0531 -0.4175
 3969TIP3    H133322   0.288   4.746   0.802  0.1737 -0.4669  1.6687
 3969TIP3    H233323   0.360   4.875   0.838  0.0617  0.5174 -1.3237
 3970TIP3   OH233324   2.068   4.648   0.014 -0.4157  0.0106 -0.5446
 3970TIP3    H133325   1.988   4.681  -0.027 -0.5147 -0.2349 -0.5528
 3970TIP3    H233326   2.138   4.676  -0.045 -0.4378  0.7140 -0.2420
 3971TIP3   OH233327   4.943   6.256  14.571 -0.4860  0.4248  0.2034
 3971TIP3    H133328   4.872   6.191  14.569 -0.4507  0.3988 -0.3974
 3971TIP3    H233329   5.012   6.214  14.623 -0.6506  0.1803  0.2299
 3972TIP3   OH233330   1.519   6.513  16.897  0.2288 -0.2129  0.4212
 3972TIP3    H133331   1.457   6.506  16.970 -1.6093 -0.5429 -1.0917
 3972TIP3    H233332   1.515   6.605  16.872  0.6946 -0.1470  0.5757
 3973TIP3   OH233333   1.461   2.847   0.477  0.6157  0.0201 -0.3956
 3973TIP3    H133334   1.379   2.825   0.521  0.8378  0.9857  0.5499
 3973TIP3    H233335   1.434   2.890   0.396  0.1786  0.3453 -0.0839
 3974TIP3   OH233336   6.087   3.549  14.032 -0.1905  0.1737  0.1315
 3974TIP3    H133337   6.102   3.633  13.988 -1.0204 -0.6111 -1.7593
 3974TIP3    H233338   5.993   3.550  14.053 -0.3462 -0.5139 -0.4857
 3975TIP3   OH233339   1.786   0.417  16.775  0.3410  0.4178 -0.3619
 3975TIP3    H133340   1.816   0.501  16.811  1.4829 -0.4058  0.7142
 3975TIP3    H233341   1.866   0.376  16.742 -0.0949 -0.5366 -0.2506
 3976TIP3   OH233342   2.082   6.554  12.465 -0.0584 -0.0619  0.1006
 3976TIP3    H133343   2.143   6.588  12.531  0.4770  0.0676 -0.4576
 3976TIP3    H233344   2.068   6.627  12.405 -1.3862  0.1655  0.6481
 3977TIP3   OH233345   6.693   3.169   3.240 -0.6578  0.0721  0.0062
 3977TIP3    H133346   6.605   3.136   3.262 -0.8951  1.3441  1.0745
 3977TIP3    H233347   6.740   3.167   3.323 -0.0563  0.5408 -0.3197
 3978TIP3   OH233348   2.325   1.239   4.151 -0.4026 -0.1185  0.1033
 3978TIP3    H133349   2.402   1.244   4.207  0.5457  0.3408 -1.2181
 3978TIP3    H233350   2.286   1.154   4.171 -0.1276  0.0552  1.4826
 3979TIP3   OH233351   2.046   6.645   1.196  1.0356  0.1853  0.6355
 3979TIP3    H133352   2.073   6.567   1.245  0.0184 -2.1938 -2.2651
 3979TIP3    H233353   2.107   6.648   1.122 -0.2218  0.8893 -0.4004
 3980TIP3   OH233354   4.130   5.147   5.970 -0.5284  0.8610 -0.1449
 3980TIP3    H133355   4.107   5.077   6.032  2.0644 -0.5992 -0.7072
 3980TIP3    H233356   4.127   5.105   5.884  1.9545  1.1332 -0.4177
 3981TIP3   OH233357   5.519   2.423   4.120  0.2633 -0.0218 -0.2153
 3981TIP3    H133358   5.538   2.343   4.072  0.0069  0.1705 -0.6512
 3981TIP3    H233359   5.479   2.394   4.202 -0.5996 -0.3251 -0.7301
 3982TIP3   OH233360   5.399   2.299   4.336 -0.1451 -0.5167  0.6051
 3982TIP3    H133361   5.370   2.379   4.381  0.0482 -0.1795  0.1373
 3982TIP3    H233362   5.388   2.230   4.401 -1.1068 -0.2450  0.7429
 3983TIP3   OH233363   3.465   5.502  12.439 -0.1704 -0.1929 -0.5828
 3983TIP3    H133364   3.531   5.569  12.456 -0.0589  0.0148 -1.7637
 3983TIP3    H233365   3.507   5.419  12.464 -0.2491  0.1413  0.7155
 3984TIP3   OH233366   6.270   4.968  16.970  0.0576 -0.2550 -0.3041
 3984TIP3    H133367   6.308   4.900  17.025 -0.1121  0.4820  0.7459
 3984TIP3    H233368   6.323   5.045  16.986 -1.8246  0.8113  1.2154
 3985TIP3   OH233369   6.491   3.924  10.561  0.1114 -0.2319  0.2966
 3985TIP3    H133370   6.501   3.997  10.500  0.0515  0.7455  1.4066
 3985TIP3    H233371   6.566   3.932  10.620  0.6155 -1.6488 -0.1026
 3986TIP3   OH233372   4.665   4.894  16.576 -0.2110 -0.1438  0.0467
 3986TIP3    H133373   4.748   4.866  16.536 -0.7550  0.4889 -1.6058
 3986TIP3    H233374   4.600   4.832  16.543 -0.4321 -0.6213  1.3178
 3987TIP3   OH233375   1.205   1.894  11.996 -0.2787 -0.3321 -0.2635
 3987TIP3    H133376   1.184   1.970  12.050 -0.8251 -0.1570 -0.7112
 3987TIP3    H233377   1.209   1.929  11.907  1.5806 -0.4241 -0.2488
 3988TIP3   OH233378   1.318   3.439  13.100 -0.0928 -0.7763  0.2767
 3988TIP3    H133379   1.264   3.499  13.152 -0.2906  0.6724 -1.5137
 3988TIP3    H233380   1.329   3.483  13.016  1.8218 -2.1740 -0.2740
 3989TIP3   OH233381   1.759   1.862   5.852 -0.4255  0.5539 -0.2332
 3989TIP3    H133382   1.737   1.790   5.792 -0.0665 -0.5363  0.9137
 3989TIP3    H233383   1.811   1.922   5.799  0.3230 -0.6405 -0.8925
 3990TIP3   OH233384   1.661   0.237   1.144 -0.7234  0.1089 -0.4121
 3990TIP3    H133385   1.569   0.259   1.125 -0.9266  2.7599  2.7586
 3990TIP3    H233386   1.709   0.265   1.066 -2.5435 -2.2550 -2.5822
 3991TIP3   OH233387   3.021   0.404   5.205 -0.1054 -0.0219 -0.1794
 3991TIP3    H133388   3.049   0.420   5.295  0.1779 -0.5259 -0.1777
 3991TIP3    H233389   3.044   0.484   5.158  1.1375 -0.3478 -0.1367
 3992TIP3   OH233390   3.829   1.587   4.216 -0.1768 -0.5093 -0.6899
 3992TIP3    H133391   3.849   1.641   4.140 -0.8150  0.0846 -0.4490
 3992TIP3    H233392   3.851   1.498   4.189 -0.6500 -0.3441 -1.6629
 3993TIP3   OH233393   6.532   6.687   1.666  0.1651  0.2148  0.3685
 3993TIP3    H133394   6.625   6.666   1.673  0.2966  0.9318  0.8868
 3993TIP3    H233395   6.514   6.740   1.743 -0.8652 -0.5602  0.6724
 3994TIP3   OH233396   6.221   5.545   1.895  0.3675 -0.6447 -0.2427
 3994TIP3    H133397   6.289   5.554   1.828 -0.2189 -0.6551 -0.8586
 3994TIP3    H233398   6.217   5.631   1.937 -1.6878  0.5685 -2.6383
 3995TIP3   OH233399   3.314   5.753  17.138 -0.4425  0.3477  0.4243
 3995TIP3    H133400   3.224   5.783  17.141 -1.8131 -3.2278  0.0826
 3995TIP3    H233401   3.339   5.760  17.046 -0.2058  1.6476  0.5716
 3996TIP3   OH233402   5.267   3.298  11.244  0.2475  0.1463  0.2202
 3996TIP3    H133403   5.319   3.372  11.273  0.4743  0.1508 -0.1826
 3996TIP3    H233404   5.331   3.229  11.227 -0.0456 -0.4897  1.5937
 3997TIP3   OH233405   3.247   2.568  16.017  0.4689  0.1934 -0.1526
 3997TIP3    H133406   3.207   2.648  15.983  0.8972  1.8344  2.8868
 3997TIP3    H233407   3.328   2.559  15.966  0.3257  1.5827 -0.6555
 3998TIP3   OH233408   6.331   5.447  13.642  0.2929  1.0123  0.2113
 3998TIP3    H133409   6.407   5.415  13.594  1.0685  0.0304  1.9940
 3998TIP3    H233410   6.354   5.537  13.667 -0.4748  1.8641 -1.8671
 3999TIP3   OH233411   2.017   6.512  11.951 -0.2400  0.2962 -0.5989
 3999TIP3    H133412   2.036   6.534  12.042  0.6228  3.0119 -1.3543
 3999TIP3    H233413   2.076   6.440  11.930  2.2966  2.1067 -0.0436
 4000TIP3   OH233414   4.986   0.026  11.668  0.8577 -0.0968  0.0303
 4000TIP3    H133415   5.076   0.039  11.637  0.9642  0.1265  0.4388
 4000TIP3    H233416   4.970  -0.067  11.652  0.7256  0.1097 -1.1881
 4001TIP3   OH233417   1.282   6.478   2.276 -0.1805 -0.1681  0.3005
 4001TIP3    H133418   1.341   6.404   2.284 -0.3764 -0.2087  1.4602
 4001TIP3    H233419   1.276   6.514   2.364 -1.3688  0.2334  0.0713
 4002TIP3   OH233420   6.683   0.134   1.538 -0.2974 -0.2340 -1.1730
 4002TIP3    H133421   6.777   0.152   1.535 -0.1431 -0.6720  0.3830
 4002TIP3    H233422   6.676   0.054   1.590 -1.6574  0.8298  0.3542
 4003TIP3   OH233423   4.643   3.570  15.240  0.2863  0.2366  0.4274
 4003TIP3    H133424   4.548   3.566  15.240  0.2882 -0.5198 -1.1892
 4003TIP3    H233425   4.666   3.596  15.330 -1.3467 -1.4229  1.4011
 4004TIP3   OH233426   0.673   5.514  13.414 -0.1129 -0.3391 -0.0119
 4004TIP3    H133427   0.621   5.581  13.458  0.5250  0.7379 -0.8331
 4004TIP3    H233428   0.732   5.564  13.357  1.8824 -1.4779  0.9475
 4005TIP3   OH233429   1.852   2.303  16.316 -0.1472  0.3092  0.2172
 4005TIP3    H133430   1.833   2.382  16.265  0.2433 -0.0557 -0.4994
 4005TIP3    H233431   1.864   2.234  16.251 -0.7050 -0.3989  0.8494
 4006TIP3   OH233432   5.421   6.640   1.413 -0.1070 -0.4981  0.4407
 4006TIP3    H133433   5.491   6.671   1.470 -0.0887 -0.1860  0.2524
 4006TIP3    H233434   5.354   6.606   1.472 -0.0764 -0.2017  0.6417
 4007TIP3   OH233435   3.114   0.813   5.209  0.5116  0.1437 -0.2065
 4007TIP3    H133436   3.209   0.810   5.206  0.5305 -0.1857  0.6389
 4007TIP3    H233437   3.088   0.727   5.242 -0.1634 -0.3779 -1.9912
 4008TIP3   OH233438   1.601   0.180  15.726 -0.1336  0.1280  0.0240
 4008TIP3    H133439   1.560   0.102  15.690 -1.3636  1.3230 -1.2639
 4008TIP3    H233440   1.656   0.213  15.655  0.0855  0.6396  0.4284
 4009TIP3   OH233441   3.792   6.021  15.338  0.4029  0.0488  0.0219
 4009TIP3    H133442   3.843   5.942  15.321  1.3443  0.1627  1.9869
 4009TIP3    H233443   3.858   6.091  15.346 -0.3150  0.8013 -0.4907
 4010TIP3   OH233444   3.305   0.638   1.417  0.3912 -0.1140  0.3883
 4010TIP3    H133445   3.396   0.641   1.446  0.7983 -1.5762 -0.6565
 4010TIP3    H233446   3.295   0.716   1.362  1.5990 -0.9417 -1.0718
 4011TIP3   OH233447   6.480   1.351  12.497 -0.6420 -0.2138 -0.7489
 4011TIP3    H133448   6.555   1.398  12.533 -0.5461  1.0469 -2.4604
 4011TIP3    H233449   6.507   1.259  12.495  0.9497  0.2411 -1.5357
 4012TIP3   OH233450   4.226   5.104   1.159 -0.0570  0.1551  0.0688
 4012TIP3    H133451   4.305   5.051   1.146  0.5136  1.3733 -1.8635
 4012TIP3    H233452   4.169   5.080   1.085  0.6848  2.9333 -1.5420
 4013TIP3   OH233453   4.603   1.895  16.855  0.2534 -0.4085 -0.5266
 4013TIP3    H133454   4.622   1.982  16.890  2.7172 -1.0732  0.0152
 4013TIP3    H233455   4.547   1.854  16.921 -0.1743  0.4510 -0.3478
 4014TIP3   OH233456   3.985   1.500   2.271  0.2153 -1.0026 -0.0292
 4014TIP3    H133457   3.899   1.529   2.242  0.1835  0.0588  1.0400
 4014TIP3    H233458   4.042   1.574   2.256  0.2495 -0.4962  2.2205
 4015TIP3   OH233459   1.406   4.682  12.775  0.0934  0.8160  0.3402
 4015TIP3    H133460   1.389   4.609  12.835 -3.4803  0.2052 -1.1763
 4015TIP3    H233461   1.467   4.645  12.710 -2.0197 -1.1516 -0.6908
 4016TIP3   OH233462   4.246   4.230  16.083  0.2558  0.1019  0.4015
 4016TIP3    H133463   4.230   4.316  16.124 -0.0400 -0.1346  0.7911
 4016TIP3    H233464   4.338   4.233  16.058  0.1444  0.6839  0.0522
 4017TIP3   OH233465   5.564   0.210  10.519  0.4019 -0.0493  0.0507
 4017TIP3    H133466   5.646   0.202  10.472 -0.6139  1.7130 -2.1879
 4017TIP3    H233467   5.560   0.302  10.545 -0.1712 -0.4666  1.5827
 4018TIP3   OH233468   1.276   1.206   4.038  0.5669 -0.2420  0.3008
 4018TIP3    H133469   1.188   1.195   4.002  1.6061 -1.6837 -1.9928
 4018TIP3    H233470   1.263   1.207   4.133 -2.0270  0.9578  0.0121
 4019TIP3   OH233471   4.074   2.600  14.819  0.1260 -0.0499 -0.1964
 4019TIP3    H133472   4.096   2.509  14.838  0.8612  0.2037  0.1896
 4019TIP3    H233473   4.144   2.629  14.759  0.9943  0.8216  1.1927
 4020TIP3   OH233474   3.019   1.354  14.782 -0.5753 -0.1843 -0.2916
 4020TIP3    H133475   3.079   1.393  14.845  0.9707 -0.7475 -1.3349
 4020TIP3    H233476   2.934   1.354  14.825 -0.1798  2.1489  0.6220
 4021TIP3   OH233477   4.879   5.231  12.110 -0.2235  0.6149  0.0941
 4021TIP3    H133478   4.830   5.158  12.148  1.9592 -1.3463 -0.6323
 4021TIP3    H233479   4.884   5.211  12.016  0.2684  1.8050 -0.1546
 4022TIP3   OH233480   6.271   0.826   2.794  0.4127  0.0610 -0.8093
 4022TIP3    H133481   6.286   0.787   2.708 -0.3173 -1.4259 -0.2961
 4022TIP3    H233482   6.226   0.758   2.844  1.9997  0.3981  1.2064
 4023TIP3   OH233483   3.051   0.949   2.388 -0.1073 -0.5792  0.2584
 4023TIP3    H133484   3.015   0.866   2.358 -0.4822  0.1213 -1.3416
 4023TIP3    H233485   3.139   0.927   2.419  0.1893 -1.4231 -1.1119
 4024TIP3   OH233486   5.554   6.647  12.782 -0.3061  0.1258  0.2150
 4024TIP3    H133487   5.514   6.706  12.718  0.1679 -0.3843 -0.5665
 4024TIP3    H233488   5.643   6.680  12.794 -0.4007  0.2345  0.6390
 4025TIP3   OH233489   4.113   3.729   4.277  0.3212  0.4388  0.6329
 4025TIP3    H133490   4.124   3.655   4.338 -0.7404 -0.3473 -0.0912
 4025TIP3    H233491   4.018   3.737   4.267  0.4065  2.0880  0.8860
 4026TIP3   OH233492   3.598   1.685   1.415  0.0833 -0.0629  0.3599
 4026TIP3    H133493   3.554   1.620   1.360  1.5652 -0.3941 -0.5175
 4026TIP3    H233494   3.532   1.752   1.431 -0.4078  0.0922 -1.9466
 4027TIP3   OH233495   2.899   1.104  12.412 -0.6242 -0.2792 -0.4598
 4027TIP3    H133496   2.975   1.155  12.441 -0.0160 -0.9982 -0.7355
 4027TIP3    H233497   2.937   1.020  12.383 -1.6685 -1.1830  0.6875
 4028TIP3   OH233498   1.235   1.209   5.503 -0.5341 -0.3109 -0.1335
 4028TIP3    H133499   1.204   1.142   5.564 -0.3412  0.1520  0.4831
 4028TIP3    H233500   1.329   1.196   5.498 -0.5040 -0.1299 -0.0574
 4029TIP3   OH233501   1.454   6.253   2.292  0.2223 -0.1957 -0.5180
 4029TIP3    H133502   1.392   6.195   2.247  2.2783 -1.4729 -1.8899
 4029TIP3    H233503   1.460   6.218   2.381 -0.2970 -0.6388 -0.6521
 4030TIP3   OH233504   4.873   2.671   0.255  0.1647  0.5208  0.5389
 4030TIP3    H133505   4.778   2.665   0.251  0.1590  1.0110 -0.7454
 4030TIP3    H233506   4.894   2.746   0.199  1.4002 -0.7175 -0.7386
 4031TIP3   OH233507   2.295   1.218  11.498  0.1978 -0.0752 -0.0829
 4031TIP3    H133508   2.383   1.223  11.459  0.1847 -0.9183 -0.2408
 4031TIP3    H233509   2.237   1.200  11.425  0.2547 -2.3342  0.3632
 4032TIP3   OH233510   6.160   5.704   0.977 -0.0738  0.0590 -0.0375
 4032TIP3    H133511   6.187   5.748   0.896 -1.4844  1.8043  0.3924
 4032TIP3    H233512   6.216   5.742   1.045 -1.5013  1.5253  0.3838
 4033TIP3   OH233513   5.169   4.975  14.179  0.1952 -0.0773  0.3505
 4033TIP3    H133514   5.101   5.031  14.216  0.8364  0.3763  0.8672
 4033TIP3    H233515   5.223   4.951  14.254 -0.0158 -1.3366  0.1289
 4034TIP3   OH233516   1.992   0.323   3.192  0.0457  0.0292 -0.0215
 4034TIP3    H133517   1.966   0.331   3.284  1.2509 -1.7152  0.5339
 4034TIP3    H233518   2.073   0.374   3.186 -1.0937  1.8531 -0.6734
 4035TIP3   OH233519   2.813   1.732   2.176  0.1820 -0.0129  0.2604
 4035TIP3    H133520   2.730   1.692   2.203 -1.0195  1.3979 -1.1944
 4035TIP3    H233521   2.876   1.660   2.181 -2.0823 -2.6282 -3.4544
 4036TIP3   OH233522   6.767   4.437   4.743  0.2511 -0.0868 -0.3284
 4036TIP3    H133523   6.818   4.448   4.823  1.1645 -0.4998 -0.8379
 4036TIP3    H233524   6.817   4.485   4.676 -1.2375  1.5076 -0.3913
 4037TIP3   OH233525   3.464   5.117  16.507 -0.4815 -0.7772 -0.0453
 4037TIP3    H133526   3.515   5.044  16.472 -0.4192  0.3755 -2.5465
 4037TIP3    H233527   3.376   5.103  16.475 -0.7764 -0.4295  0.5865
 4038TIP3   OH233528   1.467   1.703   5.133  0.0598  0.0373 -0.1028
 4038TIP3    H133529   1.405   1.675   5.200 -0.8742 -1.1863 -1.4417
 4038TIP3    H233530   1.475   1.629   5.074 -2.5530  2.3800 -3.8488
 4039TIP3   OH233531   1.075   4.670  13.430  0.0106  0.7739  0.2482
 4039TIP3    H133532   1.011   4.738  13.410 -0.4772  0.2892  0.1333
 4039TIP3    H233533   1.076   4.615  13.351  3.0293  2.6243 -1.1985
 4040TIP3   OH233534   2.649   0.665   6.696 -0.3476  0.3387  0.2564
 4040TIP3    H133535   2.677   0.586   6.741 -0.3010  0.4456  0.4181
 4040TIP3    H233536   2.624   0.636   6.608 -2.3804 -0.1896  0.9593
 4041TIP3   OH233537   3.924   6.667  14.318 -0.4758  0.8274  0.1729
 4041TIP3    H133538   3.852   6.676  14.381  0.5430 -0.1153  1.4990
 4041TIP3    H233539   4.003   6.667  14.371  0.4915  1.0715 -1.2119
 4042TIP3   OH233540   1.281   3.085  10.769  0.1174  0.1593 -0.2811
 4042TIP3    H133541   1.201   3.033  10.775  0.3508 -0.0416  2.7899
 4042TIP3    H233542   1.251   3.176  10.769 -0.1683  0.0821  0.7975
 4043TIP3   OH233543   1.689   4.405   0.325  0.7841  0.0350  0.1825
 4043TIP3    H133544   1.688   4.462   0.248 -0.3125 -0.9645 -0.5758
 4043TIP3    H233545   1.763   4.347   0.312  0.1718 -0.6142 -0.5135
 4044TIP3   OH233546   3.214   4.247  13.304  0.1647 -0.5470  0.0117
 4044TIP3    H133547   3.291   4.247  13.247 -0.5976 -0.2587 -1.0737
 4044TIP3    H233548   3.183   4.338  13.302 -0.3223 -0.7052  0.2388
 4045TIP3   OH233549   2.910   2.272   0.380  0.1951  0.3094  0.8440
 4045TIP3    H133550   2.982   2.335   0.378  0.1059  0.4224  1.1342
 4045TIP3    H233551   2.931   2.210   0.311  0.7034  0.2019  1.0850
 4046TIP3   OH233552   0.582   3.189   5.988  0.0540 -0.3107 -0.0427
 4046TIP3    H133553   0.613   3.100   6.003 -0.6456 -0.3890  1.0189
 4046TIP3    H233554   0.549   3.218   6.073  1.6873  1.5376  0.0320
 4047TIP3   OH233555   0.892   1.237   2.210 -0.2725 -0.3987  0.7420
 4047TIP3    H133556   0.891   1.263   2.302 -0.7591  0.6685  0.4502
 4047TIP3    H233557   0.806   1.264   2.176  0.8311  1.6278 -0.6476
 4048TIP3   OH233558   6.113   3.578  17.006  0.3008 -0.6224  0.1227
 4048TIP3    H133559   6.068   3.597  16.923  0.9207  0.0482 -0.0743
 4048TIP3    H233560   6.152   3.662  17.031  0.2545 -0.8579  1.0207
 4049TIP3   OH233561   2.930   2.978   5.763  0.2319 -0.1585 -0.1730
 4049TIP3    H133562   2.947   2.970   5.857 -0.3728  0.7846  0.0334
 4049TIP3    H233563   2.917   3.072   5.749 -0.4448 -0.3712 -1.0691
 4050TIP3   OH233564   0.345   5.171   3.805 -0.6194 -0.2924  0.1909
 4050TIP3    H133565   0.260   5.188   3.847  0.3351  0.9653  1.7180
 4050TIP3    H233566   0.361   5.248   3.751  0.0862  0.0671  0.8871
 4051TIP3   OH233567   4.725   4.236   0.641  0.7192  0.5180 -0.6639
 4051TIP3    H133568   4.654   4.218   0.703  1.7520 -1.2638  0.0548
 4051TIP3    H233569   4.680   4.250   0.557 -0.4930 -1.1727 -0.3582
 4052TIP3   OH233570   1.387   1.055   1.496 -0.4208 -0.3731 -0.2611
 4052TIP3    H133571   1.292   1.059   1.484 -0.5818 -0.8923  0.7071
 4052TIP3    H233572   1.406   0.961   1.498  0.0236 -0.2770  0.1221
 4053TIP3   OH233573   1.225   2.857   1.544  0.5787  0.0320 -0.1415
 4053TIP3    H133574   1.161   2.856   1.615 -0.6328 -1.1877 -1.1967
 4053TIP3    H233575   1.188   2.916   1.479  1.4719  0.7958  0.0210
 4054TIP3   OH233576   3.249   4.342   4.604  0.3033 -0.6034 -0.1327
 4054TIP3    H133577   3.275   4.340   4.512 -0.1506 -1.7262 -0.2403
 4054TIP3    H233578   3.241   4.436   4.623  1.8702 -0.2809 -0.8028
 4055TIP3   OH233579   5.703   5.080   1.538 -0.1968 -0.7072 -0.6653
 4055TIP3    H133580   5.674   5.073   1.629 -0.8511  0.8120 -0.7317
 4055TIP3    H233581   5.630   5.047   1.486  0.8495 -3.3044 -0.6382
 4056TIP3   OH233582   0.717   3.759   5.932  0.2008 -0.5905  0.2391
 4056TIP3    H133583   0.700   3.853   5.927 -2.0723 -0.9774 -0.2095
 4056TIP3    H233584   0.747   3.745   6.022 -0.1227  0.4659  0.5277
 4057TIP3   OH233585   4.652   0.649   1.990  0.3276 -0.4675 -0.1963
 4057TIP3    H133586   4.620   0.566   2.025  0.8384 -0.1893  0.9719
 4057TIP3    H233587   4.714   0.680   2.056  1.9199 -0.2983 -1.7148
 4058TIP3   OH233588   6.106   6.467   3.099  0.1139 -0.6698  0.1890
 4058TIP3    H133589   6.145   6.486   3.014 -1.4114  0.2699 -0.3429
 4058TIP3    H233590   6.164   6.509   3.162  2.1463 -2.7256 -0.2105
 4059TIP3   OH233591   5.906   6.472   5.543 -0.1065  0.1111 -0.2978
 4059TIP3    H133592   5.848   6.404   5.578 -1.3643  1.5699  0.5872
 4059TIP3    H233593   5.849   6.547   5.528  1.3784  1.2849 -0.3768
 4060TIP3   OH233594   6.478   2.580   3.332  0.3269  0.4873  0.1617
 4060TIP3    H133595   6.554   2.632   3.360  0.6129  0.2005 -0.0650
 4060TIP3    H233596   6.440   2.632   3.260  0.9927  0.0897 -0.5008
 4061TIP3   OH233597   6.084   5.210   0.523 -0.0500  0.5135 -0.1230
 4061TIP3    H133598   6.075   5.195   0.429 -0.4250  1.0326 -0.1768
 4061TIP3    H233599   6.171   5.249   0.533  0.3951 -0.4644 -0.1304
 4062TIP3   OH233600   4.683   6.312   0.949  0.0340 -0.3206 -0.5947
 4062TIP3    H133601   4.658   6.256   0.875 -3.5749 -1.3445  1.1901
 4062TIP3    H233602   4.778   6.320   0.941 -0.0414 -1.0263 -4.8166
 4063TIP3   OH233603   6.312   2.107  12.944  0.4531  0.3423 -0.1887
 4063TIP3    H133604   6.292   2.192  12.906  0.5360  0.4676  0.0454
 4063TIP3    H233605   6.363   2.062  12.877 -0.3448  0.1362 -0.6696
 4064TIP3   OH233606   6.646   5.893   4.976  0.2139 -0.1091  0.1774
 4064TIP3    H133607   6.591   5.965   4.945  0.3656 -0.1760 -0.2554
 4064TIP3    H233608   6.585   5.832   5.018  0.1284  0.4406  0.8785
 4065TIP3   OH233609   0.236   1.644   3.546  0.0618  0.4866 -0.1414
 4065TIP3    H133610   0.248   1.591   3.625 -0.0209 -0.4228 -0.7207
 4065TIP3    H233611   0.152   1.688   3.560  0.6588  1.3667  0.8360
 4066TIP3   OH233612   0.800   2.733  15.054  0.2728  0.1933 -0.3992
 4066TIP3    H133613   0.720   2.680  15.061  0.2081  0.5204  2.3053
 4066TIP3    H233614   0.871   2.669  15.064  0.2630  0.2173 -0.1568
 4067TIP3   OH233615   5.369   2.576   1.106 -0.0219  0.0813 -0.4302
 4067TIP3    H133616   5.375   2.648   1.169 -0.6549 -0.1986 -0.0390
 4067TIP3    H233617   5.444   2.520   1.127 -0.3221 -0.0983  0.2004
 4068TIP3   OH233618   3.492   1.824  13.616 -0.5915 -0.4162  0.5032
 4068TIP3    H133619   3.520   1.896  13.560 -3.5488  1.0378  0.7434
 4068TIP3    H233620   3.472   1.753  13.555  0.6994 -0.4954  0.1404
 4069TIP3   OH233621   5.515   4.660   1.583 -0.0091  0.0678 -0.5807
 4069TIP3    H133622   5.480   4.575   1.557 -0.7964  0.5220 -1.0410
 4069TIP3    H233623   5.572   4.641   1.658  0.6395 -0.9954 -1.3089
 4070TIP3   OH233624   5.770   3.187   4.196  0.1079 -0.0803 -0.0400
 4070TIP3    H133625   5.713   3.122   4.237  1.5244 -0.0810  2.0834
 4070TIP3    H233626   5.769   3.164   4.103 -2.3353 -0.7965  0.0925
 4071TIP3   OH233627   0.081   2.214  10.848 -0.5693 -0.4887 -0.3060
 4071TIP3    H133628  -0.011   2.225  10.871 -0.8247 -0.9638 -1.0670
 4071TIP3    H233629   0.084   2.230  10.753 -0.2973 -2.8953 -0.7574
 4072TIP3   OH233630   4.992   4.239  10.723  0.1819 -0.2166  0.4051
 4072TIP3    H133631   4.968   4.249  10.630  0.2225  1.3624  0.5362
 4072TIP3    H233632   5.069   4.295  10.734  0.2333 -0.4635  1.3695
 4073TIP3   OH233633   6.456   5.953  14.446 -0.3506 -0.3684 -0.2061
 4073TIP3    H133634   6.528   5.897  14.415  0.7471  1.0828 -0.3693
 4073TIP3    H233635   6.473   5.963  14.539  1.2326  2.0731 -0.6668
 4074TIP3   OH233636   2.959   3.861   3.748 -0.0871 -0.2294  0.1397
 4074TIP3    H133637   2.869   3.850   3.780 -0.1827 -2.5164 -0.6730
 4074TIP3    H233638   3.011   3.871   3.827 -0.6525 -2.8612  0.9731
 4075TIP3   OH233639   3.811   1.701   5.256 -0.0390 -0.1360  0.2791
 4075TIP3    H133640   3.844   1.674   5.171 -2.5294  1.0611 -1.1838
 4075TIP3    H233641   3.871   1.769   5.285  0.9831 -0.7353 -0.3621
 4076TIP3   OH233642   6.259   2.373  14.044 -0.3234  0.1867  0.6764
 4076TIP3    H133643   6.188   2.438  14.035 -0.4407 -0.0547 -0.2859
 4076TIP3    H233644   6.337   2.420  14.014 -0.3632 -0.0332  0.2244
 4077TIP3   OH233645   5.053   1.269   1.962 -0.0543  0.4075  0.0703
 4077TIP3    H133646   5.050   1.193   1.904 -0.1554  1.0966 -0.8542
 4077TIP3    H233647   4.965   1.307   1.957 -0.6004 -0.4892  2.0433
 4078TIP3   OH233648   0.127   5.970   0.298 -0.2559  0.3523  0.3704
 4078TIP3    H133649   0.160   6.052   0.336  2.1099 -1.7411  3.4118
 4078TIP3    H233650   0.162   5.969   0.209  1.5336  1.7281  0.9774
 4079TIP3   OH233651   1.344   6.378  11.967  0.1744 -0.3256 -0.1199
 4079TIP3    H133652   1.274   6.399  12.029  0.2619 -1.4336  0.3745
 4079TIP3    H233653   1.300   6.374  11.882 -0.0859  0.4407 -0.0258
 4080TIP3   OH233654   0.443   2.095   2.933 -0.1063  0.2594 -0.5145
 4080TIP3    H133655   0.535   2.072   2.950 -0.2543  0.3013  0.3923
 4080TIP3    H233656   0.439   2.190   2.947 -0.8701 -0.0931  2.5039
 4081TIP3   OH233657   1.100   2.280   4.977  0.4998 -0.2542 -0.4955
 4081TIP3    H133658   1.108   2.273   5.072  0.1421 -0.6680 -0.4898
 4081TIP3    H233659   1.044   2.356   4.964  1.3582  0.4059 -0.4154
 4082TIP3   OH233660   5.308   4.319   1.989 -0.0962  0.6321  0.5003
 4082TIP3    H133661   5.231   4.369   1.961 -1.0537 -1.0160  0.0477
 4082TIP3    H233662   5.281   4.279   2.072  0.2531 -0.0033  0.3091
 4083TIP3   OH233663   0.058   2.598   2.040 -0.5410  0.1909 -0.2142
 4083TIP3    H133664  -0.028   2.638   2.031 -0.9376  0.0306  2.0989
 4083TIP3    H233665   0.116   2.670   2.067 -0.7405 -0.2606  1.5836
 4084TIP3   OH233666   5.227   4.246   5.821  0.1664 -0.1030 -0.0142
 4084TIP3    H133667   5.271   4.321   5.781  0.6836  0.3989  1.4271
 4084TIP3    H233668   5.297   4.184   5.841 -0.0202 -0.1626  0.4832
 4085TIP3   OH233669   3.990   3.944   1.240  0.0957 -0.2299  0.5271
 4085TIP3    H133670   3.917   4.006   1.247  0.6684  0.6225 -0.7618
 4085TIP3    H233671   4.031   3.945   1.326 -1.5456 -0.9162  1.3578
 4086TIP3   OH233672   1.223   3.887  16.832 -0.2590 -0.2389  0.3913
 4086TIP3    H133673   1.274   3.808  16.813 -0.4001 -0.0161 -1.0331
 4086TIP3    H233674   1.283   3.959  16.814 -0.6468  0.0026  0.0405
 4087TIP3   OH233675   2.130   6.532   0.736  0.4427  0.2239  0.0290
 4087TIP3    H133676   2.085   6.532   0.651  0.7713  0.0140 -0.1469
 4087TIP3    H233677   2.158   6.623   0.747 -2.4041  1.0574  1.4293
 4088TIP3   OH233678   6.342   3.921  10.974 -0.1360 -0.9433 -0.5621
 4088TIP3    H133679   6.251   3.935  11.000  0.1963  1.1812 -0.3682
 4088TIP3    H233680   6.343   3.937  10.879  0.1194 -0.4549 -0.4787
 4089TIP3   OH233681   4.486   5.687  12.423  0.0180 -0.0867  0.4692
 4089TIP3    H133682   4.510   5.759  12.481  1.3927  2.0698 -2.5214
 4089TIP3    H233683   4.570   5.651  12.395 -0.3700  1.2174 -2.7274
 4090TIP3   OH233684   4.318   1.450  11.366 -0.2882  0.0763 -0.4381
 4090TIP3    H133685   4.348   1.400  11.290 -1.2815 -0.6150 -0.3992
 4090TIP3    H233686   4.313   1.540  11.336  1.5670  0.1930 -0.5056
 4091TIP3   OH233687   5.746   5.407  11.809 -0.1418 -0.4287 -0.2074
 4091TIP3    H133688   5.834   5.392  11.844 -0.1002 -1.9676 -0.8893
 4091TIP3    H233689   5.754   5.485  11.755  0.4497  0.3030  0.8902
 4092TIP3   OH233690   1.205   5.477   4.247 -0.1218  0.0082  0.4635
 4092TIP3    H133691   1.146   5.527   4.191  0.5094  1.4129  0.9928
 4092TIP3    H233692   1.196   5.517   4.333 -1.4335 -2.4271  1.5483
 4093TIP3   OH233693   5.213   3.586   0.069  0.3361  0.0917 -0.1802
 4093TIP3    H133694   5.213   3.674   0.030 -0.4088  0.3447  0.3528
 4093TIP3    H233695   5.272   3.535   0.014 -0.6555  0.4441 -1.6203
 4094TIP3   OH233696   5.458   5.700  15.083 -0.0879  0.0633  0.0507
 4094TIP3    H133697   5.426   5.785  15.113 -0.2803 -0.5193  1.5924
 4094TIP3    H233698   5.515   5.720  15.008  0.4114  1.6031  0.8096
 4095TIP3   OH233699   0.953   6.312   6.261 -0.6584  0.3164 -0.3735
 4095TIP3    H133700   1.004   6.233   6.278 -0.8922  0.1056 -0.6407
 4095TIP3    H233701   0.869   6.295   6.303  0.0066  1.3112  1.4602
 4096TIP3   OH233702   1.278   4.363  15.420  0.2200  0.0963 -0.6313
 4096TIP3    H133703   1.254   4.455  15.413  1.2467  0.4373  0.0572
 4096TIP3    H233704   1.323   4.357  15.505 -0.9659 -1.3011 -0.0690
 4097TIP3   OH233705   6.030   4.019   1.355  1.0419 -0.0665  0.3046
 4097TIP3    H133706   5.947   4.052   1.319 -0.7336 -3.0599  1.3012
 4097TIP3    H233707   6.084   4.098   1.365 -1.6846  2.0665 -0.3030
 4098TIP3   OH233708   3.802   4.591  11.412  0.5686  0.2753  0.3027
 4098TIP3    H133709   3.715   4.559  11.435  0.7969  1.2794  2.8568
 4098TIP3    H233710   3.849   4.512  11.382 -1.0076 -0.3617 -0.6230
 4099TIP3   OH233711   0.701   2.106   0.145 -0.3953 -0.2789 -0.0185
 4099TIP3    H133712   0.691   2.011   0.144 -0.0822 -0.3180  0.3434
 4099TIP3    H233713   0.614   2.139   0.123 -0.1480 -0.6569 -1.6301
 4100TIP3   OH233714   3.970   1.175  12.479 -0.0046  0.3112 -0.6376
 4100TIP3    H133715   4.018   1.195  12.399  0.6220  0.4142 -0.2452
 4100TIP3    H233716   3.886   1.140  12.449  0.5499 -0.4472 -1.3346
 4101TIP3   OH233717   0.383   4.054  17.117 -0.0563 -0.4120 -0.1446
 4101TIP3    H133718   0.471   4.016  17.115 -0.0956 -0.5169  0.1056
 4101TIP3    H233719   0.325   3.981  17.093 -0.1656 -0.6126  0.7047
 4102TIP3   OH233720   2.103   5.406  16.682 -0.0726 -0.3941  0.2938
 4102TIP3    H133721   2.107   5.414  16.586 -2.7308 -0.6692  0.0858
 4102TIP3    H233722   2.041   5.474  16.709 -0.1963 -1.0413  1.6919
 4103TIP3   OH233723   5.628   1.027  10.471  0.0827 -0.1367 -0.6119
 4103TIP3    H133724   5.616   1.122  10.475 -1.2104 -0.3065  0.4694
 4103TIP3    H233725   5.569   0.998  10.401 -0.6859 -0.2686  0.0673
 4104TIP3   OH233726   0.203   3.618  16.602  0.7190  0.1490 -0.2999
 4104TIP3    H133727   0.128   3.587  16.551  0.7458  1.3775 -1.1085
 4104TIP3    H233728   0.250   3.538  16.626 -0.8393 -0.6499  0.2386
 4105TIP3   OH233729   0.935   6.174  13.427  0.1645 -0.6743 -0.0475
 4105TIP3    H133730   0.953   6.231  13.352  0.5615 -0.5589  0.1367
 4105TIP3    H233731   0.945   6.231  13.503  0.8648 -1.0603  0.1531
 4106TIP3   OH233732   5.214   5.045   0.506  0.2739 -0.2261 -0.0314
 4106TIP3    H133733   5.175   5.069   0.422 -1.1393 -1.6090  0.1948
 4106TIP3    H233734   5.154   5.081   0.572  2.1835  2.2561  0.5122
 4107TIP3   OH233735   0.226   3.498   4.509  0.1150  0.4104  0.8305
 4107TIP3    H133736   0.308   3.529   4.547 -0.1687  2.4206 -0.0812
 4107TIP3    H233737   0.160   3.559   4.540 -0.7765 -0.2237  0.2470
 4108TIP3   OH233738   3.401   0.007  12.688  0.8227 -0.3559  0.2951
 4108TIP3    H133739   3.436   0.032  12.773  0.2352  0.3647  0.3379
 4108TIP3    H233740   3.470   0.030  12.626  0.1634  1.8210  0.2927
 4109TIP3   OH233741   2.201   2.654  14.365 -0.1689  0.3917 -0.4088
 4109TIP3    H133742   2.296   2.662  14.373 -0.2764  0.6898  0.6618
 4109TIP3    H233743   2.188   2.578  14.309  0.7142  1.0313 -1.5213
 4110TIP3   OH233744   5.809   6.562   1.263 -0.4354 -0.7471 -0.1910
 4110TIP3    H133745   5.761   6.642   1.242 -0.4665 -0.9505 -0.9259
 4110TIP3    H233746   5.886   6.592   1.311 -0.7972 -0.3365  0.1423
 4111TIP3   OH233747   4.600   0.050  11.394 -0.2953 -0.9248  0.1447
 4111TIP3    H133748   4.655  -0.027  11.409  1.1525 -0.2489 -1.3031
 4111TIP3    H233749   4.645   0.098  11.324 -1.6682  0.7471  0.3374
 4112TIP3   OH233750   6.068   5.347  10.375  0.0067  0.3787 -0.3930
 4112TIP3    H133751   6.115   5.377  10.297 -0.3748 -0.2287 -0.8653
 4112TIP3    H233752   6.108   5.264  10.398 -0.1072  0.3907 -0.1398
 4113TIP3   OH233753   0.387   6.707  16.145  0.0498 -0.2679  0.4883
 4113TIP3    H133754   0.422   6.795  16.159  2.3973 -1.0192 -0.2189
 4113TIP3    H233755   0.366   6.704  16.052  0.5486 -0.6262  0.3830
 4114TIP3   OH233756   1.297   4.994   2.152 -0.9151 -0.3222 -0.4449
 4114TIP3    H133757   1.208   5.030   2.159 -0.8535 -0.3683  0.7409
 4114TIP3    H233758   1.289   4.904   2.184 -0.2570  0.0059  0.7156
 4115TIP3   OH233759   2.233   2.613   1.994  0.2163  0.1567  0.0764
 4115TIP3    H133760   2.295   2.677   2.030 -2.2660  2.3075  0.8328
 4115TIP3    H233761   2.257   2.530   2.036  0.7106  1.5289  2.6908
 4116TIP3   OH233762   3.205   1.215  12.786  0.0047  0.2360 -0.3497
 4116TIP3    H133763   3.295   1.183  12.790  0.7239  2.1072 -0.7796
 4116TIP3    H233764   3.186   1.222  12.693 -0.7440 -0.5008 -0.2649
 4117TIP3   OH233765   6.300   2.394  12.975 -0.0161 -0.2258  0.1511
 4117TIP3    H133766   6.298   2.422  12.884 -0.9704  0.4806  0.3705
 4117TIP3    H233767   6.348   2.464  13.020 -2.6826  1.3640  0.7554
 4118TIP3   OH233768   3.825   1.827   0.936  0.0059 -0.9574  0.2439
 4118TIP3    H133769   3.758   1.882   0.894  0.5678  0.7387  1.4378
 4118TIP3    H233770   3.871   1.785   0.864  1.8236  2.8742 -1.0849
 4119TIP3   OH233771   2.170   5.706   2.254  0.1304  0.2418 -0.7305
 4119TIP3    H133772   2.258   5.708   2.216  1.0618  0.2701  1.2934
 4119TIP3    H233773   2.119   5.764   2.198  1.0986 -0.6347 -2.6093
 4120TIP3   OH233774   6.499   2.026   0.444  0.0793 -0.5535  0.1683
 4120TIP3    H133775   6.581   2.068   0.471  0.6842 -1.0636 -0.7934
 4120TIP3    H233776   6.498   1.942   0.491  0.5961 -0.9653 -0.5319
 4121TIP3   OH233777   6.322   2.014  14.768 -0.2042 -0.0558 -0.2481
 4121TIP3    H133778   6.272   2.077  14.820 -1.8636 -1.2652 -0.2837
 4121TIP3    H233779   6.408   2.054  14.757  0.0759  0.5180  2.9965
 4122TIP3   OH233780   3.577   4.311  14.745 -0.0044  0.1913 -0.4376
 4122TIP3    H133781   3.500   4.339  14.697 -0.1747 -1.0108 -0.9109
 4122TIP3    H233782   3.607   4.389  14.792 -2.0556  0.4718  0.5135
 4123TIP3   OH233783   0.761   5.089   2.489 -0.2785  0.0625 -0.3466
 4123TIP3    H133784   0.825   5.120   2.554 -1.5554  0.4894  0.7528
 4123TIP3    H233785   0.754   5.160   2.426 -1.2519  0.9521  0.7298
 4124TIP3   OH233786   5.550   5.719  13.161 -0.6791 -0.0728 -0.5774
 4124TIP3    H133787   5.615   5.720  13.231 -0.9742 -0.5737 -0.3010
 4124TIP3    H233788   5.500   5.640  13.175 -0.3896 -0.4724 -1.6778
 4125TIP3   OH233789   4.109   0.043   4.284 -0.4199  0.2947  0.3826
 4125TIP3    H133790   4.068  -0.043   4.275 -1.4678  0.9350 -1.5242
 4125TIP3    H233791   4.153   0.040   4.368 -0.0913 -2.2484  0.1877
 4126TIP3   OH233792   4.981   2.739   0.925  0.2540  0.4868 -0.3042
 4126TIP3    H133793   4.997   2.793   1.002  0.8152 -0.0443 -0.0378
 4126TIP3    H233794   4.974   2.650   0.959  0.6904  0.2222 -0.8785
 4127TIP3   OH233795   3.686   2.087   3.999 -0.7356 -0.8242  0.0573
 4127TIP3    H133796   3.648   2.015   4.048  0.8075  0.4665  3.4946
 4127TIP3    H233797   3.643   2.165   4.033  1.2464  0.2443  0.3210
 4128TIP3   OH233798   3.381   4.694  12.383 -0.5761 -0.0805 -0.7667
 4128TIP3    H133799   3.334   4.752  12.323 -1.6857  0.1507  0.2805
 4128TIP3    H233800   3.326   4.616  12.389  0.3866 -0.8179 -1.3589
 4129TIP3   OH233801   6.541   5.480  15.313 -1.1179 -0.1902  0.7490
 4129TIP3    H133802   6.533   5.513  15.402 -1.9679 -1.2029  1.0672
 4129TIP3    H233803   6.589   5.398  15.322 -2.7779 -1.2334  0.5322
 4130TIP3   OH233804   0.057   5.078   1.568 -0.2721  0.0347 -0.6916
 4130TIP3    H133805   0.146   5.056   1.541 -0.9095 -3.5487 -0.4208
 4130TIP3    H233806   0.069   5.132   1.646  1.6505  0.1399 -0.9977
 4131TIP3   OH233807   3.430   0.166  13.644  0.0163 -1.0348 -0.4393
 4131TIP3    H133808   3.425   0.254  13.681  0.7303 -0.5321 -1.4775
 4131TIP3    H233809   3.351   0.158  13.592  0.1944 -0.8036 -0.7503
 4132TIP3   OH233810   2.301   4.982   2.137  0.1745 -0.3643  0.2652
 4132TIP3    H133811   2.290   5.059   2.081  0.1679 -0.6444 -0.1226
 4132TIP3    H233812   2.294   4.908   2.077  3.4065 -0.6242  0.0372
 4133TIP3   OH233813   2.383   5.202   6.478 -0.0601  0.0117  0.0429
 4133TIP3    H133814   2.335   5.124   6.452  1.1789 -0.4280 -1.0495
 4133TIP3    H233815   2.453   5.169   6.535 -1.9138  0.8116  3.0291
 4134TIP3   OH233816   5.120   0.598  14.924  0.0385 -0.2475  0.4232
 4134TIP3    H133817   5.132   0.693  14.928 -1.0539 -0.1335  1.7057
 4134TIP3    H233818   5.198   0.562  14.966 -1.2685  0.2673  3.5714
 4135TIP3   OH233819   6.627   2.812   0.702  0.8588 -0.6157 -0.1915
 4135TIP3    H133820   6.667   2.843   0.783 -0.7421 -1.1969  0.8844
 4135TIP3    H233821   6.664   2.867   0.633 -0.5232  2.5360  1.3807
 4136TIP3   OH233822   2.911   1.904   0.754 -1.0532  0.3778  1.0108
 4136TIP3    H133823   2.820   1.911   0.723  0.2484  0.7814 -3.3039
 4136TIP3    H233824   2.921   1.811   0.776 -1.8186 -0.2960 -1.2138
 4137TIP3   OH233825   2.698   0.555  10.953  0.3490  0.1957  0.6495
 4137TIP3    H133826   2.787   0.590  10.961  0.0263  1.1176  0.3669
 4137TIP3    H233827   2.703   0.493  10.880  0.5068  1.1440 -0.1746
 4138TIP3   OH233828   2.914   4.414   3.283  0.8916 -0.4790 -0.1181
 4138TIP3    H133829   2.970   4.359   3.339 -0.2636 -1.5945 -0.0068
 4138TIP3    H233830   2.886   4.485   3.341  1.1382 -0.6374  0.2028
 4139TIP3   OH233831   3.956   5.222   2.131  0.0217 -0.2022  0.3627
 4139TIP3    H133832   3.884   5.254   2.077 -0.7856 -1.4530  0.6690
 4139TIP3    H233833   3.915   5.170   2.200  1.2352 -2.1300 -0.2610
 4140TIP3   OH233834   0.456   3.063   0.062  0.7002  0.6988 -0.1496
 4140TIP3    H133835   0.538   3.056   0.013  0.9048  1.7967  0.0059
 4140TIP3    H233836   0.465   3.144   0.112 -0.1317  0.3847  0.5364
 4141TIP3   OH233837   6.159   2.093   2.757 -0.4367  0.0918  0.1640
 4141TIP3    H133838   6.143   1.999   2.764 -4.7808  0.6935  1.7043
 4141TIP3    H233839   6.101   2.122   2.687  1.4110  1.6008 -0.8191
 4142TIP3   OH233840   0.675   6.749  15.273  0.4346 -0.4541 -0.3950
 4142TIP3    H133841   0.596   6.718  15.229 -0.2082 -0.1760  0.5139
 4142TIP3    H233842   0.656   6.840  15.294  0.5518 -0.6874  0.7883
 4143TIP3   OH233843   0.223   5.999  13.251 -0.8287  0.2319  0.2334
 4143TIP3    H133844   0.296   6.045  13.211 -1.9183  1.1911 -0.7242
 4143TIP3    H233845   0.178   5.956  13.178 -1.0694 -0.5830  0.8407
 4144TIP3   OH233846   3.917   5.864   4.014 -0.1890 -0.8712 -0.0233
 4144TIP3    H133847   3.956   5.883   3.928 -0.1936  0.1850  0.1995
 4144TIP3    H233848   3.990   5.829   4.065 -0.3028 -2.0111 -0.6046
 4145TIP3   OH233849   1.595   2.741   3.103  0.0050  0.0345 -0.2126
 4145TIP3    H133850   1.637   2.691   3.033  2.0802  0.2539  0.7767
 4145TIP3    H233851   1.503   2.745   3.078  0.5492 -0.4700 -2.5561
 4146TIP3   OH233852   3.222   2.354  12.726 -0.2734 -0.2109  0.1173
 4146TIP3    H133853   3.244   2.421  12.661 -0.1666  0.5987  0.9558
 4146TIP3    H233854   3.299   2.350  12.782 -0.4182 -0.8012  0.2727
 4147TIP3   OH233855   2.947   4.682   1.156  0.0765  0.1225 -0.2317
 4147TIP3    H133856   2.929   4.603   1.206 -1.7165  0.6752  0.0822
 4147TIP3    H233857   2.999   4.653   1.081 -0.2940 -1.2962  0.0376
 4148TIP3   OH233858   2.021   0.130   2.418  0.3291 -0.4681  0.2634
 4148TIP3    H133859   1.996   0.216   2.385 -0.9501 -0.6025  0.8346
 4148TIP3    H233860   2.035   0.143   2.512 -0.7146 -1.0503  0.5063
 4149TIP3   OH233861   0.541   1.429   5.507 -0.5561  0.6224  0.2542
 4149TIP3    H133862   0.480   1.478   5.563  0.6840  1.2257  1.1097
 4149TIP3    H233863   0.626   1.467   5.525 -0.0952  0.8425 -2.0774
 4150TIP3   OH233864   3.362   0.929  13.585 -0.1487 -0.1991  0.1438
 4150TIP3    H133865   3.324   0.976  13.510 -2.2937 -0.8860  0.7155
 4150TIP3    H233866   3.302   0.855  13.599  0.2893 -0.1799  2.4108
 4151TIP3   OH233867   1.837   1.716   0.153  0.3012  0.2061 -0.7010
 4151TIP3    H133868   1.878   1.746   0.072  1.2034  1.5251  0.2085
 4151TIP3    H233869   1.744   1.739   0.144  0.4246  0.4760 -1.2906
 4152TIP3   OH233870   4.319   2.834  16.859  0.3132 -0.1987  0.2901
 4152TIP3    H133871   4.339   2.741  16.848 -0.4621 -0.2356 -1.0860
 4152TIP3    H233872   4.286   2.862  16.773  0.8102  1.4279  0.5825
 4153TIP3   OH233873   4.622   4.803   0.565 -0.7553 -0.1152  0.4643
 4153TIP3    H133874   4.527   4.794   0.553 -0.6932  0.3807 -0.4045
 4153TIP3    H233875   4.641   4.748   0.641 -1.6896 -0.4815  0.4450
 4154TIP3   OH233876   2.997   2.287  15.394 -0.1206 -0.1943 -0.4620
 4154TIP3    H133877   2.991   2.210  15.450  0.1700  0.1325  0.0300
 4154TIP3    H233878   3.091   2.296  15.376  0.0841  1.1657  1.1023
 4155TIP3   OH233879   2.657   2.938  17.018  0.2368  0.3113 -0.3583
 4155TIP3    H133880   2.648   2.928  17.113  0.1434 -0.4249 -0.4398
 4155TIP3    H233881   2.729   3.001  17.008 -1.4571  2.4563  0.2218
 4156TIP3   OH233882   1.653   3.151   3.314  0.2847  0.4172 -0.3458
 4156TIP3    H133883   1.653   3.100   3.233  0.5983  2.9782 -2.0735
 4156TIP3    H233884   1.745   3.163   3.335  0.2110 -1.4589  1.2984
 4157TIP3   OH233885   4.064   4.837  13.481 -0.8626  0.4829  0.4069
 4157TIP3    H133886   4.027   4.886  13.407 -1.3709 -0.4465  0.0369
 4157TIP3    H233887   4.148   4.879  13.497 -1.2309  1.3968  0.0130
 4158TIP3   OH233888   2.915   2.566   2.924 -0.1944 -0.3111 -0.7178
 4158TIP3    H133889   2.968   2.645   2.913 -1.2747  0.3212 -1.5326
 4158TIP3    H233890   2.976   2.501   2.959  0.7689  0.8061 -0.2638
 4159TIP3   OH233891   5.104   5.973  15.460  0.6795 -0.4185 -0.9113
 4159TIP3    H133892   5.164   6.045  15.479  0.1716  0.3182 -1.9564
 4159TIP3    H233893   5.020   6.017  15.443 -0.1831 -1.4135  0.5260
 4160TIP3   OH233894   0.029   5.819   3.667  0.3452 -0.8191  0.3966
 4160TIP3    H133895  -0.029   5.894   3.682 -0.3319 -1.3429  0.4353
 4160TIP3    H233896   0.049   5.823   3.574  1.3685  0.1540  0.6318
 4161TIP3   OH233897   1.694   2.535   0.985  0.2669  0.0243 -0.3055
 4161TIP3    H133898   1.652   2.522   1.070 -0.8928 -0.3322 -0.9075
 4161TIP3    H233899   1.744   2.616   0.995 -0.1721  0.1921  0.5962
 4162TIP3   OH233900   1.731   4.801   4.760  0.8701  0.0207 -0.4363
 4162TIP3    H133901   1.811   4.749   4.753  2.8278  2.3779  1.9517
 4162TIP3    H233902   1.696   4.780   4.846 -1.9577 -1.8831 -1.8943
 4163TIP3   OH233903   2.226   0.052  14.645 -0.1284  0.3933  0.0665
 4163TIP3    H133904   2.167   0.042  14.570 -0.1129 -1.7325  0.2996
 4163TIP3    H233905   2.197   0.133  14.688 -3.7399 -1.1886  0.9058
 4164TIP3   OH233906   4.655   1.007   5.679  0.0893 -0.6870 -0.1204
 4164TIP3    H133907   4.711   1.035   5.606  1.2899 -1.0585  0.6264
 4164TIP3    H233908   4.667   1.074   5.746 -0.0421 -0.9838  0.2025
 4165TIP3   OH233909   1.348   5.998   3.021 -0.0570  0.3551  0.0236
 4165TIP3    H133910   1.283   5.928   3.017  0.5013 -0.2371  0.9803
 4165TIP3    H233911   1.405   5.981   2.946  1.1448 -1.3249  1.2572
 4166TIP3   OH233912   2.968   4.405   0.435  0.4339 -0.1357 -0.2395
 4166TIP3    H133913   3.047   4.409   0.381 -0.9721  0.9425 -2.3941
 4166TIP3    H233914   2.913   4.340   0.392 -0.5485  0.4241  0.1427
 4167TIP3   OH233915   3.619   3.062  11.722  0.2015 -0.2888  0.8427
 4167TIP3    H133916   3.531   3.024  11.718  0.7370 -1.5347  0.4079
 4167TIP3    H233917   3.618   3.115  11.802 -1.0170 -0.0929  0.7094
 4168TIP3   OH233918   3.829   3.533   5.108 -0.0949 -0.6189 -0.3725
 4168TIP3    H133919   3.874   3.596   5.164  1.9469 -1.2613 -1.2149
 4168TIP3    H233920   3.753   3.505   5.160  0.5825  0.3356  1.2079
 4169TIP3   OH233921   5.167   4.353  14.635 -0.2469  0.0460  0.9424
 4169TIP3    H133922   5.243   4.401  14.669 -0.4572  0.9046  0.2090
 4169TIP3    H233923   5.091   4.401  14.667 -0.4549  0.4776 -0.1762
 4170TIP3   OH233924   6.194   2.830   5.568 -0.0675 -0.1678  0.0730
 4170TIP3    H133925   6.154   2.900   5.620 -1.6564 -2.3630  2.0324
 4170TIP3    H233926   6.261   2.793   5.626 -0.0954 -1.0155 -0.4144
 4171TIP3   OH233927   1.453   0.937   4.872 -0.6254 -0.1523  0.8014
 4171TIP3    H133928   1.533   0.926   4.821 -1.5705 -0.0322 -0.7920
 4171TIP3    H233929   1.409   1.013   4.833 -0.9417  0.5590  2.4531
 4172TIP3   OH233930   4.491   3.789   3.737  0.2508 -0.3070  0.1087
 4172TIP3    H133931   4.490   3.882   3.715 -0.3028 -0.1702  0.6599
 4172TIP3    H233932   4.450   3.785   3.824  1.8713 -0.8752  0.8774
 4173TIP3   OH233933   5.168   0.107  13.922  0.2724 -0.3494  0.5337
 4173TIP3    H133934   5.138   0.196  13.936 -1.5877 -1.2955  3.5857
 4173TIP3    H233935   5.090   0.052  13.936  1.5644 -2.5118 -0.1630
 4174TIP3   OH233936   5.634   3.735  11.242 -0.5633 -0.1019 -0.3295
 4174TIP3    H133937   5.610   3.770  11.328 -0.1100 -0.0199 -0.2355
 4174TIP3    H233938   5.584   3.787  11.180 -0.1517  0.4935 -0.1702
 4175TIP3   OH233939   4.729   3.146   0.494  0.1730  0.0947 -0.8339
 4175TIP3    H133940   4.644   3.150   0.449  0.6016  1.1461 -1.5810
 4175TIP3    H233941   4.709   3.172   0.584 -0.4917 -0.8686 -0.6836
 4176TIP3   OH233942   0.798   0.934  13.698 -0.2015  0.2794  0.0211
 4176TIP3    H133943   0.885   0.948  13.737 -0.0715 -0.5673  0.0570
 4176TIP3    H233944   0.805   0.848  13.656 -0.9302  0.3457 -0.2355
 4177TIP3   OH233945   6.325   1.723   4.089  0.0930 -0.4819 -0.1731
 4177TIP3    H133946   6.360   1.811   4.107  0.6839 -0.8458  0.5002
 4177TIP3    H233947   6.298   1.727   3.998 -0.5719  0.6280  0.0440
 4178TIP3   OH233948   4.705   3.813  12.363  0.7836 -0.5449 -0.0361
 4178TIP3    H133949   4.687   3.883  12.300 -0.6287 -0.1774  0.7158
 4178TIP3    H233950   4.627   3.757  12.359  0.5147 -0.3522  1.5476
 4179TIP3   OH233951   5.484   4.572   3.587  0.3271 -0.1859  0.4084
 4179TIP3    H133952   5.448   4.504   3.530 -1.9421  0.3666  1.0995
 4179TIP3    H233953   5.579   4.567   3.572  0.0907 -2.2910 -0.8702
 4180TIP3   OH233954   1.191   5.280  12.234 -0.0032 -0.3454  0.0836
 4180TIP3    H133955   1.244   5.241  12.303  0.7863 -2.0706 -1.4031
 4180TIP3    H233956   1.114   5.225  12.228  0.1491 -0.4928 -0.6919
 4181TIP3   OH233957   4.127   4.049  16.261  0.0608  0.0819  0.4395
 4181TIP3    H133958   4.147   4.138  16.234 -0.0038  0.6708  2.2073
 4181TIP3    H233959   4.166   4.040  16.348 -0.4487 -1.4094  0.5555
 4182TIP3   OH233960   4.804   4.478   3.505 -0.1652 -0.2100  0.1919
 4182TIP3    H133961   4.787   4.445   3.593 -1.0538 -0.1418  0.0587
 4182TIP3    H233962   4.863   4.414   3.466 -0.1921 -0.5201  0.6537
 4183TIP3   OH233963   4.057   4.195  11.227  0.2621  0.1921  0.1109
 4183TIP3    H133964   4.056   4.290  11.240  1.1264  0.5720 -2.2474
 4183TIP3    H233965   4.049   4.183  11.132 -1.0297 -2.1510  0.4258
 4184TIP3   OH233966   0.305   2.535   1.865  0.4373 -0.7132 -0.0539
 4184TIP3    H133967   0.216   2.559   1.891 -0.3140 -2.1955 -1.1250
 4184TIP3    H233968   0.355   2.539   1.947 -0.7669 -0.5883  0.7129
 4185TIP3   OH233969   1.101   6.210  12.292  0.3097  0.3060  0.0673
 4185TIP3    H133970   1.007   6.219  12.304  0.0915  1.2496 -1.9200
 4185TIP3    H233971   1.111   6.131  12.239  0.6003  0.5168 -0.1945
 4186TIP3   OH233972   6.191   2.300   0.854 -0.1567 -0.1425 -0.4304
 4186TIP3    H133973   6.191   2.207   0.876 -0.4759 -0.1174 -0.3234
 4186TIP3    H233974   6.277   2.331   0.883  0.2200 -0.5461 -1.0835
 4187TIP3   OH233975   2.734   3.914  11.940  0.3680 -0.2723 -0.3231
 4187TIP3    H133976   2.764   3.925  12.030 -3.5495 -0.8029  1.2302
 4187TIP3    H233977   2.684   3.992  11.920  0.8148 -0.3477 -1.9512
 4188TIP3   OH233978   1.675   3.922  15.282 -0.0843  0.8158 -0.2620
 4188TIP3    H133979   1.650   4.015  15.285  0.3766  0.9321 -0.0734
 4188TIP3    H233980   1.591   3.876  15.282 -0.3168  1.2058  0.5462
 4189TIP3   OH233981   3.069   3.241   0.191  0.1058  0.6460 -0.4578
 4189TIP3    H133982   3.062   3.320   0.244 -1.7741 -1.5902  3.0216
 4189TIP3    H233983   2.979   3.209   0.182  0.7173 -0.7097 -2.4086
 4190TIP3   OH233984   0.682   0.862   1.661  0.3556  0.0916 -0.3198
 4190TIP3    H133985   0.756   0.807   1.637  0.9141  0.0946  1.2663
 4190TIP3    H233986   0.710   0.951   1.640  0.8849  0.1093  0.4177
 4191TIP3   OH233987   1.617   2.064   1.664 -0.0626  0.1945 -0.3594
 4191TIP3    H133988   1.623   1.970   1.648  0.1007  0.1162  0.1666
 4191TIP3    H233989   1.661   2.077   1.748 -2.5164  0.3233  1.0137
 4192TIP3   OH233990   3.904   3.871   6.560  0.1839 -0.2647 -0.4857
 4192TIP3    H133991   3.860   3.944   6.516 -0.3548  1.2000  2.2925
 4192TIP3    H233992   3.994   3.900   6.569  0.1577 -0.3080 -0.1029
 4193TIP3   OH233993   2.958   3.757  12.320  0.0497  0.0118  0.9813
 4193TIP3    H133994   2.868   3.790  12.312 -0.6200 -2.0609 -1.7763
 4193TIP3    H233995   2.949   3.676  12.371 -0.0355 -1.2032 -0.8759
 4194TIP3   OH233996   2.527   3.218   1.770  0.3737 -0.0417  0.2850
 4194TIP3    H133997   2.477   3.176   1.700 -0.0067 -1.0764  1.1440
 4194TIP3    H233998   2.480   3.194   1.850  1.7704 -0.3257  1.0498
 4195TIP3   OH233999   5.919   1.608   2.076 -0.0669  0.4356 -0.1340
 4195TIP3    H134000   5.960   1.597   2.162  1.4201 -0.4365 -0.9177
 4195TIP3    H234001   5.869   1.528   2.063 -1.4963  1.1804  0.4957
 4196TIP3   OH234002   6.011   3.057  11.803 -0.7614 -0.4044  0.2902
 4196TIP3    H134003   5.966   3.107  11.871 -0.7207  2.1497 -1.4133
 4196TIP3    H234004   6.104   3.080  11.813 -0.5204 -1.4137  0.4625
 4197TIP3   OH234005   0.247   5.688  15.020  0.0049 -0.6100 -0.1495
 4197TIP3    H134006   0.319   5.750  15.004 -0.2186 -0.4542 -0.5782
 4197TIP3    H234007   0.286   5.602  15.006 -0.4184 -0.4680 -2.6897
 4198TIP3   OH234008   6.117   5.433   6.039  0.0107  0.1132 -0.0089
 4198TIP3    H134009   6.191   5.414   6.096  0.7545  0.5290 -0.8094
 4198TIP3    H234010   6.041   5.437   6.097  0.9352  1.9378  1.1584
 4199TIP3   OH234011   6.367   4.576  12.230 -0.2912  0.3251  0.2873
 4199TIP3    H134012   6.311   4.653  12.241 -0.6556  0.0194  0.6105
 4199TIP3    H234013   6.378   4.568  12.135  0.9448  1.6157  0.2858
 4200TIP3   OH234014   6.687   6.109  12.912  0.3754  0.1840  0.4203
 4200TIP3    H134015   6.675   6.147  12.999  1.2019  1.8885 -0.1597
 4200TIP3    H234016   6.602   6.068  12.892 -0.2816  0.9834  1.4614
 4201TIP3   OH234017   5.647   2.389  14.541  0.2943 -0.1435  0.4251
 4201TIP3    H134018   5.591   2.315  14.564  0.4658 -0.7760 -1.0420
 4201TIP3    H234019   5.632   2.453  14.610 -2.8870  0.0715 -0.3160
 4202TIP3   OH234020   0.670   6.239  12.950  0.3106  0.4796  0.1992
 4202TIP3    H134021   0.632   6.255  12.863 -1.5798  2.3495  1.2934
 4202TIP3    H234022   0.697   6.326  12.981 -0.8101  0.1562  2.2379
 4203TIP3   OH234023   0.525   3.515   0.360 -0.2982  0.1519  0.1728
 4203TIP3    H134024   0.573   3.555   0.433 -2.3248  1.8806  0.6764
 4203TIP3    H234025   0.568   3.549   0.282  0.8652 -0.3808  0.5651
 4204TIP3   OH234026   2.790   3.853   0.721 -0.1164  0.4850 -0.1362
 4204TIP3    H134027   2.769   3.779   0.778  0.9048  0.4740  0.2504
 4204TIP3    H234028   2.885   3.862   0.729  0.1169  0.2225 -2.1366
 4205TIP3   OH234029   1.507   1.349   0.328  0.2315 -0.2604  0.5813
 4205TIP3    H134030   1.529   1.403   0.251 -1.0537 -0.7823 -0.1791
 4205TIP3    H234031   1.582   1.289   0.337  1.2987  1.0795  0.9491
 4206TIP3   OH234032   2.120   4.071   0.511  0.1068 -0.4358 -0.7146
 4206TIP3    H134033   2.107   4.111   0.425 -1.1088 -0.9495 -0.7990
 4206TIP3    H234034   2.094   4.138   0.574  0.0366 -0.4025 -0.7800
 4207TIP3   OH234035   0.488   3.237  13.393  0.1222  0.3996 -0.4401
 4207TIP3    H134036   0.542   3.247  13.315 -0.4095 -1.7512 -1.1663
 4207TIP3    H234037   0.436   3.159  13.375  0.2755 -0.3994  2.2253
 4208TIP3   OH234038   4.363   1.169  15.812 -0.1367  0.4853  0.1375
 4208TIP3    H134039   4.451   1.144  15.840  0.2760  0.6249 -0.9724
 4208TIP3    H234040   4.366   1.166  15.716 -1.0804  1.3633  0.0563
 4209TIP3   OH234041   6.260   0.433  12.361 -0.0824  0.4300  0.5869
 4209TIP3    H134042   6.287   0.343  12.344 -0.1018  0.6057 -0.4400
 4209TIP3    H234043   6.342   0.481  12.375 -0.0628  0.2959  0.9453
 4210TIP3   OH234044   3.692   1.022   1.617  0.0320  0.0427  0.5638
 4210TIP3    H134045   3.757   0.970   1.664  0.8452 -0.3466 -0.9331
 4210TIP3    H234046   3.614   0.966   1.617 -0.1416  0.2389  1.7973
 4211TIP3   OH234047   4.399   2.610   2.501 -0.0205  0.2035 -0.3065
 4211TIP3    H134048   4.305   2.594   2.487  0.0625  0.2015 -0.9080
 4211TIP3    H234049   4.419   2.570   2.585 -1.0930  2.3025  1.0497
 4212TIP3   OH234050   5.176   2.647  15.515  0.4025 -0.4912  0.6225
 4212TIP3    H134051   5.202   2.654  15.606 -0.1323 -0.8700  0.8110
 4212TIP3    H234052   5.091   2.603  15.518  0.5175 -0.7717 -0.0730
 4213TIP3   OH234053   2.482   4.362  13.052 -0.2210 -0.1137  0.3659
 4213TIP3    H134054   2.480   4.428  12.983 -2.0336  0.4441  0.8857
 4213TIP3    H234055   2.419   4.296  13.024 -2.2846  0.9432  2.1708
 4214TIP3   OH234056   6.160   4.273   4.398  0.2984 -0.3344 -0.3030
 4214TIP3    H134057   6.239   4.230   4.364  2.2006  0.7893  2.4290
 4214TIP3    H234058   6.180   4.366   4.394 -1.5249  0.0682 -0.8635
 4215TIP3   OH234059   1.820   3.109  11.640 -0.2434 -0.1702 -0.3700
 4215TIP3    H134060   1.770   3.184  11.670 -0.2545 -0.8679  1.4321
 4215TIP3    H234061   1.756   3.039  11.632 -0.6150  0.3867 -3.9171
 4216TIP3   OH234062   0.553   5.133   3.961 -0.3335  0.2984  0.1070
 4216TIP3    H134063   0.492   5.112   4.032 -1.8704  1.5226 -0.7759
 4216TIP3    H234064   0.496   5.158   3.888  1.2189 -0.0139 -1.2696
 4217TIP3   OH234065   3.487   4.615  13.153  0.2272  0.9421  0.0291
 4217TIP3    H134066   3.523   4.687  13.206 -0.0615  1.8632 -0.9845
 4217TIP3    H234067   3.438   4.659  13.084  1.6319 -0.1902 -1.7574
 4218TIP3   OH234068   1.215   2.589  16.537 -0.6489  0.0415  0.3480
 4218TIP3    H134069   1.214   2.617  16.446  0.7856  0.6044  0.4767
 4218TIP3    H234070   1.149   2.644  16.579  0.4983  1.6656  0.1269
 4219TIP3   OH234071   6.458   2.513   4.040  0.3130 -0.4529 -0.0519
 4219TIP3    H134072   6.433   2.597   4.003  1.9676 -0.4577 -1.3203
 4219TIP3    H234073   6.429   2.516   4.131  2.3590  2.4314  0.6163
 4220TIP3   OH234074   4.279   3.598   5.532 -0.1803 -0.0972  0.2460
 4220TIP3    H134075   4.282   3.546   5.451 -1.5314 -2.6900  1.7100
 4220TIP3    H234076   4.232   3.677   5.507  2.1147  0.6783 -2.1539
 4221TIP3   OH234077   1.412   6.664   1.961 -0.3015 -0.0342  0.1775
 4221TIP3    H134078   1.442   6.605   2.030  0.7684 -0.5013 -0.6611
 4221TIP3    H234079   1.320   6.681   1.983  0.0212 -0.1371  1.7221
 4222TIP3   OH234080   6.090   2.486  13.705 -0.1834  0.4503 -0.1612
 4222TIP3    H134081   6.051   2.460  13.622  1.0108  2.8758 -1.5839
 4222TIP3    H234082   6.184   2.487  13.689  0.2052 -0.5863  1.7438
 4223TIP3   OH234083   0.008   2.915   4.357  0.4475 -0.0536 -0.3059
 4223TIP3    H134084  -0.060   2.983   4.349 -1.8446 -1.9760  1.4436
 4223TIP3    H234085   0.059   2.941   4.434  1.0591  0.8346 -0.9887
 4224TIP3   OH234086   6.635   5.279   5.658  0.4386 -0.1355  0.4488
 4224TIP3    H134087   6.670   5.264   5.746  0.5642 -1.3713  0.2141
 4224TIP3    H234088   6.540   5.286   5.670  0.2338 -2.2453  0.5149
 4225TIP3   OH234089   3.070   2.614   0.646 -0.1879 -0.1419  0.3827
 4225TIP3    H134090   3.040   2.587   0.559 -1.1626  0.5094  0.5035
 4225TIP3    H234091   3.068   2.710   0.644  1.2824 -0.0687  0.6238
 4226TIP3   OH234092   3.928   5.661  14.646  0.1945 -0.0320  0.0004
 4226TIP3    H134093   3.950   5.634  14.735 -0.9156 -0.0172  0.2992
 4226TIP3    H234094   3.838   5.694  14.653  0.5346  1.1766 -0.8780
 4227TIP3   OH234095   3.811   0.127  15.882 -0.6527 -1.1627 -0.4639
 4227TIP3    H134096   3.836   0.080  15.961 -1.0248 -1.6811 -0.6515
 4227TIP3    H234097   3.813   0.061  15.812 -0.3303 -0.7143 -0.8924
 4228TIP3   OH234098   5.917   4.803   3.189  0.7312  0.0645 -0.2557
 4228TIP3    H134099   5.986   4.827   3.251  1.2724 -0.8597 -0.4691
 4228TIP3    H234100   5.866   4.883   3.177  0.3250  0.1625  1.7371
 4229TIP3   OH234101   0.632   5.978  11.961 -0.0471 -0.2164  0.0930
 4229TIP3    H134102   0.570   5.909  11.937  0.2618 -0.8963  1.1523
 4229TIP3    H234103   0.707   5.930  11.996  1.2210  0.5695 -1.4373
 4230TIP3   OH234104   0.460   2.544   4.260  0.4905  0.4117 -0.5861
 4230TIP3    H134105   0.401   2.479   4.297  2.3957 -0.6888  0.6983
 4230TIP3    H234106   0.414   2.577   4.183 -0.5961 -2.4689 -1.3113
 4231TIP3   OH234107   6.127   3.017   4.601  0.4475  0.1411 -0.1164
 4231TIP3    H134108   6.074   2.977   4.670  0.2030  0.1538 -0.2924
 4231TIP3    H234109   6.103   2.968   4.522  0.3787  0.4282 -0.2755
 4232TIP3   OH234110   0.928   0.970  13.410 -0.1477 -0.1796 -0.1003
 4232TIP3    H134111   0.957   0.887  13.447  0.8653 -0.1036 -0.6720
 4232TIP3    H234112   0.896   0.948  13.323  1.5093  0.1984 -0.8402
 4233TIP3   OH234113   0.610   1.259   2.874  0.6087  0.1845 -0.2711
 4233TIP3    H134114   0.672   1.234   2.942  0.7669  0.4734 -0.3122
 4233TIP3    H234115   0.535   1.201   2.889 -0.6050  2.1765  2.0076
 4234TIP3   OH234116   0.775   4.555  14.789 -0.3546  0.2386  0.3249
 4234TIP3    H134117   0.856   4.588  14.750  0.2548  1.2907  2.2925
 4234TIP3    H234118   0.804   4.510  14.869 -1.7416  1.8311  1.8078
 4235TIP3   OH234119   4.155   6.121   5.151  0.0334  0.1420 -0.6454
 4235TIP3    H134120   4.079   6.089   5.200  1.2563  0.3599  1.4893
 4235TIP3    H234121   4.220   6.051   5.159  1.2697  1.3835  0.5615
 4236TIP3   OH234122   1.050   4.905   5.258 -0.0091  0.0232  0.3067
 4236TIP3    H134123   1.100   4.861   5.327  1.7814 -0.6926 -1.3815
 4236TIP3    H234124   1.007   4.834   5.210 -0.1046  0.4025 -0.1730
 4237TIP3   OH234125   5.392   3.192   2.668 -0.5796 -0.8248 -0.3185
 4237TIP3    H134126   5.341   3.209   2.748 -2.7261 -0.6583 -1.6483
 4237TIP3    H234127   5.329   3.200   2.597  1.6337  0.9486 -2.2526
 4238TIP3   OH234128   1.603   1.542   4.777  0.1032 -0.2731  0.1981
 4238TIP3    H134129   1.683   1.547   4.725  0.4815 -1.1690  0.6695
 4238TIP3    H234130   1.586   1.632   4.804  1.6998 -0.2254  1.1963
 4239TIP3   OH234131   3.125   0.696   6.581 -0.5090  0.2230 -0.0972
 4239TIP3    H134132   3.062   0.765   6.604  0.1933  0.9735 -0.3819
 4239TIP3    H234133   3.098   0.667   6.494 -1.1155 -0.2293  0.2356
 4240TIP3   OH234134   1.038   6.052  14.052  0.3905 -0.4711  0.4950
 4240TIP3    H134135   1.050   6.028  13.960  0.5358 -0.3468  0.4810
 4240TIP3    H234136   0.997   5.975  14.092 -1.4741  0.1721 -0.0787
 4241TIP3   OH234137   4.609   6.195  12.935 -0.0660  0.0459  0.1613
 4241TIP3    H134138   4.582   6.186  12.843 -0.4591  1.0314  0.1751
 4241TIP3    H234139   4.594   6.108  12.972  0.1017 -0.3722 -0.7034
 4242TIP3   OH234140   5.330   2.454   1.406 -0.3508  0.1059 -0.6682
 4242TIP3    H134141   5.420   2.423   1.413 -0.7069 -0.9502 -0.6069
 4242TIP3    H234142   5.287   2.421   1.485 -0.3843  2.0733  0.1783
 4243TIP3   OH234143   0.883   2.742  12.085  0.1164 -1.0127  0.7572
 4243TIP3    H134144   0.819   2.683  12.126  1.4418 -1.2543  2.6326
 4243TIP3    H234145   0.950   2.683  12.050 -0.0209 -0.7161 -0.0114
 4244TIP3   OH234146   5.954   0.409  17.000  0.7580 -0.3191  0.1126
 4244TIP3    H134147   5.943   0.473  16.930  1.0900 -0.2588  0.1139
 4244TIP3    H234148   5.907   0.447  17.074  1.0795 -0.0052  0.1568
 4245TIP3   OH234149   0.918   4.813  10.951 -1.2391  0.3604 -0.4853
 4245TIP3    H134150   0.870   4.853  10.879 -0.1865  0.1494 -1.3492
 4245TIP3    H234151   1.000   4.862  10.956 -0.5892 -0.6633 -0.5467
 4246TIP3   OH234152   6.458   3.654   1.229  0.3452  0.2508  0.5597
 4246TIP3    H134153   6.461   3.706   1.309 -0.4679  0.8771  0.1929
 4246TIP3    H234154   6.443   3.717   1.159  1.4473 -0.2388 -0.1544
 4247TIP3   OH234155   3.036   1.625   6.461  0.0878  0.0318  0.2852
 4247TIP3    H134156   3.070   1.616   6.550 -0.4656  1.8814  0.7273
 4247TIP3    H234157   2.945   1.596   6.466  0.6899 -2.1506 -0.2601
 4248TIP3   OH234158   2.409   2.659  13.817  0.1966 -0.2622  0.0999
 4248TIP3    H134159   2.439   2.580  13.772 -0.0265 -0.3272  0.0622
 4248TIP3    H234160   2.475   2.726  13.796  0.1709 -0.3303 -0.2039
 4249TIP3   OH234161   0.253   0.578   6.304 -0.0802  0.0129  0.3011
 4249TIP3    H134162   0.223   0.663   6.335 -0.1071  0.3890 -0.7355
 4249TIP3    H234163   0.197   0.515   6.349 -1.1445  0.6204 -0.1398
 4250TIP3   OH234164   0.127   0.794   1.929 -0.6185  0.7172  0.0591
 4250TIP3    H134165   0.117   0.798   2.024  1.8499 -0.3138  0.4546
 4250TIP3    H234166   0.219   0.817   1.914 -0.5522 -0.6152 -1.9319
 4251TIP3   OH234167   0.256   3.952  15.554 -0.2215  0.7377 -0.2158
 4251TIP3    H134168   0.333   3.948  15.499  0.2652  2.2057  0.2921
 4251TIP3    H234169   0.223   4.041  15.542  0.1508  1.2594  2.1333
 4252TIP3   OH234170   2.126   0.303  16.029  0.2416  0.2014 -0.8715
 4252TIP3    H134171   2.077   0.385  16.023  1.1563  1.0005  1.4517
 4252TIP3    H234172   2.089   0.258  16.105  1.0855 -0.5941 -0.9130
 4253TIP3   OH234173   4.139   5.812  14.299 -0.3302 -0.0557 -0.3085
 4253TIP3    H134174   4.091   5.822  14.381  0.1288 -1.8934  0.2314
 4253TIP3    H234175   4.181   5.897  14.285 -0.5525  0.3358  1.2613
 4254TIP3   OH234176   4.297   6.077   3.706 -0.0538 -0.1420  0.1808
 4254TIP3    H134177   4.243   6.156   3.710  2.7347  2.2409 -3.0197
 4254TIP3    H234178   4.368   6.093   3.769 -1.0813 -1.7290  1.8804
 4255TIP3   OH234179   1.905   3.545  12.526 -0.5834  0.5083 -0.2384
 4255TIP3    H134180   1.938   3.525  12.438  1.8522 -0.6929  0.8572
 4255TIP3    H234181   1.871   3.634  12.519 -2.3418 -0.2375 -2.8351
 4256TIP3   OH234182   4.794   6.719   4.259  0.0338  0.6011  0.5284
 4256TIP3    H134183   4.730   6.726   4.189 -0.8844  0.0037  1.2860
 4256TIP3    H234184   4.760   6.773   4.330  0.3979  0.3430  0.9118
 4257TIP3   OH234185   3.091   2.387  16.157  0.3872  0.6750 -0.2012
 4257TIP3    H134186   3.133   2.436  16.087 -0.7608 -0.7992 -2.0195
 4257TIP3    H234187   3.144   2.308  16.166  0.1942  0.5887  0.2019
 4258TIP3   OH234188   0.454   6.218   2.636 -0.2384  0.0214  0.1702
 4258TIP3    H134189   0.417   6.307   2.635  0.3877  0.2931  0.6807
 4258TIP3    H234190   0.524   6.222   2.701 -1.4890 -1.3644  1.6780
 4259TIP3   OH234191   5.915   6.772  10.239 -0.1170 -0.3814  0.4750
 4259TIP3    H134192   5.991   6.828  10.260 -0.0334 -0.7535  1.2090
 4259TIP3    H234193   5.945   6.683  10.260 -0.4399 -0.6387 -0.1485
 4260TIP3   OH234194   3.008   6.125   2.193  0.0940  0.0155  0.1741
 4260TIP3    H134195   2.976   6.101   2.280 -1.7778  0.1404 -0.4464
 4260TIP3    H234196   3.005   6.221   2.193  0.3352  0.0240  0.0457
 4261TIP3   OH234197   3.880   1.904   4.909  0.0862  0.4059 -0.2895
 4261TIP3    H134198   3.792   1.871   4.925  0.7450 -1.3224  0.0080
 4261TIP3    H234199   3.938   1.837   4.946  1.5678 -0.0920 -3.2036
 4262TIP3   OH234200   5.614   3.026  14.244 -0.4142  0.3942  0.6684
 4262TIP3    H134201   5.524   2.996  14.229  0.2954 -1.5151 -0.1857
 4262TIP3    H234202   5.666   2.977  14.180  1.3366  0.8781  1.6563
 4263TIP3   OH234203   6.279   1.854  11.989 -0.0059 -0.1371  0.0242
 4263TIP3    H134204   6.289   1.948  11.999 -0.3083 -0.2279  1.3715
 4263TIP3    H234205   6.369   1.821  11.985  0.1058  0.2665 -1.3641
 4264TIP3   OH234206   6.740   3.619   0.711  0.0276 -0.0673 -0.0416
 4264TIP3    H134207   6.784   3.592   0.630 -0.8433 -1.6674 -0.0154
 4264TIP3    H234208   6.705   3.538   0.748 -1.9580  0.9847  0.5264
 4265TIP3   OH234209   0.615   1.920   1.168 -0.3467  0.7931 -0.0795
 4265TIP3    H134210   0.578   1.946   1.253 -0.6868  0.0490  0.0023
 4265TIP3    H234211   0.540   1.912   1.111 -0.1361  1.0593 -0.3994
 4266TIP3   OH234212   5.613   0.274   3.192 -0.2253  0.1585 -0.5157
 4266TIP3    H134213   5.535   0.240   3.237  0.0502  0.8936  0.5680
 4266TIP3    H234214   5.599   0.368   3.188  0.7875  0.3585  0.0999
 4267TIP3   OH234215   6.753   4.149   0.847  0.2585 -0.6054  0.0672
 4267TIP3    H134216   6.768   4.201   0.768  1.7139 -0.0616  0.6641
 4267TIP3    H234217   6.662   4.166   0.870  0.3608  0.7079 -0.4355
 4268TIP3   OH234218   1.172   4.761   4.752  0.0414  0.0395  0.2761
 4268TIP3    H134219   1.139   4.849   4.769  0.7147  0.3591 -0.0242
 4268TIP3    H234220   1.267   4.769   4.759  0.1594 -0.4874 -0.5180
 4269TIP3   OH234221   1.325   4.804  13.127 -1.0973 -0.7121 -0.0640
 4269TIP3    H134222   1.251   4.753  13.094 -0.7705  0.2574 -2.4896
 4269TIP3    H234223   1.374   4.743  13.181 -1.1264 -2.8167 -2.2538
 4270TIP3   OH234224   1.459   3.024   0.238  0.0920 -0.3518  0.2449
 4270TIP3    H134225   1.393   3.092   0.223  0.4414 -0.3235 -1.3323
 4270TIP3    H234226   1.534   3.051   0.185  0.8135 -1.1718  0.8182
 4271TIP3   OH234227   0.467   3.659   2.682  0.2193 -0.0258  0.4824
 4271TIP3    H134228   0.405   3.708   2.737  0.3495  1.1849 -0.3951
 4271TIP3    H234229   0.421   3.648   2.599  0.5291 -0.6664  0.3907
 4272TIP3   OH234230   4.411   2.946   2.986  0.4639  0.3236 -0.3943
 4272TIP3    H134231   4.330   2.912   2.948 -2.2241  0.6497  4.3031
 4272TIP3    H234232   4.467   2.869   2.998 -1.1508 -0.7506  0.5015
 4273TIP3   OH234233   0.209   0.817  15.013 -0.1644  0.1070  0.3777
 4273TIP3    H134234   0.125   0.781  15.039 -0.7763  1.5980  0.5533
 4273TIP3    H234235   0.227   0.777  14.927 -0.9514 -0.3685  0.4253
 4274TIP3   OH234236   6.474   6.128   1.051 -0.4122 -0.0854  0.8454
 4274TIP3    H134237   6.533   6.052   1.057 -1.4533 -1.1272 -1.1059
 4274TIP3    H234238   6.532   6.204   1.057  1.1103 -1.0723 -0.5179
 4275TIP3   OH234239   4.192   4.585   6.268  0.4584  0.0997  0.1341
 4275TIP3    H134240   4.236   4.669   6.260 -0.4134  0.5066 -0.6630
 4275TIP3    H234241   4.260   4.524   6.297  1.4613  0.7590 -0.7751
 4276TIP3   OH234242   2.942   2.803  11.508  0.4633 -0.4099 -0.3872
 4276TIP3    H134243   2.894   2.883  11.532  1.2345 -0.1657  0.3794
 4276TIP3    H234244   2.880   2.754  11.454 -0.2527  0.4121 -0.3393
 4277TIP3   OH234245   5.220   0.846   5.774  0.0702 -0.2944  0.1855
 4277TIP3    H134246   5.227   0.829   5.868 -0.4877  1.4557  0.5817
 4277TIP3    H234247   5.311   0.849   5.744  0.2472 -1.2024  0.5869
 4278TIP3   OH234248   6.309   4.148   2.909  0.0500  0.0080 -0.3825
 4278TIP3    H134249   6.382   4.087   2.921 -0.3095 -0.2593  0.4877
 4278TIP3    H234250   6.344   4.233   2.936  0.2698  0.0321 -0.7236
 4279TIP3   OH234251   4.704   4.319   3.741  0.1661  0.4076 -0.6565
 4279TIP3    H134252   4.756   4.321   3.821  0.3196  0.1889 -0.7489
 4279TIP3    H234253   4.639   4.388   3.752  1.2007  1.4652 -1.0149
 4280TIP3   OH234254   6.321   0.641  14.062 -0.4174 -0.0339  0.5870
 4280TIP3    H134255   6.368   0.709  14.014  0.3543 -1.0191 -0.0858
 4280TIP3    H234256   6.264   0.690  14.122  1.4766  1.1864  1.4707
 4281TIP3   OH234257   2.786   1.774  16.015  0.1622  0.1967  0.0205
 4281TIP3    H134258   2.776   1.684  16.047 -0.3197  0.2839  0.1358
 4281TIP3    H234259   2.826   1.765  15.929  0.5442 -0.1024  0.2247
 4282TIP3   OH234260   2.513   3.945   3.449  0.4897 -0.0651  0.0221
 4282TIP3    H134261   2.446   3.897   3.499 -0.5944  1.7020  0.3557
 4282TIP3    H234262   2.478   3.952   3.361  1.1015 -0.7238 -0.2817
 4283TIP3   OH234263   0.034   2.418   3.868 -0.3859  1.0274 -0.6684
 4283TIP3    H134264   0.038   2.502   3.913 -1.5804 -0.1126  1.7639
 4283TIP3    H234265   0.116   2.374   3.891  0.0557  1.3383 -1.6021
 4284TIP3   OH234266   6.260   2.016   5.286  0.7877  0.5450 -0.3625
 4284TIP3    H134267   6.332   1.972   5.331  3.4323  3.6459 -1.1680
 4284TIP3    H234268   6.230   2.082   5.349 -0.2136  0.3878 -0.6668
 4285TIP3   OH234269   6.733   2.366  14.374 -0.1070  0.0319 -0.2096
 4285TIP3    H134270   6.706   2.285  14.418  0.6581  0.4353  1.0513
 4285TIP3    H234271   6.715   2.350  14.281  0.9712 -1.9988 -0.1336
 4286TIP3   OH234272   2.226   5.869   5.162 -0.4532 -0.2988 -0.3910
 4286TIP3    H134273   2.288   5.914   5.105  1.0080  0.1583  1.4509
 4286TIP3    H234274   2.162   5.936   5.185  0.0120  0.0384 -0.0472
 4287TIP3   OH234275   0.061   6.154   5.897  0.3954  0.0325 -0.4619
 4287TIP3    H134276   0.010   6.074   5.911  1.1657 -0.3099  0.5153
 4287TIP3    H234277   0.098   6.175   5.983 -0.9123  2.2405 -0.3634
 4288TIP3   OH234278   0.958   3.314   5.254  0.1960  0.3029  0.4029
 4288TIP3    H134279   1.014   3.295   5.179  0.4692  0.8630  0.4628
 4288TIP3    H234280   0.960   3.233   5.306  0.0407 -0.0713 -0.1614
 4289TIP3   OH234281   6.546   6.221   0.619  0.0624 -0.1597  1.1351
 4289TIP3    H134282   6.466   6.188   0.578 -0.0361  0.7984  0.5065
 4289TIP3    H234283   6.607   6.148   0.615 -0.9442 -1.0854  2.1288
 4290TIP3   OH234284   6.529   1.081  14.857  0.1725  0.4706  0.3908
 4290TIP3    H134285   6.554   1.037  14.939  0.0290  2.1539  1.3938
 4290TIP3    H234286   6.433   1.077  14.857  0.1850  0.1888  0.1414
 4291TIP3   OH234287   1.194   1.796   4.868 -0.2979 -0.0973  0.2072
 4291TIP3    H134288   1.236   1.780   4.783 -0.7909  0.4190 -0.1354
 4291TIP3    H234289   1.211   1.715   4.917 -1.9455 -1.3776 -1.1787
 4292TIP3   OH234290   1.319   4.212   0.999  0.0002 -0.0447  0.1118
 4292TIP3    H134291   1.389   4.186   1.059 -0.0691  1.3378  0.8400
 4292TIP3    H234292   1.259   4.138   0.998  0.5925 -0.5437  0.8530
 4293TIP3   OH234293   2.371   2.549   3.554  0.3355 -0.7039 -0.6765
 4293TIP3    H134294   2.460   2.545   3.519 -0.2301 -1.3510 -2.1401
 4293TIP3    H234295   2.322   2.597   3.487 -0.2407  0.4189  0.5303
 4294TIP3   OH234296   4.617   1.326  11.372 -0.0952 -0.2767  0.3417
 4294TIP3    H134297   4.676   1.386  11.418  0.7651  0.5702 -1.7306
 4294TIP3    H234298   4.610   1.250  11.430  2.5645 -0.1390  0.9867
 4295TIP3   OH234299   3.954   2.569  17.177 -0.1150  0.3615  0.0077
 4295TIP3    H134300   4.002   2.650  17.189 -0.0105  0.1288  1.3198
 4295TIP3    H234301   3.951   2.557  17.082  1.5095  0.9185 -0.1567
 4296TIP3   OH234302   5.292   5.329  13.290 -0.1839  0.7113 -0.0903
 4296TIP3    H134303   5.293   5.260  13.357 -2.6559  1.2875  0.6692
 4296TIP3    H234304   5.230   5.394  13.324  0.9162  2.6069 -1.4805
 4297TIP3   OH234305   2.804   4.096  11.378  0.1207 -0.0623 -0.2031
 4297TIP3    H134306   2.747   4.116  11.452 -0.0670  1.8288 -0.8037
 4297TIP3    H234307   2.871   4.038  11.414 -1.2214 -0.9922  0.8893
 4298TIP3   OH234308   6.052   2.596   5.513  0.3119  0.3416  0.1122
 4298TIP3    H134309   5.976   2.638   5.554  0.9109 -0.2287  1.8702
 4298TIP3    H234310   6.104   2.669   5.481 -0.0181  0.8257  0.6564
 4299TIP3   OH234311   2.983   0.860  12.291  0.0965  0.3921 -0.4265
 4299TIP3    H134312   2.905   0.814  12.261 -1.2288  1.2180  1.5017
 4299TIP3    H234313   3.056   0.806  12.262 -1.3193 -3.2185  1.9817
 4300TIP3   OH234314   1.048   1.748   4.273  0.0052  0.4133 -1.0247
 4300TIP3    H134315   1.019   1.658   4.284 -0.5408  0.8188  1.2433
 4300TIP3    H234316   1.120   1.759   4.335  0.7150  1.2900 -1.9599
 4301TIP3   OH234317   3.825   0.587   3.858 -0.0463  0.1392  0.1688
 4301TIP3    H134318   3.819   0.663   3.800  0.9431 -0.0032 -0.1487
 4301TIP3    H234319   3.899   0.605   3.914 -0.4257 -0.1476  0.7707
 4302TIP3   OH234320   1.437   1.731  12.305 -0.0832 -0.4445 -0.3869
 4302TIP3    H134321   1.440   1.821  12.273 -0.4417  0.2388  1.3384
 4302TIP3    H234322   1.407   1.679  12.231  0.6247  0.7775 -1.5589
 4303TIP3   OH234323   5.816   5.120   2.733  0.4477  0.1157  0.2871
 4303TIP3    H134324   5.880   5.074   2.679  1.7852  0.8154  1.2274
 4303TIP3    H234325   5.852   5.118   2.821 -1.8930 -1.3512  1.3110
 4304TIP3   OH234326   2.651   5.497   2.354  0.6825  0.7792  0.4550
 4304TIP3    H134327   2.727   5.554   2.366  2.3002 -1.6115  2.8816
 4304TIP3    H234328   2.598   5.510   2.433  0.8352 -0.6354  0.8247
 4305TIP3   OH234329   2.999   5.353   3.789 -0.2042 -0.3167 -0.2781
 4305TIP3    H134330   2.968   5.313   3.870  0.1574  0.4081  0.2300
 4305TIP3    H234331   2.922   5.358   3.733 -1.0989  1.5991  1.0157
 4306TIP3   OH234332   3.698   4.317   5.153  0.2199  0.0362 -0.2869
 4306TIP3    H134333   3.739   4.309   5.067  0.7871  1.8893 -0.2275
 4306TIP3    H234334   3.631   4.249   5.154 -0.0919  0.2643 -2.3502
 4307TIP3   OH234335   5.226   6.588  15.737  0.0434  0.6297 -0.6047
 4307TIP3    H134336   5.285   6.516  15.714  0.1597  0.4646  0.1953
 4307TIP3    H234337   5.139   6.556  15.713  0.3513  1.3280 -2.9150
 4308TIP3   OH234338   0.714   6.695   0.945 -0.3785  0.7690 -0.3784
 4308TIP3    H134339   0.794   6.642   0.948 -0.5541  0.5387  0.8305
 4308TIP3    H234340   0.658   6.658   1.014 -1.6768  0.7093 -1.4170
 4309TIP3   OH234341   6.106   1.098   6.337 -0.5634  0.2105 -0.1167
 4309TIP3    H134342   6.177   1.036   6.350  0.1893  1.0862  0.0091
 4309TIP3    H234343   6.098   1.107   6.242  0.5940  1.3141 -0.1447
 4310TIP3   OH234344   5.938   0.422  13.104 -0.0501  0.0694  0.0457
 4310TIP3    H134345   5.901   0.507  13.080 -0.4529 -0.1501 -0.1123
 4310TIP3    H234346   5.992   0.397  13.029  0.0122  0.1540  0.0623
 4311TIP3   OH234347   3.091   6.459  16.489 -0.2478 -0.0514  0.0597
 4311TIP3    H134348   3.008   6.423  16.520 -0.1878  0.8107  1.2980
 4311TIP3    H234349   3.154   6.388  16.499 -0.4902 -0.1671  0.7809
 4312TIP3   OH234350   4.412   1.335   2.945 -0.1267  0.0586  0.2721
 4312TIP3    H134351   4.417   1.240   2.944  0.2039  0.0702 -1.0258
 4312TIP3    H234352   4.318   1.354   2.940 -0.3162 -0.1637  2.1020
 4313TIP3   OH234353   2.160   3.876   4.707 -0.0558 -0.1833 -0.7373
 4313TIP3    H134354   2.238   3.930   4.700 -0.0509  0.4187  2.5761
 4313TIP3    H234355   2.186   3.791   4.672  0.4376  1.3206 -4.4675
 4314TIP3   OH234356   4.294   5.693  11.278 -0.0367 -0.7534  0.1273
 4314TIP3    H134357   4.344   5.611  11.276 -1.5336 -1.7281  0.7518
 4314TIP3    H234358   4.230   5.683  11.207 -0.1413 -0.0643  0.1181
 4315TIP3   OH234359   4.084   6.732  14.096 -0.6426 -0.0231  0.0644
 4315TIP3    H134360   4.170   6.760  14.127 -0.8717  3.4176 -1.9468
 4315TIP3    H234361   4.033   6.718  14.176  1.0193  0.5420  1.2650
 4316TIP3   OH234362   4.024   2.199  16.827  0.3948  0.2779 -0.6803
 4316TIP3    H134363   4.088   2.166  16.890 -0.6773  0.1831  0.3940
 4316TIP3    H234364   4.046   2.154  16.745 -0.0798 -1.9772  0.3605
 4317TIP3   OH234365   5.235   2.099   4.473 -0.3235  0.1115 -0.4363
 4317TIP3    H134366   5.141   2.084   4.464 -0.4132  0.7064 -0.5118
 4317TIP3    H234367   5.252   2.083   4.566 -0.4132 -0.4354 -0.5077
 4318TIP3   OH234368   0.638   2.282  12.581  0.0038  0.5155  0.0728
 4318TIP3    H134369   0.688   2.241  12.510  0.6644  1.3793  0.0184
 4318TIP3    H234370   0.569   2.218  12.602  0.0437  0.0749 -1.0631
 4319TIP3   OH234371   3.538   6.141  13.874 -0.3071  0.0707  0.2812
 4319TIP3    H134372   3.522   6.186  13.790 -2.0675 -1.3796 -0.2383
 4319TIP3    H234373   3.600   6.072  13.852 -2.0872 -1.4202 -0.2896
 4320TIP3   OH234374   3.833   4.315   0.340 -0.4493  0.0347 -0.4470
 4320TIP3    H134375   3.752   4.340   0.296 -1.0394 -0.2745  0.4321
 4320TIP3    H234376   3.852   4.227   0.308 -0.5310  0.0567 -0.5546
 4321TIP3   OH234377   1.945   3.871  12.820  0.1877  0.3721 -0.4310
 4321TIP3    H134378   1.863   3.897  12.863  0.3437 -2.0727  1.6136
 4321TIP3    H234379   1.936   3.776  12.808  2.5068  0.1256 -0.6046
 4322TIP3   OH234380   3.995   2.422  16.558 -0.2394  0.4162  0.2179
 4322TIP3    H134381   3.944   2.342  16.570 -0.3286  0.4215 -0.1133
 4322TIP3    H234382   4.058   2.421  16.630 -1.7062  1.1935  1.5541
 4323TIP3   OH234383   3.816   2.369  11.635 -0.3511 -0.0625  0.8920
 4323TIP3    H134384   3.898   2.328  11.661  0.2322  0.2432 -0.3793
 4323TIP3    H234385   3.803   2.439  11.699  0.3764 -0.1266  1.1197
 4324TIP3   OH234386   0.229   3.756   0.111 -0.4603 -0.1140 -0.0419
 4324TIP3    H134387   0.216   3.675   0.061 -2.1259  0.6388 -0.9043
 4324TIP3    H234388   0.154   3.810   0.089  0.5389  1.6279  0.6419
 4325TIP3   OH234389   3.948   2.077  15.252  0.3348  0.5309  0.2612
 4325TIP3    H134390   4.018   2.015  15.274 -2.5106 -2.7177  1.0033
 4325TIP3    H234391   3.883   2.065  15.321 -1.5536  2.4341 -1.0744
 4326TIP3   OH234392   1.184   3.742  17.113  0.4431  0.3352 -0.2789
 4326TIP3    H134393   1.142   3.703  17.189 -1.5397  0.1163 -1.4188
 4326TIP3    H234394   1.180   3.836  17.129  1.0528  0.2589  0.3693
 4327TIP3   OH234395   6.182   5.610  14.584  0.4498  0.5568  0.8530
 4327TIP3    H134396   6.240   5.534  14.579  2.1046  1.6985  1.5384
 4327TIP3    H234397   6.222   5.666  14.651 -0.7585  1.9959  0.4375
 4328TIP3   OH234398   3.134   5.721   0.495  0.5133  0.0872 -0.1936
 4328TIP3    H134399   3.206   5.710   0.434 -0.7250  1.5000 -2.0455
 4328TIP3    H234400   3.127   5.816   0.508  0.4534 -0.1458  1.8361
 4329TIP3   OH234401   5.432   6.455   5.728  0.2889  0.1447 -0.3327
 4329TIP3    H134402   5.418   6.488   5.639  0.6534 -1.3726 -0.9824
 4329TIP3    H234403   5.381   6.374   5.732 -0.2470  0.5264  1.0758
 4330TIP3   OH234404   4.699   2.866  16.588 -0.8973  0.2310 -0.1778
 4330TIP3    H134405   4.729   2.786  16.545  1.9729  0.6966  0.7383
 4330TIP3    H234406   4.667   2.921  16.517  1.5330  0.0747 -1.4911
 4331TIP3   OH234407   3.544   2.082   1.480 -0.0699 -0.2017 -0.2318
 4331TIP3    H134408   3.623   2.090   1.427 -1.1702  1.7255 -1.7026
 4331TIP3    H234409   3.494   2.161   1.460 -1.8734 -0.8328  1.5035
 4332TIP3   OH234410   5.678   0.444   5.247  0.2026  0.2841 -0.4312
 4332TIP3    H134411   5.632   0.511   5.298  0.8080  1.7817 -1.7474
 4332TIP3    H234412   5.667   0.364   5.298 -1.3607  1.1684  0.7475
 4333TIP3   OH234413   6.669   0.226   3.451 -0.5754  0.4999  0.0672
 4333TIP3    H134414   6.575   0.214   3.439 -0.5842  0.6222  0.0095
 4333TIP3    H234415   6.689   0.305   3.400 -0.4146  0.3856 -0.0453
 4334TIP3   OH234416   3.686   6.260  11.299  0.2031 -0.0183  0.0862
 4334TIP3    H134417   3.724   6.291  11.217  1.5433  1.5347  1.2236
 4334TIP3    H234418   3.621   6.326  11.321 -0.3924 -0.6096  0.1228
 4335TIP3   OH234419   6.162   0.362  15.675  0.0173 -0.0045 -0.3792
 4335TIP3    H134420   6.207   0.419  15.737 -0.0152 -1.0013  0.5946
 4335TIP3    H234421   6.227   0.347  15.606  0.3774  0.4000 -0.1352
 4336TIP3   OH234422   4.593   1.374   4.220 -0.1815  0.3840 -0.5217
 4336TIP3    H134423   4.550   1.452   4.253 -0.5724  0.8095 -1.9605
 4336TIP3    H234424   4.568   1.305   4.281  0.7302  1.4803  1.1799
 4337TIP3   OH234425   6.034   4.395  11.517  0.5282 -0.0841  0.0971
 4337TIP3    H134426   5.964   4.396  11.451 -0.0482 -0.7432  0.6784
 4337TIP3    H234427   6.109   4.358  11.472  0.2266 -0.2452 -0.2808
 4338TIP3   OH234428   4.485   0.196  15.141 -0.7998 -0.5757  0.0390
 4338TIP3    H134429   4.490   0.267  15.076 -3.1077 -0.5878 -0.2299
 4338TIP3    H234430   4.568   0.201  15.188  0.0973  0.7431 -1.5711
 4339TIP3   OH234431   3.675   3.016  11.411 -0.2079  0.0925  0.1798
 4339TIP3    H134432   3.616   3.038  11.338  1.5232  1.2617 -0.9368
 4339TIP3    H234433   3.616   2.992  11.483 -2.0080  0.3230 -1.1499
 4340TIP3   OH234434   4.675   1.620   0.958 -0.0769  0.0650  0.1936
 4340TIP3    H134435   4.611   1.553   0.933  0.3000  0.1065 -0.9528
 4340TIP3    H234436   4.712   1.589   1.040 -1.3229 -0.1241  0.7070
 4341TIP3   OH234437   4.898   4.273  12.303  0.1680  0.5949  0.0731
 4341TIP3    H134438   4.979   4.254  12.352  0.6922  0.3875 -0.8513
 4341TIP3    H234439   4.845   4.195  12.312  1.0950 -0.2303 -1.3039
 4342TIP3   OH234440   3.719   4.787   3.571 -0.2237  0.1630 -0.6036
 4342TIP3    H134441   3.748   4.824   3.488 -0.8722  0.9236 -0.5012
 4342TIP3    H234442   3.800   4.760   3.615  0.2175  0.9722 -0.9079
 4343TIP3   OH234443   3.149   1.516  17.144 -0.1215 -0.6158  0.0422
 4343TIP3    H134444   3.243   1.518  17.121 -0.1602 -1.1845 -0.1877
 4343TIP3    H234445   3.108   1.572  17.079  0.0153 -0.6764 -0.0984
 4344TIP3   OH234446   2.305   5.452  14.091  0.3901 -0.3304 -0.3440
 4344TIP3    H134447   2.243   5.437  14.163 -0.1152  0.3554 -0.6150
 4344TIP3    H234448   2.303   5.371  14.040 -0.3170 -0.3154 -0.3582
 4345TIP3   OH234449   1.197   5.203   5.352 -0.2499 -0.0809  0.0402
 4345TIP3    H134450   1.201   5.264   5.278  0.4842 -1.5158 -1.1395
 4345TIP3    H234451   1.287   5.201   5.385 -0.9810  2.3998  2.6204
 4346TIP3   OH234452   6.637   2.612  14.414  0.1255  0.1779  0.0557
 4346TIP3    H134453   6.725   2.650  14.417 -0.0394  0.4894  1.9819
 4346TIP3    H234454   6.652   2.519  14.398  0.6628  0.5399 -1.8176
 4347TIP3   OH234455   5.670   1.904  16.507 -0.2791 -0.0492  0.6846
 4347TIP3    H134456   5.714   1.894  16.592  2.6282  1.7619 -0.4475
 4347TIP3    H234457   5.687   1.821  16.463  0.4692 -0.0610  0.9634
 4348TIP3   OH234458   3.793   6.629  13.800  0.3503 -0.4606 -0.4897
 4348TIP3    H134459   3.884   6.658  13.813 -0.1009  0.7046  0.2933
 4348TIP3    H234460   3.754   6.634  13.887 -1.5339  3.0103 -1.3391
 4349TIP3   OH234461   0.546   1.067   2.390  0.3445 -0.1521  0.6961
 4349TIP3    H134462   0.523   1.014   2.467 -2.2331  0.7349  0.6160
 4349TIP3    H234463   0.618   1.019   2.349 -1.5140 -3.4135  0.8749
 4350TIP3   OH234464   0.047   6.362  16.317 -0.3797  0.2238  0.1631
 4350TIP3    H134465   0.017   6.428  16.254  0.3540  0.8662  0.4586
 4350TIP3    H234466  -0.032   6.318  16.346 -0.8478  0.7190 -0.3359
 4351TIP3   OH234467   2.735   3.887   0.222 -0.7466 -0.8737 -0.5131
 4351TIP3    H134468   2.784   3.943   0.163  0.0396 -3.1814 -2.1797
 4351TIP3    H234469   2.648   3.881   0.183 -0.1337 -2.6564 -1.6898
 4352TIP3   OH234470   2.019   2.135  11.473 -0.1581  0.4464  0.2827
 4352TIP3    H134471   2.113   2.127  11.454 -0.1868  0.7807 -0.0205
 4352TIP3    H234472   2.005   2.082  11.551  0.7801  2.4376  1.8858
 4353TIP3   OH234473   6.019   5.449  12.403  0.2180 -0.2668  0.0657
 4353TIP3    H134474   6.037   5.495  12.322  3.0403 -2.3557 -0.6532
 4353TIP3    H234475   5.924   5.434  12.402 -0.2095  2.0397 -1.4565
 4354TIP3   OH234476   4.606   6.630  12.944 -0.3830  0.0889 -0.3193
 4354TIP3    H134477   4.640   6.551  12.986 -1.1877  0.1683  0.4973
 4354TIP3    H234478   4.592   6.692  13.016  0.1490  0.9581 -0.9376
 4355TIP3   OH234479   5.256   4.425  14.378  0.4744  0.0125  0.0635
 4355TIP3    H134480   5.226   4.508  14.342  0.2615  0.1755  0.6161
 4355TIP3    H234481   5.229   4.427  14.469  0.7362 -0.5349  0.1559
 4356TIP3   OH234482   5.238   2.654  14.396 -0.5497 -0.0688  0.5068
 4356TIP3    H134483   5.196   2.734  14.427 -0.7948  0.1985 -0.4639
 4356TIP3    H234484   5.293   2.625  14.468 -1.1361  0.4934  1.1910
 4357TIP3   OH234485   1.833   3.699  11.922  0.7554 -0.5190 -0.2056
 4357TIP3    H134486   1.781   3.677  11.999 -0.0591 -2.3447 -1.2276
 4357TIP3    H234487   1.770   3.705  11.850  1.7209 -0.8532 -1.1102
 4358TIP3   OH234488   5.272   5.298  11.380  0.0490  0.0998 -0.2016
 4358TIP3    H134489   5.299   5.229  11.321 -0.4085  0.2373 -0.5814
 4358TIP3    H234490   5.215   5.354  11.327  0.0743  0.5280  0.2156
 4359TIP3   OH234491   0.049   4.681   3.448  0.4646  0.7404  0.4501
 4359TIP3    H134492   0.077   4.732   3.372 -0.8094 -0.0140 -0.5819
 4359TIP3    H234493  -0.046   4.676   3.439  0.5716 -2.5537 -0.0424
 4360TIP3   OH234494   3.956   5.917   5.607  0.0035 -0.9040  0.3723
 4360TIP3    H134495   3.903   5.874   5.674 -0.8098 -0.9105 -0.2631
 4360TIP3    H234496   3.899   5.986   5.572  2.0459  2.5332  3.0796
 4361TIP3   OH234497   2.046   4.791   2.214 -0.1206  1.1166  0.1053
 4361TIP3    H134498   2.097   4.763   2.138 -2.1130 -0.4904 -0.7446
 4361TIP3    H234499   2.011   4.710   2.250 -1.3649  2.0791  1.1416
 4362TIP3   OH234500   6.563   0.682   4.102  0.1088 -0.0190  0.0111
 4362TIP3    H134501   6.578   0.588   4.100  0.1733 -0.0022 -0.4873
 4362TIP3    H234502   6.514   0.700   4.021 -0.4296  0.2860  0.3962
 4363TIP3   OH234503   4.198   2.879  11.459 -0.3427 -0.1062 -0.4747
 4363TIP3    H134504   4.140   2.902  11.387 -1.7622  1.2047  1.0145
 4363TIP3    H234505   4.196   2.955  11.518  1.1182 -0.9351  0.7272
 4364TIP3   OH234506   1.458   6.075   0.023  0.0556 -0.0713 -0.3382
 4364TIP3    H134507   1.398   6.109  -0.043  1.7473  0.0067 -1.9231
 4364TIP3    H234508   1.464   5.982   0.004 -1.2665 -0.5323  1.2758
 4365TIP3   OH234509   4.112   0.996  15.597  0.4620  0.0426  0.0742
 4365TIP3    H134510   4.043   1.028  15.540  0.4876  1.5209  0.8101
 4365TIP3    H234511   4.166   1.073  15.615  2.2256 -1.0390 -0.3517
 4366TIP3   OH234512   2.526   5.119  16.494  0.2385  0.6781 -0.0476
 4366TIP3    H134513   2.560   5.090  16.409 -2.7277 -0.5571 -0.9623
 4366TIP3    H234514   2.556   5.052  16.556 -1.4331 -1.1400 -1.0653
 4367TIP3   OH234515   5.400   0.286  16.383  0.4111  0.3057  0.0804
 4367TIP3    H134516   5.341   0.291  16.308  0.3523 -0.1636  0.0963
 4367TIP3    H234517   5.360   0.345  16.448  0.8747  1.3166 -0.5285
 4368TIP3   OH234518   0.070   0.249  12.425  0.4890  0.6960  0.0607
 4368TIP3    H134519   0.051   0.339  12.453  2.2042  0.8787  0.7631
 4368TIP3    H234520   0.108   0.258  12.338 -1.9268  0.3707 -1.1203
 4369TIP3   OH234521   3.500   3.294   3.961 -0.0720  0.1223  0.3504
 4369TIP3    H134522   3.428   3.296   4.024 -1.6052 -1.4015 -1.2304
 4369TIP3    H234523   3.504   3.203   3.933 -0.5302  0.9787 -2.8787
 4370TIP3   OH234524   5.260   3.481  11.533 -0.0914  0.2077  0.4837
 4370TIP3    H134525   5.193   3.487  11.464 -0.3346  0.4127  0.7344
 4370TIP3    H234526   5.265   3.570  11.568  0.9004  0.3923 -0.0839
 4371TIP3   OH234527   6.673   1.639  11.688  0.2389  0.4435  0.0735
 4371TIP3    H134528   6.714   1.712  11.642  0.9264  0.5434  0.8172
 4371TIP3    H234529   6.579   1.656  11.682  0.1709 -0.4124 -2.7194
 4372TIP3   OH234530   4.782   4.671  13.331  0.1905  0.7534  0.0124
 4372TIP3    H134531   4.741   4.611  13.393  0.5335  0.1661 -0.3211
 4372TIP3    H234532   4.793   4.619  13.251 -2.0947  2.0455 -1.2544
 4373TIP3   OH234533   6.378   0.067   5.900 -0.2377 -0.3868 -0.0369
 4373TIP3    H134534   6.364   0.103   5.988  1.1068 -1.5338  0.6763
 4373TIP3    H234535   6.389  -0.027   5.914  1.4992 -0.4037 -1.2540
 4374TIP3   OH234536   2.301   1.128  13.806 -0.3832  0.1153 -0.0552
 4374TIP3    H134537   2.283   1.110  13.714 -2.0511  1.1620  0.0278
 4374TIP3    H234538   2.351   1.209  13.806  4.0055 -2.2856 -0.2237
 4375TIP3   OH234539   1.452   0.279  16.037  0.1381  0.1612  0.3394
 4375TIP3    H134540   1.496   0.363  16.029 -0.5247  0.5257  0.5148
 4375TIP3    H234541   1.503   0.230  16.101  0.5171  0.4285  0.2403
 4376TIP3   OH234542   1.344   4.704   4.200  0.1085 -0.0018 -0.2033
 4376TIP3    H134543   1.366   4.797   4.202 -0.5059  0.1537 -0.5082
 4376TIP3    H234544   1.256   4.699   4.237  0.1791 -0.4736 -0.0905
 4377TIP3   OH234545   4.782   3.656  16.979  0.5643  0.1945  0.4330
 4377TIP3    H134546   4.740   3.600  16.914  0.5693 -0.7247  1.1936
 4377TIP3    H234547   4.739   3.633  17.061 -0.1347  2.0509  0.6210
 4378TIP3   OH234548   4.365   4.635   1.888  0.2963  0.0078  0.0223
 4378TIP3    H134549   4.297   4.613   1.825  1.4619 -0.4942 -1.1057
 4378TIP3    H234550   4.345   4.580   1.964 -0.8212  0.2238 -0.1017
 4379TIP3   OH234551   3.060   2.730   6.802 -0.6313 -0.0171  0.1663
 4379TIP3    H134552   3.099   2.676   6.871 -0.2023  0.6407  0.4391
 4379TIP3    H234553   3.065   2.674   6.724 -2.1743 -1.2197  0.8712
 4380TIP3   OH234554   5.055   5.505   1.273  0.0586 -0.0296  0.5591
 4380TIP3    H134555   5.087   5.594   1.287 -1.2389  0.1537  2.8912
 4380TIP3    H234556   5.080   5.484   1.183  0.1446  2.7776 -0.1485
 4381TIP3   OH234557   0.047   3.442   4.830 -0.4081  0.2836  0.3220
 4381TIP3    H134558   0.047   3.378   4.901  0.3876 -1.2313 -0.9670
 4381TIP3    H234559   0.119   3.502   4.852 -0.3069 -0.0392  0.8947
 4382TIP3   OH234560   0.296   3.504  15.939  0.2282  0.2424  0.1458
 4382TIP3    H134561   0.344   3.471  15.863  2.0442 -0.1134  1.3664
 4382TIP3    H234562   0.229   3.437  15.956  0.0237  0.1647 -0.9263
 4383TIP3   OH234563   0.631   2.987   0.741  0.2223 -0.4059 -0.1068
 4383TIP3    H134564   0.660   3.003   0.651 -2.3092  1.4419 -0.7139
 4383TIP3    H234565   0.584   2.904   0.737  0.2847 -0.4252 -0.4460
 4384TIP3   OH234566   2.522   4.520   0.410  0.0045 -0.5111 -0.2095
 4384TIP3    H134567   2.512   4.428   0.438 -1.4639 -0.6445 -1.0887
 4384TIP3    H234568   2.576   4.515   0.331  0.2735 -0.5727 -0.0240
 4385TIP3   OH234569   1.818   6.284   5.681 -0.0710 -0.0882  0.2171
 4385TIP3    H134570   1.884   6.283   5.613  0.8706  0.2639  1.0992
 4385TIP3    H234571   1.828   6.369   5.724 -0.9941 -0.0889  0.4741
 4386TIP3   OH234572   1.909   5.449   4.707  0.2318  0.7326  0.2866
 4386TIP3    H134573   1.906   5.438   4.612  0.4606 -0.2421  0.3816
 4386TIP3    H234574   1.975   5.386   4.737 -2.1492 -1.4141  1.4117
 4387TIP3   OH234575   0.787   4.991  13.941 -0.3046  0.4229 -0.2033
 4387TIP3    H134576   0.804   4.972  14.033 -1.3070 -1.4225 -0.3518
 4387TIP3    H234577   0.710   4.939  13.920 -0.1644  0.9056 -2.0757
 4388TIP3   OH234578   3.109   3.624  11.227  0.1261  0.2094  0.2023
 4388TIP3    H134579   3.047   3.660  11.164 -0.6364 -0.6756  0.4104
 4388TIP3    H234580   3.163   3.563  11.176  0.3242  0.4116  0.1690
 4389TIP3   OH234581   2.122   2.569  13.711  0.5783  0.4315 -0.6163
 4389TIP3    H134582   2.156   2.658  13.721  2.2798 -0.3254  0.9710
 4389TIP3    H234583   2.117   2.556  13.616  0.8793  1.9948 -0.8793
 4390TIP3   OH234584   4.473   0.999   1.717 -0.1378  0.5561  0.2828
 4390TIP3    H134585   4.429   0.921   1.683  0.2247  0.8644 -0.9468
 4390TIP3    H234586   4.559   0.967   1.745  0.0408  0.5126 -0.2942
 4391TIP3   OH234587   1.282   5.683  11.444 -0.2610  0.4555 -0.2552
 4391TIP3    H134588   1.198   5.728  11.452  0.1630  2.1235 -3.4432
 4391TIP3    H234589   1.272   5.627  11.368  0.8334 -1.1488  0.7321
 4392TIP3   OH234590   5.460   0.324  14.665 -0.5223  0.1470 -0.0619
 4392TIP3    H134591   5.394   0.322  14.596 -2.3208  2.4992  1.4299
 4392TIP3    H234592   5.536   0.282  14.627 -2.4267 -1.4577 -2.3599
 4393TIP3   OH234593   4.200   2.267  10.542 -0.4995 -0.0129  0.2626
 4393TIP3    H134594   4.187   2.308  10.628 -0.3622 -0.6741  0.6041
 4393TIP3    H234595   4.113   2.242  10.514 -0.4939 -0.2051  0.4155
 4394TIP3   OH234596   4.653   1.981   3.524 -0.0482  0.4609  0.1392
 4394TIP3    H134597   4.680   2.029   3.602  2.2562 -1.5584  0.6909
 4394TIP3    H234598   4.692   2.030   3.452  1.9574 -0.2927  0.6594
 4395TIP3   OH234599   2.612   2.576   1.967  0.1864 -0.5448  0.6196
 4395TIP3    H134600   2.696   2.586   1.923 -0.3570  0.2924 -0.2637
 4395TIP3    H234601   2.576   2.493   1.934  0.8921 -1.1963  1.4315
 4396TIP3   OH234602   1.974   1.805  13.377 -0.6258  0.4779 -0.0462
 4396TIP3    H134603   1.929   1.806  13.462 -0.0911 -1.1871  0.2972
 4396TIP3    H234604   2.030   1.883  13.378 -0.8294  0.6200  1.0225
 4397TIP3   OH234605   5.070   1.831   5.646 -0.3495  0.4144  0.1863
 4397TIP3    H134606   5.131   1.882   5.700 -1.3639  1.6063  0.2622
 4397TIP3    H234607   4.987   1.838   5.692 -1.4400  2.1062 -1.8672
 4398TIP3   OH234608   1.984   2.752   2.011  0.4446 -0.4924 -0.0126
 4398TIP3    H134609   2.023   2.837   1.994  0.7077 -0.6943 -0.4356
 4398TIP3    H234610   2.057   2.690   2.008  0.0063 -0.9865 -1.6863
 4399TIP3   OH234611   0.314   6.492   1.102  0.9439  0.1984 -0.5050
 4399TIP3    H134612   0.328   6.453   1.016  1.3333  1.5702 -1.1052
 4399TIP3    H234613   0.224   6.472   1.124  1.4020 -1.8314 -0.3291
 4400TIP3   OH234614   6.686   6.107  10.634 -0.2164 -0.4118  0.2035
 4400TIP3    H134615   6.644   6.118  10.719 -0.3198  2.5392 -0.1437
 4400TIP3    H234616   6.739   6.185  10.622 -0.4647 -0.5530 -2.5791
 4401TIP3   OH234617   6.627   0.159   5.797  0.8963  0.3769  0.3828
 4401TIP3    H134618   6.683   0.197   5.865 -0.2596 -0.1447  1.6899
 4401TIP3    H234619   6.575   0.093   5.844  1.2829 -1.2525 -1.3611
 4402TIP3   OH234620   4.563   2.254  15.274 -0.1239 -0.4766  0.3833
 4402TIP3    H134621   4.529   2.296  15.195  0.3077  0.8212  0.8614
 4402TIP3    H234622   4.551   2.161  15.259  1.6584 -0.4198 -2.0558
 4403TIP3   OH234623   3.417   0.076   0.225 -0.2187  0.2067  0.5596
 4403TIP3    H134624   3.507   0.089   0.253 -0.3823  1.2611  0.6380
 4403TIP3    H234625   3.365   0.127   0.288 -0.5846  3.1571 -1.8654
 4404TIP3   OH234626   1.418   6.779  12.466 -0.0662 -0.7108  0.2947
 4404TIP3    H134627   1.513   6.795  12.463 -0.2711  0.8686  1.0489
 4404TIP3    H234628   1.396   6.788  12.558 -0.9767 -0.9380  0.1029
 4405TIP3   OH234629   4.473   4.140  11.423 -0.3402 -0.4787  0.7102
 4405TIP3    H134630   4.515   4.163  11.506 -0.5331  0.0035  0.6747
 4405TIP3    H234631   4.380   4.157  11.438 -0.0887  2.7967 -0.6096
 4406TIP3   OH234632   3.617   4.847  15.197 -0.3693 -0.2007  0.1992
 4406TIP3    H134633   3.555   4.842  15.270  0.3366  2.0560  1.0606
 4406TIP3    H234634   3.598   4.932  15.156  1.2993 -0.0367 -0.2966
 4407TIP3   OH234635   0.586   5.574  15.722  0.0367  0.6881 -0.0051
 4407TIP3    H134636   0.497   5.542  15.709 -0.0127  0.8576 -0.0966
 4407TIP3    H234637   0.605   5.624  15.642  0.6597 -0.3558 -0.5238
 4408TIP3   OH234638   3.709   4.648  13.954 -0.7256  0.2276  0.0435
 4408TIP3    H134639   3.723   4.663  13.861  0.4069  2.9768  0.5483
 4408TIP3    H234640   3.778   4.587  13.979 -0.2402  0.4623 -0.6929
 4409TIP3   OH234641   0.018   6.731   5.242  0.3038 -0.4132  0.4025
 4409TIP3    H134642   0.077   6.664   5.275 -1.1491 -2.7536 -1.3802
 4409TIP3    H234643  -0.034   6.686   5.174 -1.3613  2.3043 -0.2964
 4410TIP3   OH234644   6.081   5.725   6.255 -0.0304 -0.3757  0.1361
 4410TIP3    H134645   6.083   5.817   6.280 -1.2160 -0.3193  0.0837
 4410TIP3    H234646   6.173   5.701   6.244  0.2578  1.0660 -0.8285
 4411TIP3   OH234647   6.112   4.324  15.118 -0.3895 -0.2174  0.2241
 4411TIP3    H134648   6.153   4.250  15.072 -0.3140  0.0920 -0.2064
 4411TIP3    H234649   6.184   4.362  15.170 -0.8233 -1.5783  1.9506
 4412TIP3   OH234650   2.208   2.083   5.800 -0.1474 -0.1446  0.1408
 4412TIP3    H134651   2.297   2.071   5.769 -1.2486 -0.1119 -3.5334
 4412TIP3    H234652   2.177   1.995   5.821 -0.1478 -0.6333 -1.6739
 4413TIP3   OH234653   5.535   4.736   5.617 -0.3340  0.0284  0.0733
 4413TIP3    H134654   5.558   4.775   5.533  0.9427 -1.1259 -0.1622
 4413TIP3    H234655   5.613   4.750   5.672 -1.2901  1.0974  1.2110
 4414TIP3   OH234656   5.992   4.708   0.962  0.3273  0.2571  0.2471
 4414TIP3    H134657   5.957   4.797   0.956  0.2089  0.1998  0.1122
 4414TIP3    H234658   6.034   4.693   0.877  0.0650  0.0625  0.1517
 4415TIP3   OH234659   2.436   5.964   1.390 -0.2134 -0.4386  0.2292
 4415TIP3    H134660   2.460   5.929   1.305  1.0018  1.6158 -0.3593
 4415TIP3    H234661   2.353   6.009   1.375 -0.0263 -0.1234  0.1069
 4416TIP3   OH234662   0.067   6.111   5.621  0.7043  0.2094  0.3610
 4416TIP3    H134663   0.079   6.145   5.709  4.1581  0.1362  0.0397
 4416TIP3    H234664   0.092   6.019   5.626 -0.7714 -0.2699 -0.3856
 4417TIP3   OH234665   6.645   4.938   6.386 -0.4617  0.6907  0.5108
 4417TIP3    H134666   6.637   4.844   6.367 -0.3716  1.0655 -1.7265
 4417TIP3    H234667   6.618   4.946   6.477 -0.4738 -1.5057  0.7717
 4418TIP3   OH234668   1.201   1.693   0.896 -0.7129  0.5819  0.1808
 4418TIP3    H134669   1.179   1.705   0.989 -2.3396 -0.8553  0.0462
 4418TIP3    H234670   1.125   1.728   0.849  0.0130  1.1219 -0.6161
 4419TIP3   OH234671   5.676   6.761  15.658  0.3486  0.1256  1.1739
 4419TIP3    H134672   5.705   6.670  15.650  1.0328  0.3974  0.4061
 4419TIP3    H234673   5.589   6.762  15.618 -0.0091 -0.3443  1.9141
 4420TIP3   OH234674   4.458   0.555   0.278  0.1250  0.5096  0.0676
 4420TIP3    H134675   4.427   0.470   0.246 -0.9703  0.4560  1.1633
 4420TIP3    H234676   4.517   0.533   0.351 -0.4524  0.6774  0.5951
 4421TIP3   OH234677   5.154   4.172   0.215 -0.5925 -0.3190  0.0012
 4421TIP3    H134678   5.070   4.155   0.172 -0.4961 -0.5624 -0.0988
 4421TIP3    H234679   5.177   4.088   0.256  0.2127 -0.6484 -1.0515
 4422TIP3   OH234680   4.301   0.779   5.181 -0.1808 -1.0264  0.1255
 4422TIP3    H134681   4.336   0.840   5.116  1.7048 -2.9061 -0.7488
 4422TIP3    H234682   4.292   0.830   5.261 -0.5285  0.8279 -1.0522
 4423TIP3   OH234683   1.313   6.273   6.848 -0.0542 -0.1119 -0.0727
 4423TIP3    H134684   1.340   6.358   6.882 -0.7839 -0.2970  1.0314
 4423TIP3    H234685   1.228   6.290   6.808  0.6342  0.0297 -1.5250
 4424TIP3   OH234686   5.717   3.239  12.915 -0.0244  0.0335  0.3985
 4424TIP3    H134687   5.687   3.166  12.969 -0.0548  0.0026  0.3402
 4424TIP3    H234688   5.721   3.202  12.826 -2.4354  0.7535 -0.0792
 4425TIP3   OH234689   3.426   4.906   0.575  0.2972  0.2924 -0.4562
 4425TIP3    H134690   3.449   4.912   0.482  0.7192 -2.5629 -0.6229
 4425TIP3    H234691   3.370   4.829   0.581 -0.7533  1.1449  1.5221
 4426TIP3   OH234692   5.096   1.782  12.240  0.2661 -0.2209  0.0923
 4426TIP3    H134693   5.113   1.691  12.267  0.3332 -0.2958 -0.1991
 4426TIP3    H234694   5.070   1.775  12.148 -0.2972 -0.0018  0.2295
 4427TIP3   OH234695   1.345   5.510   3.980 -0.3728  0.8791 -0.2554
 4427TIP3    H134696   1.370   5.461   3.901  0.9058  0.8335  0.1510
 4427TIP3    H234697   1.251   5.524   3.971 -0.3757  0.2309 -1.4308
 4428TIP3   OH234698   3.313   4.722   0.414  0.3562 -0.4029 -0.1655
 4428TIP3    H134699   3.224   4.755   0.409  0.4997  0.1637  0.7403
 4428TIP3    H234700   3.305   4.637   0.456  0.1897 -0.5958 -0.5869
 4429TIP3   OH234701   6.758   6.230  15.871 -0.2296  0.0328  0.0236
 4429TIP3    H134702   6.846   6.209  15.839  0.7882  2.4356  0.9851
 4429TIP3    H234703   6.717   6.277  15.799  0.0372  0.6387  0.2567
 4430TIP3   OH234704   3.060   3.331  11.775 -0.0662 -0.2406  0.8863
 4430TIP3    H134705   3.047   3.243  11.740 -1.7934  0.2094  0.2967
 4430TIP3    H234706   2.987   3.345  11.834  0.1346  0.8254  0.9120
 4431TIP3   OH234707   5.356   3.804  12.814  0.4529 -0.0159  0.4667
 4431TIP3    H134708   5.374   3.798  12.908 -1.4097 -1.1600  0.8022
 4431TIP3    H234709   5.363   3.897  12.794  2.1538  0.1045  1.4392
 4432TIP3   OH234710   1.834   1.090   0.317 -0.2299 -0.2750  0.7791
 4432TIP3    H134711   1.813   1.180   0.340  0.6508 -0.3528  2.0335
 4432TIP3    H234712   1.882   1.096   0.235 -0.2743  0.3780  0.7979
 4433TIP3   OH234713   6.752   4.930  11.209  0.1333  0.6672  0.1901
 4433TIP3    H134714   6.698   4.938  11.288 -0.5422 -0.2178 -0.1609
 4433TIP3    H234715   6.833   4.977  11.230 -0.1493  0.6832  1.3071
 4434TIP3   OH234716   6.751   5.995  16.602  0.3947 -0.2118  0.1861
 4434TIP3    H134717   6.671   6.048  16.606  0.3261 -0.2304 -0.7144
 4434TIP3    H234718   6.822   6.059  16.607  0.3138 -0.0879 -0.2179
 4435TIP3   OH234719   2.375   5.774  12.403  0.0060 -0.2181  0.1306
 4435TIP3    H134720   2.457   5.783  12.453 -0.1470  2.7784  0.0553
 4435TIP3    H234721   2.310   5.819  12.457 -1.8140 -2.9789  0.4360
 4436TIP3   OH234722   1.444   6.277  16.505 -0.3768  0.2445 -0.4439
 4436TIP3    H134723   1.428   6.244  16.417 -0.6497  0.2645 -0.4035
 4436TIP3    H234724   1.457   6.371  16.494 -0.7141  0.2933 -0.4274
 4437TIP3   OH234725   0.201   5.238  15.591 -0.3970  0.0684  0.2789
 4437TIP3    H134726   0.200   5.171  15.522  0.0957 -0.7367  1.0328
 4437TIP3    H234727   0.293   5.266  15.595 -0.1038 -0.9970  1.6299
 4438TIP3   OH234728   4.473   0.078  14.843  0.0615 -0.2407 -0.0704
 4438TIP3    H134729   4.543   0.142  14.835 -0.5282  0.5587  0.8955
 4438TIP3    H234730   4.508  -0.002  14.804  0.5132  0.8716 -2.0771
 4439TIP3   OH234731   1.201   0.006   2.366  0.1762  0.2891 -0.1143
 4439TIP3    H134732   1.127  -0.050   2.343  0.4973 -0.2286  0.0793
 4439TIP3    H234733   1.203   0.073   2.298  1.1378 -1.2341 -1.6611
 4440TIP3   OH234734   1.780   2.238   4.421  0.9312  0.2005  0.5682
 4440TIP3    H134735   1.697   2.234   4.468  1.4898 -0.5006  1.5332
 4440TIP3    H234736   1.815   2.325   4.443  0.5961  0.3829  0.3949
 4441TIP3   OH234737   1.270   5.970   4.248 -0.5994  0.2285 -0.2477
 4441TIP3    H134738   1.318   6.052   4.244 -1.1716  0.7067  1.6815
 4441TIP3    H234739   1.178   5.995   4.246 -0.7749 -0.4321 -0.6627
 4442TIP3   OH234740   1.185   5.784   1.889 -0.1481 -0.6156  0.5374
 4442TIP3    H134741   1.266   5.818   1.851 -0.7727 -0.2878 -0.5389
 4442TIP3    H234742   1.207   5.768   1.981  0.8004  0.5991  0.5551
 4443TIP3   OH234743   2.616   4.245   5.976 -0.1983  0.2275 -0.0040
 4443TIP3    H134744   2.620   4.337   5.949 -3.0711  1.1374  2.1920
 4443TIP3    H234745   2.583   4.248   6.065  0.1600 -2.9757  0.3439
 4444TIP3   OH234746   1.672   3.692   4.486  0.3442 -0.4460  0.2285
 4444TIP3    H134747   1.741   3.688   4.552 -0.4901  2.2165  1.3873
 4444TIP3    H234748   1.591   3.688   4.536 -0.3023  1.7010 -0.5881
 4445TIP3   OH234749   0.884   3.766   2.434  0.3002  0.2205 -0.3574
 4445TIP3    H134750   0.810   3.715   2.403 -1.0570  1.6983  0.2882
 4445TIP3    H234751   0.866   3.782   2.526  1.9894 -0.2918  0.1030
 4446TIP3   OH234752   6.212   5.116   0.043  0.0296 -0.5402 -0.2325
 4446TIP3    H134753   6.304   5.138   0.056  0.3215 -0.2704 -2.3513
 4446TIP3    H234754   6.214   5.032  -0.003 -0.8429 -1.0749  0.6695
 4447TIP3   OH234755   5.432   5.671  15.375  0.0416  0.2214  0.0677
 4447TIP3    H134756   5.344   5.664  15.412  0.1406 -2.9253 -0.0961
 4447TIP3    H234757   5.421   5.650  15.282  0.9606 -0.2827  0.0650
 4448TIP3   OH234758   1.704   4.700  11.354 -0.1530  0.0533 -0.1403
 4448TIP3    H134759   1.608   4.698  11.345 -0.1622 -1.7073 -0.0215
 4448TIP3    H234760   1.724   4.791  11.374 -2.0736  0.0043  2.5696
 4449TIP3   OH234761   0.619   6.482  12.306 -0.2995  0.3076 -0.2909
 4449TIP3    H134762   0.580   6.570  12.301  0.0642  0.4444 -0.8544
 4449TIP3    H234763   0.544   6.423  12.310 -0.5534  0.6248 -0.2890
 4450TIP3   OH234764   4.546   0.676  15.334  0.7612  0.6852  0.1450
 4450TIP3    H134765   4.456   0.692  15.361 -0.0720 -0.8202 -1.4902
 4450TIP3    H234766   4.575   0.602  15.387  0.4807  0.2157 -0.3386
 4451TIP3   OH234767   5.390   0.202  16.989 -0.2036 -0.3921  0.5400
 4451TIP3    H134768   5.348   0.168  16.910  1.9927 -1.4629 -0.2660
 4451TIP3    H234769   5.408   0.294  16.968 -1.9765  0.0773  0.8883
 4452TIP3   OH234770   0.087   4.659  13.397 -0.5808 -0.1756 -0.1507
 4452TIP3    H134771  -0.007   4.674  13.408 -0.7465 -0.4766 -1.1113
 4452TIP3    H234772   0.102   4.662  13.303  0.2252 -1.0285 -0.0673
 4453TIP3   OH234773   5.774   5.311  14.599 -0.7920  0.2607 -0.3169
 4453TIP3    H134774   5.704   5.356  14.647 -1.5836 -0.5251 -0.6826
 4453TIP3    H234775   5.846   5.304  14.662 -2.0213 -1.2810  1.0208
 4454TIP3   OH234776   0.288   4.496   3.797  0.4651 -0.9374 -0.2439
 4454TIP3    H134777   0.252   4.579   3.828  1.8712  0.1931 -1.4913
 4454TIP3    H234778   0.283   4.502   3.702 -1.1758 -3.1406 -0.3975
 4455TIP3   OH234779   6.217   2.785   1.657  0.1509  0.0353 -0.5976
 4455TIP3    H134780   6.128   2.799   1.624  0.4238  1.0808 -0.9541
 4455TIP3    H234781   6.260   2.734   1.588  0.5697  1.7737 -1.7032
 4456TIP3   OH234782   2.334   4.276  14.573 -0.0313 -0.6918  0.0540
 4456TIP3    H134783   2.418   4.232  14.583  0.1379 -0.4819 -0.4321
 4456TIP3    H234784   2.346   4.361  14.617  0.3424 -0.2429 -0.9002
 4457TIP3   OH234785   1.366   0.082   0.121  0.2890  0.4152  0.1590
 4457TIP3    H134786   1.359   0.146   0.192  0.8731  0.2349  0.3832
 4457TIP3    H234787   1.292   0.024   0.134  0.5884  0.1813  0.8285
 4458TIP3   OH234788   6.102   5.210   2.212 -0.0679  0.4731 -0.3479
 4458TIP3    H134789   6.109   5.231   2.305 -1.3126 -0.0159 -0.1184
 4458TIP3    H234790   6.047   5.131   2.209 -1.2991  1.3121 -1.5511
 4459TIP3   OH234791   4.672   0.030   1.673 -0.5780 -0.3032  0.0089
 4459TIP3    H134792   4.624   0.099   1.627 -0.5457  0.0713  0.5296
 4459TIP3    H234793   4.609  -0.041   1.682 -1.0455  0.1815  0.6791
 4460TIP3   OH234794   1.768   6.715   2.937  0.5235  0.2312 -0.3817
 4460TIP3    H134795   1.675   6.689   2.937  1.1212 -2.2109  0.3973
 4460TIP3    H234796   1.799   6.689   2.850  1.0355 -1.5163  0.2704
 4461TIP3   OH234797   0.023   0.201   0.181 -0.0199  0.2755  0.0099
 4461TIP3    H134798   0.033   0.106   0.190 -1.0145 -0.2022 -2.7693
 4461TIP3    H234799  -0.030   0.227   0.256 -2.1198 -1.8806 -0.5945
 4462TIP3   OH234800   0.719   5.604   4.253 -0.6314  0.3998 -0.0729
 4462TIP3    H134801   0.781   5.542   4.214 -1.2362 -0.2123 -0.0729
 4462TIP3    H234802   0.769   5.685   4.262  0.9736 -0.7270  2.2326
 4463TIP3   OH234803   3.844   2.183   3.354 -0.2839 -0.0529  0.3780
 4463TIP3    H134804   3.785   2.138   3.414 -1.1558  1.6267  0.8438
 4463TIP3    H234805   3.920   2.206   3.408  0.2927 -1.1347  0.0718
 4464TIP3   OH234806   0.183   6.351   5.375 -0.3121 -0.0842 -0.1829
 4464TIP3    H134807   0.091   6.377   5.378 -0.5918 -1.0285 -0.2442
 4464TIP3    H234808   0.191   6.300   5.294 -0.2042 -1.6619  0.7810
 4465TIP3   OH234809   3.344   6.100  12.922 -0.0483 -0.3894  0.1752
 4465TIP3    H134810   3.296   6.017  12.921  0.1449 -0.5063  0.3795
 4465TIP3    H234811   3.282   6.163  12.961 -1.0431  0.1098 -2.0669
 4466TIP3   OH234812   6.111   6.062   4.716  0.0484  0.6608 -0.1229
 4466TIP3    H134813   6.086   6.003   4.645  0.4000  2.3949 -1.7642
 4466TIP3    H234814   6.027   6.089   4.754 -0.1231 -0.6609  0.5041
 4467TIP3   OH234815   1.082   4.930   2.404  0.2059  0.3042 -0.3733
 4467TIP3    H134816   0.998   4.934   2.358 -0.1265  1.2452  0.2782
 4467TIP3    H234817   1.101   5.021   2.427  2.0279  0.2680 -1.5883
 4468TIP3   OH234818   6.022   4.600  13.868  0.2002  0.2959 -0.5454
 4468TIP3    H134819   5.956   4.621  13.934  0.3401 -0.2961 -0.2156
 4468TIP3    H234820   6.100   4.650  13.896  0.4445 -0.4154  0.0806
 4469TIP3   OH234821   2.426   5.250  13.300 -0.1311 -1.1515 -0.0022
 4469TIP3    H134822   2.520   5.246  13.282 -0.5265 -1.5205 -2.3282
 4469TIP3    H234823   2.389   5.290  13.221 -1.9596 -1.3436  0.7300
 4470TIP3   OH234824   0.344   2.578  12.162  0.1395  0.2642 -0.8292
 4470TIP3    H134825   0.379   2.504  12.213 -1.3659  0.9712  1.3902
 4470TIP3    H234826   0.306   2.537  12.084 -0.5560 -1.3281  0.2778
 4471TIP3   OH234827   0.380   3.143   5.817  0.1403 -0.6514 -0.5577
 4471TIP3    H134828   0.455   3.158   5.876  0.1490 -2.0972 -0.1743
 4471TIP3    H234829   0.358   3.051   5.829 -1.8433 -0.2175 -0.5108
 4472TIP3   OH234830   6.504   1.057   5.128 -0.2771 -0.5061 -0.3997
 4472TIP3    H134831   6.453   0.992   5.176  0.1354  0.1786  1.0231
 4472TIP3    H234832   6.527   1.123   5.194 -0.0548  0.7052 -1.6389
 4473TIP3   OH234833   2.501   4.374   0.002  0.2250  0.0732  0.1071
 4473TIP3    H134834   2.432   4.426   0.044 -0.2774 -0.6412  0.1866
 4473TIP3    H234835   2.521   4.421  -0.079 -0.4895  0.1871 -0.0125
 4474TIP3   OH234836   3.047   1.155  11.606 -0.5853  0.0877  0.3203
 4474TIP3    H134837   3.112   1.190  11.544  0.1084  0.3056  1.1497
 4474TIP3    H234838   3.099   1.110  11.672 -1.0905  1.9900  2.1413
 4475TIP3   OH234839   3.700   3.618  15.583  0.2911 -0.4482 -0.6998
 4475TIP3    H134840   3.713   3.602  15.676 -3.3499  0.2329  0.0742
 4475TIP3    H234841   3.762   3.559  15.540  1.3835 -1.5299  2.1049
 4476TIP3   OH234842   6.062   2.542  14.105 -0.5936  0.3132  0.0358
 4476TIP3    H134843   6.116   2.600  14.160 -0.2218 -0.7515  0.8306
 4476TIP3    H234844   5.975   2.546  14.143 -0.6167  0.5106 -0.0382
 4477TIP3   OH234845   6.343   3.751  13.880 -0.0635 -0.2517  0.3578
 4477TIP3    H134846   6.429   3.714  13.898  0.1667  1.0394  2.1878
 4477TIP3    H234847   6.358   3.819  13.814 -0.2555 -2.2342 -1.8397
 4478TIP3   OH234848   5.631   2.620  14.730 -0.0227 -0.0808  0.3577
 4478TIP3    H134849   5.632   2.698  14.675 -1.7580  0.1533  0.5931
 4478TIP3    H234850   5.547   2.626  14.777  0.8360 -0.9195  2.0663
 4479TIP3   OH234851   0.726   4.004  14.823  0.0462 -0.1176  0.2857
 4479TIP3    H134852   0.768   3.922  14.850 -0.0541 -0.1004  0.4928
 4479TIP3    H234853   0.634   3.992  14.844 -0.4856 -1.0360 -2.1999
 4480TIP3   OH234854   4.513   1.201  10.047  0.3543  0.1688  0.5690
 4480TIP3    H134855   4.492   1.109  10.066  1.4214  0.0649  1.3486
 4480TIP3    H234856   4.545   1.235  10.130  1.3663  0.8416 -0.0785
 4481TIP3   OH234857   2.616   4.793  12.676 -0.4920  0.2035  0.5718
 4481TIP3    H134858   2.610   4.752  12.589 -0.3319  1.2567  0.0423
 4481TIP3    H234859   2.657   4.878  12.659 -2.6988  1.4848  1.3337
 4482TIP3   OH234860   2.160   6.709  15.358 -0.0896 -0.4969  0.5968
 4482TIP3    H134861   2.075   6.752  15.366  0.5708  1.2265 -0.9386
 4482TIP3    H234862   2.143   6.632  15.303 -0.2499  1.4770 -2.3316
 4483TIP3   OH234863   0.959   3.282  15.019  0.0677  0.5068  0.2492
 4483TIP3    H134864   0.873   3.283  14.977  0.0431 -0.1559  0.2791
 4483TIP3    H234865   1.021   3.283  14.946  0.0549 -3.4623 -0.0145
 4484TIP3   OH234866   0.649   2.662   0.941  0.1694 -0.7672 -0.4624
 4484TIP3    H134867   0.585   2.609   0.893 -0.5920  0.6128 -1.0097
 4484TIP3    H234868   0.732   2.646   0.895 -0.1576 -1.0614 -0.9646
 4485TIP3   OH234869   4.874   6.681  16.115 -0.0589  0.6878  0.0816
 4485TIP3    H134870   4.940   6.633  16.064 -0.1983  0.3969  0.1737
 4485TIP3    H234871   4.924   6.739  16.171  0.0988  1.0936 -0.4664
 4486TIP3   OH234872   4.809   6.028   1.464 -0.2475  0.2765 -0.1747
 4486TIP3    H134873   4.851   5.945   1.483 -1.0474  0.0449  0.6651
 4486TIP3    H234874   4.725   6.005   1.426  0.3407  0.7328 -1.8110
 4487TIP3   OH234875   5.408   3.568   5.235 -0.1983 -0.2192  0.1867
 4487TIP3    H134876   5.339   3.591   5.173  0.1196 -1.0301 -0.4913
 4487TIP3    H234877   5.375   3.598   5.320 -1.6251 -1.0507 -0.0395
 4488TIP3   OH234878   4.725   4.276  16.415  0.0366 -0.1182 -0.0624
 4488TIP3    H134879   4.716   4.293  16.321  0.0258 -1.5072 -0.3425
 4488TIP3    H234880   4.792   4.208  16.420  0.5888  0.4821  1.0089
 4489TIP3   OH234881   6.591   5.895   3.360  0.3935 -0.0608 -0.6871
 4489TIP3    H134882   6.551   5.899   3.273  1.2765 -1.5521 -1.1943
 4489TIP3    H234883   6.517   5.887   3.420 -0.2027  0.4374 -1.3455
 4490TIP3   OH234884   1.043   0.018   5.796  0.1917  0.0143  0.1427
 4490TIP3    H134885   1.089  -0.050   5.845  1.7222  0.8724 -0.0251
 4490TIP3    H234886   0.986   0.060   5.860 -0.1131 -0.8596  0.4478
 4491TIP3   OH234887   4.179   3.504   3.215 -0.7642  0.0100  0.4587
 4491TIP3    H134888   4.087   3.481   3.197 -0.9980  0.3692  1.1385
 4491TIP3    H234889   4.221   3.420   3.235 -0.7265 -0.2701 -0.7164
 4492TIP3   OH234890   1.666   5.310  14.211  0.2641  0.4566 -0.2271
 4492TIP3    H134891   1.722   5.292  14.136 -0.4662  0.5104 -0.8047
 4492TIP3    H234892   1.592   5.249  14.199  0.0158  0.6542  0.3015
 4493TIP3   OH234893   2.967   3.681   4.273 -0.0943  0.3498 -0.3596
 4493TIP3    H134894   2.912   3.620   4.322 -0.8081  1.5572  0.3920
 4493TIP3    H234895   2.953   3.766   4.316  1.3782  0.9298 -0.9542
 4494TIP3   OH234896   6.310   0.084   5.374  0.3501 -0.1193 -0.0867
 4494TIP3    H134897   6.238   0.021   5.372  0.2699 -0.2801  3.2007
 4494TIP3    H234898   6.388   0.031   5.387  0.7682  0.2479 -0.9921
 4495TIP3   OH234899   5.338   4.155  15.089  0.2279 -0.1385 -0.2669
 4495TIP3    H134900   5.429   4.143  15.119 -0.2284 -2.6051  0.3882
 4495TIP3    H234901   5.285   4.143  15.168 -0.6998  1.7096 -0.5563
 4496TIP3   OH234902   3.894   6.185   0.281  0.3329  0.0846  0.0922
 4496TIP3    H134903   3.981   6.216   0.307  0.2935  1.2275 -1.0714
 4496TIP3    H234904   3.901   6.090   0.285  1.0178  0.1745  1.9543
 4497TIP3   OH234905   2.786   5.105   1.213  0.1248  0.3947  0.2350
 4497TIP3    H134906   2.715   5.047   1.240  0.9788  0.6744  3.6390
 4497TIP3    H234907   2.758   5.192   1.244  0.7323  1.0268 -0.9368
 4498TIP3   OH234908   1.456   2.308  10.649 -0.1998 -0.0114  0.2665
 4498TIP3    H134909   1.501   2.392  10.654  1.3793 -0.8310  0.4665
 4498TIP3    H234910   1.363   2.330  10.649  0.1890  1.7651 -0.5700
 4499TIP3   OH234911   4.976   5.154   1.735  0.0833 -0.5472  0.1716
 4499TIP3    H134912   5.022   5.176   1.654 -0.0727 -0.2077  0.1706
 4499TIP3    H234913   5.022   5.078   1.769  0.6375 -0.2218  0.1644
 4500TIP3   OH234914   6.138   6.321  12.088 -0.1152 -0.2028  0.4087
 4500TIP3    H134915   6.083   6.293  12.162 -0.0996  0.1096  0.5374
 4500TIP3    H234916   6.076   6.353  12.023 -0.0919  0.0179  0.4976
 4501TIP3   OH234917   0.207   3.735   0.803  0.1044 -0.0795  0.6423
 4501TIP3    H134918   0.212   3.775   0.889  1.7744 -2.6711  1.8695
 4501TIP3    H234919   0.121   3.693   0.800 -0.4175  0.9792  0.5590
 4502TIP3   OH234920   2.223   3.719   0.344 -0.2135 -0.3571  0.3901
 4502TIP3    H134921   2.162   3.787   0.316 -0.7174 -0.0560  2.1067
 4502TIP3    H234922   2.199   3.643   0.291 -0.3513  0.4770 -0.7867
 4503TIP3   OH234923   0.384   0.239  12.364 -0.5786  0.2241  0.3316
 4503TIP3    H134924   0.347   0.310  12.311 -0.3359 -0.0095 -0.1521
 4503TIP3    H234925   0.436   0.283  12.431  0.6645  0.4843 -0.7674
 4504TIP3   OH234926   6.415   0.747   1.125  0.1591  0.2858  0.0245
 4504TIP3    H134927   6.438   0.694   1.049 -0.1229  0.5112 -0.2198
 4504TIP3    H234928   6.459   0.830   1.111  1.0223 -0.0505  0.6594
 4505TIP3   OH234929   5.825   0.369  12.526  0.2347 -0.5337 -0.4436
 4505TIP3    H134930   5.807   0.292  12.471 -0.3861 -0.0926 -0.8704
 4505TIP3    H234931   5.839   0.333  12.614  0.4377 -1.1758 -0.7329
 4506TIP3   OH234932   3.118   1.590  16.681 -0.3441 -0.7651 -0.1997
 4506TIP3    H134933   3.176   1.661  16.709 -0.6618  0.0822 -1.5643
 4506TIP3    H234934   3.171   1.511  16.689 -0.0716 -0.4461  1.6411
 4507TIP3   OH234935   2.556   1.839  12.906 -0.6049 -1.0153 -0.5631
 4507TIP3    H134936   2.579   1.890  12.983 -0.0324 -1.7119 -0.2608
 4507TIP3    H234937   2.614   1.764  12.908  0.8483 -0.0716 -2.7586
 4508TIP3   OH234938   2.740   2.186  13.466  0.2612  0.1723  0.2367
 4508TIP3    H134939   2.708   2.119  13.526  1.7492 -1.6096 -0.8482
 4508TIP3    H234940   2.680   2.182  13.391  0.5225 -0.2051  0.0404
 4509TIP3   OH234941   1.924   5.360   3.857  0.1598 -0.6362 -0.1984
 4509TIP3    H134942   1.939   5.271   3.889 -0.0756  0.0019  1.8343
 4509TIP3    H234943   1.966   5.416   3.922 -0.9639  0.7751 -0.6438
 4510TIP3   OH234944   1.357   0.725   2.913 -0.0566 -0.1063  0.0676
 4510TIP3    H134945   1.301   0.662   2.959  0.1065 -0.5313 -0.3110
 4510TIP3    H234946   1.446   0.704   2.941 -0.0941  0.7186  0.8455
 4511TIP3   OH234947   5.766   3.431  11.362 -0.6700  0.3134  0.4298
 4511TIP3    H134948   5.823   3.354  11.361 -0.8487  0.1602 -1.2695
 4511TIP3    H234949   5.793   3.479  11.440  1.6608  0.1117 -0.1550
 4512TIP3   OH234950   1.962   1.612  12.246 -0.5722  0.9976 -0.3052
 4512TIP3    H134951   2.033   1.588  12.305 -1.3081 -0.0517  0.1785
 4512TIP3    H234952   1.885   1.624  12.302 -1.5836 -1.2050 -1.0948
 4513TIP3   OH234953   1.663   4.267   4.870  0.4545  0.0607  0.3905
 4513TIP3    H134954   1.649   4.209   4.945  0.2971 -0.3914  0.0156
 4513TIP3    H234955   1.609   4.230   4.800  0.4510  0.5865  0.1051
 4514TIP3   OH234956   4.828   6.655   6.006  0.6968  0.0030 -0.4581
 4514TIP3    H134957   4.909   6.657   6.057  0.8290 -0.0952 -0.6619
 4514TIP3    H234958   4.763   6.697   6.062  1.3064  1.7756 -1.0421
 4515TIP3   OH234959   5.355   6.240   2.828 -0.2278 -0.1895 -0.4262
 4515TIP3    H134960   5.298   6.236   2.905 -1.1772 -2.0623 -1.1406
 4515TIP3    H234961   5.353   6.332   2.801  0.0762  0.4900  1.7116
 4516TIP3   OH234962   2.029   6.028  14.852 -0.0647  0.0174 -0.2633
 4516TIP3    H134963   2.034   5.979  14.934 -0.0686 -2.9864 -1.9411
 4516TIP3    H234964   1.940   6.062  14.850 -1.1959 -2.7037 -0.4464
 4517TIP3   OH234965   0.937   0.672   5.876  0.5274  0.3461  0.6406
 4517TIP3    H134966   0.988   0.687   5.797  1.0734  0.8524  1.0783
 4517TIP3    H234967   0.902   0.583   5.866  0.4168  0.4791 -0.2526
 4518TIP3   OH234968   1.728   6.466   1.593 -0.4062  0.9224 -0.0088
 4518TIP3    H134969   1.660   6.521   1.630  1.1159  2.3179  0.8647
 4518TIP3    H234970   1.792   6.456   1.663  0.4324 -0.1017 -0.8732
 4519TIP3   OH234971   5.344   6.633   2.257  0.0828  0.3934 -0.0454
 4519TIP3    H134972   5.256   6.622   2.293  0.2795  1.1578  0.7122
 4519TIP3    H234973   5.337   6.710   2.200 -0.0544 -0.3738 -1.0865
 4520TIP3   OH234974   2.039   6.305   5.902 -0.3481 -0.1883 -0.6372
 4520TIP3    H134975   2.030   6.214   5.873  0.1814 -0.5232  0.2281
 4520TIP3    H234976   2.132   6.325   5.888 -0.1066 -0.3241  0.7058
 4521TIP3   OH234977   1.486   6.449  14.183 -0.2276  0.3179  0.1201
 4521TIP3    H134978   1.397   6.429  14.211 -0.6236 -0.2007 -1.4483
 4521TIP3    H234979   1.505   6.535  14.221 -1.3002  0.3267  0.6577
 4522TIP3   OH234980   1.362   2.491  16.915 -0.1596  0.1857  0.0881
 4522TIP3    H134981   1.382   2.485  17.009 -3.6135  0.6971  0.9773
 4522TIP3    H234982   1.443   2.525  16.876  1.1926  0.5785  2.9460
 4523TIP3   OH234983   1.068   2.074   3.044  0.1683 -0.5553 -0.4457
 4523TIP3    H134984   1.038   1.989   3.011  3.7120 -2.6565  1.0734
 4523TIP3    H234985   1.118   2.052   3.123  0.4440  3.1159  0.5835
 4524TIP3   OH234986   5.373   2.882  14.266 -0.3410  0.3920  0.1396
 4524TIP3    H134987   5.400   2.815  14.203 -0.0397  0.9206 -0.2992
 4524TIP3    H234988   5.295   2.846  14.308 -0.7116  0.1559 -0.7432
 4525TIP3   OH234989   3.294   2.898  15.251  0.3900 -0.5775  0.2017
 4525TIP3    H134990   3.361   2.933  15.192 -1.6829  1.5434 -1.1082
 4525TIP3    H234991   3.316   2.934  15.337  0.7847  0.3511 -0.2770
 4526TIP3   OH234992   2.405   6.780   2.805 -0.3803 -0.3496 -0.0024
 4526TIP3    H134993   2.431   6.870   2.786 -0.3948 -0.8445 -2.9445
 4526TIP3    H234994   2.487   6.737   2.832  0.3960 -0.1683 -1.8879
 4527TIP3   OH234995   3.354   5.877  11.271 -0.4998 -0.0370 -0.6417
 4527TIP3    H134996   3.407   5.892  11.192 -0.0912 -0.6975 -0.4997
 4527TIP3    H234997   3.310   5.961  11.286 -0.4382  0.1549 -1.4640
 4528TIP3   OH234998   5.166   3.224   5.531 -0.3052  0.4654 -0.0765
 4528TIP3    H134999   5.158   3.176   5.613 -0.6050  0.9064  0.1557
 4528TIP3    H235000   5.256   3.257   5.531 -0.1459  0.0444 -0.1662
 4529TIP3   OH235001   0.985   3.066  16.938  0.6297 -0.6233 -0.0988
 4529TIP3    H135002   1.032   3.145  16.912  3.5945 -1.8950  0.9837
 4529TIP3    H235003   0.981   3.071  17.033  0.1588 -1.4179 -0.0673
 4530TIP3   OH235004   1.950   6.680   6.632 -0.5568  0.5273 -0.0414
 4530TIP3    H135005   1.909   6.611   6.685  0.7003 -0.2981 -0.0910
 4530TIP3    H235006   2.005   6.632   6.569  0.4622  1.5723  0.0211
 4531TIP3   OH235007   5.329   6.514  12.396 -1.2563  0.4566 -0.1292
 4531TIP3    H135008   5.277   6.555  12.466  1.2866  0.7670  1.7711
 4531TIP3    H235009   5.354   6.429  12.432  2.4529  1.7220  0.7861
 4532TIP3   OH235010   4.696   4.799   3.263 -0.6633 -0.4377 -0.5561
 4532TIP3    H135011   4.660   4.725   3.312 -0.8744 -1.2727 -1.9128
 4532TIP3    H235012   4.668   4.877   3.312  2.4817 -1.2001  2.9225
 4533TIP3   OH235013   4.651   1.775   6.271 -0.1407 -0.2798  0.5448
 4533TIP3    H135014   4.719   1.767   6.339  1.0141  0.4310 -0.4841
 4533TIP3    H235015   4.698   1.806   6.194 -1.6191  0.0265 -0.2673
 4534TIP3   OH235016   6.104   2.633   4.178 -0.3614  0.2172  0.0657
 4534TIP3    H135017   6.106   2.668   4.267  2.4583  0.1415  0.1185
 4534TIP3    H235018   6.131   2.707   4.123 -0.3647 -0.2122 -0.5128
 4535TIP3   OH235019   6.632   4.968  16.759 -0.3812  0.1459  0.4068
 4535TIP3    H135020   6.713   5.002  16.719 -1.8604  1.0073 -2.1078
 4535TIP3    H235021   6.661   4.929  16.841  3.0733 -2.2283 -1.6487
 4536TIP3   OH235022   5.662   4.690   0.988  0.3099 -1.2146 -0.6850
 4536TIP3    H135023   5.751   4.660   1.005  1.0324  1.1500  0.0127
 4536TIP3    H235024   5.606   4.627   1.035  1.6105 -2.4205 -0.7018
 4537TIP3   OH235025   5.853   3.976  11.389 -0.1258  0.1160 -0.1175
 4537TIP3    H135026   5.793   3.993  11.316 -0.4209  2.1053  0.5306
 4537TIP3    H235027   5.921   4.043  11.381  0.1886 -0.0362  1.0688
 4538TIP3   OH235028   4.506   6.727   2.186 -0.0503 -0.1727 -0.4814
 4538TIP3    H135029   4.464   6.643   2.205  0.8392 -0.5040  0.0599
 4538TIP3    H235030   4.560   6.711   2.109 -1.1988  0.3640 -1.4391
 4539TIP3   OH235031   3.667   3.391  12.489  0.3958 -0.3778  0.3521
 4539TIP3    H135032   3.623   3.320  12.534 -2.9524  1.2947  0.0277
 4539TIP3    H235033   3.601   3.427  12.430  2.2139  2.3813 -0.2065
 4540TIP3   OH235034   4.024   3.722  12.240 -0.4292 -0.4845  0.0011
 4540TIP3    H135035   4.077   3.792  12.203 -2.9337  0.2194 -2.6428
 4540TIP3    H235036   4.009   3.747  12.331 -1.2427  2.5019 -0.8525
 4541TIP3   OH235037   2.817   4.059   2.752  0.5935  0.5234 -0.3795
 4541TIP3    H135038   2.827   3.975   2.707  0.9867 -0.1650  0.9322
 4541TIP3    H235039   2.730   4.090   2.728 -0.1605 -0.9869  0.2749
 4542TIP3   OH235040   4.808   6.106   6.172 -0.3767 -0.4785  0.2254
 4542TIP3    H135041   4.875   6.070   6.114  0.2866 -0.5568  1.0200
 4542TIP3    H235042   4.841   6.193   6.196 -1.0315 -0.1222 -0.1394
 4543TIP3   OH235043   2.431   4.326   5.331  0.1785 -0.0217 -0.2439
 4543TIP3    H135044   2.350   4.344   5.379  0.7256  0.4075  0.5281
 4543TIP3    H235045   2.495   4.305   5.398  0.9457  0.5358 -0.7868
 4544TIP3   OH235046   6.231   1.415  12.436  0.1796 -0.2047  0.1978
 4544TIP3    H135047   6.181   1.370  12.504  0.2920 -1.8066 -0.7394
 4544TIP3    H235048   6.322   1.397  12.458  0.1959 -1.6564 -0.9508
 4545TIP3   OH235049   4.388   0.552  11.172 -0.8672  0.0196  0.1287
 4545TIP3    H135050   4.362   0.554  11.080 -0.3188 -0.0004 -0.0324
 4545TIP3    H235051   4.406   0.644  11.193  1.7907 -0.2230 -0.6264
 4546TIP3   OH235052   5.984   5.768   5.114 -0.6749 -0.0970 -0.0635
 4546TIP3    H135053   6.044   5.792   5.185 -1.1430 -1.6412  0.8940
 4546TIP3    H235054   6.039   5.769   5.035  0.3660 -0.4428  0.6308
 4547TIP3   OH235055   1.662   6.637   2.528  0.2920 -0.4204  0.3070
 4547TIP3    H135056   1.687   6.559   2.479 -1.7510 -0.4232 -0.8346
 4547TIP3    H235057   1.660   6.707   2.463  1.3146  0.4500  1.1635
 4548TIP3   OH235058   4.485   4.258   4.402 -0.5072 -0.2790 -0.1824
 4548TIP3    H135059   4.508   4.251   4.309 -0.8811 -0.8221 -0.2386
 4548TIP3    H235060   4.557   4.307   4.441 -0.6490  0.4906 -0.8748
 4549TIP3   OH235061   0.432   6.362   0.090 -0.0428 -0.1346  0.3062
 4549TIP3    H135062   0.427   6.455   0.110 -0.4539 -0.1760  0.4063
 4549TIP3    H235063   0.485   6.325   0.161 -1.7110 -0.3235  1.5154
 4550TIP3   OH235064   2.831   3.269  10.345  0.4793 -0.0864 -0.3438
 4550TIP3    H135065   2.768   3.340  10.340 -1.2346 -1.5577 -0.6807
 4550TIP3    H235066   2.860   3.256  10.254  0.3857 -0.1595 -0.3633
 4551TIP3   OH235067   6.683   4.203   4.592 -0.9119  0.3425 -0.0116
 4551TIP3    H135068   6.657   4.216   4.500 -1.8298  0.2233  0.2195
 4551TIP3    H235069   6.701   4.292   4.624 -0.3114  0.3597 -0.3748
 4552TIP3   OH235070   3.916   0.518   5.046  0.4698  0.1199  0.1231
 4552TIP3    H135071   3.832   0.520   5.000  1.2984  0.7592 -1.4340
 4552TIP3    H235072   3.931   0.425   5.065  0.0789 -0.1545 -0.8598
 4553TIP3   OH235073   0.614   2.182  16.493 -0.3159  0.1403 -0.4002
 4553TIP3    H135074   0.676   2.193  16.565 -0.8111 -0.1933  0.0843
 4553TIP3    H235075   0.538   2.234  16.519 -0.1852  0.6855 -1.0689
 4554TIP3   OH235076   2.878   1.180  10.723  0.1192 -0.3084 -0.2759
 4554TIP3    H135077   2.871   1.214  10.634 -0.0406  0.0771 -0.1198
 4554TIP3    H235078   2.875   1.258  10.779  0.7027 -0.5113  0.0435
 4555TIP3   OH235079   3.384   0.731   1.027 -0.4247  0.6564 -0.4948
 4555TIP3    H135080   3.459   0.756   0.973  0.6709 -0.5191  0.4347
 4555TIP3    H235081   3.361   0.811   1.074  1.5787  0.5671  0.7385
 4556TIP3   OH235082   0.163   3.157   5.305 -0.0962 -0.5518  0.0240
 4556TIP3    H135083   0.203   3.091   5.249 -0.2137  1.0507 -2.0894
 4556TIP3    H235084   0.077   3.121   5.327  0.1713 -1.4463 -0.3640
 4557TIP3   OH235085   2.964   5.761   1.078  0.1063  0.2905  0.0273
 4557TIP3    H135086   2.950   5.726   1.166  0.5359  0.8996  0.3430
 4557TIP3    H235087   2.965   5.856   1.090  0.7665  0.3630 -0.5441
 4558TIP3   OH235088   1.603   3.719   3.075 -0.2552  0.3277 -0.1943
 4558TIP3    H135089   1.591   3.805   3.034 -0.1653  0.3710 -0.1289
 4558TIP3    H235090   1.680   3.729   3.131 -0.5571  0.3490  0.2150
 4559TIP3   OH235091   0.644   6.607  15.596 -0.1204  0.0539  0.0319
 4559TIP3    H135092   0.565   6.619  15.648  0.2617 -0.8221  0.8520
 4559TIP3    H235093   0.665   6.694  15.563 -0.4977  0.5928  1.1607
 4560TIP3   OH235094   0.686   6.688   4.126 -0.0291  0.0756  0.2487
 4560TIP3    H135095   0.732   6.690   4.041 -1.1965 -0.0284 -0.4055
 4560TIP3    H235096   0.594   6.674   4.103 -0.4938  0.9310  1.4956
 4561TIP3   OH235097   0.439   3.612   2.183 -0.0889 -0.3126 -0.4127
 4561TIP3    H135098   0.399   3.551   2.122  0.5145 -1.7923  0.6164
 4561TIP3    H235099   0.375   3.624   2.253  0.7904 -1.9008  0.7284
 4562TIP3   OH235100   3.276   0.424  12.114 -0.1579  0.2632  0.2483
 4562TIP3    H135101   3.354   0.479  12.105 -0.6416  1.3021  1.9527
 4562TIP3    H235102   3.287   0.380  12.198 -1.0941 -0.1101  0.1885
 4563TIP3   OH235103   4.222   3.504  13.240  0.3158 -0.7606  0.2918
 4563TIP3    H135104   4.276   3.458  13.175 -0.5747 -1.9248  0.3278
 4563TIP3    H235105   4.284   3.538  13.304  1.1322 -0.4705 -0.6382
 4564TIP3   OH235106   0.585   1.958  11.878  0.0586  0.2858  0.4317
 4564TIP3    H135107   0.590   1.980  11.972 -0.5177  0.5457  0.4068
 4564TIP3    H235108   0.677   1.951  11.851  0.3316 -2.7828  1.6748
 4565TIP3   OH235109   2.656   0.759   6.291 -0.2989 -0.0339 -0.3842
 4565TIP3    H135110   2.739   0.788   6.253 -0.5953  0.1864 -0.8665
 4565TIP3    H235111   2.654   0.798   6.378  1.0352 -1.6601  0.4525
 4566TIP3   OH235112   2.055   5.808  17.110  0.6890  0.6296 -0.1466
 4566TIP3    H135113   1.983   5.784  17.052 -0.6662  3.6412  0.1427
 4566TIP3    H235114   2.052   5.742  17.180 -2.2062  0.9995  0.1785
 4567TIP3   OH235115   0.329   0.466   6.061 -0.2751 -0.6163 -0.0259
 4567TIP3    H135116   0.279   0.384   6.055 -2.5228  0.7509 -1.2548
 4567TIP3    H235117   0.300   0.506   6.142 -1.5913  0.3781 -0.9467
 4568TIP3   OH235118   3.608   0.284  12.059  0.0096  0.1896  0.3329
 4568TIP3    H135119   3.630   0.202  12.016  0.1980  0.6964 -0.5555
 4568TIP3    H235120   3.614   0.265  12.153  1.4888 -0.4103  0.1304
 4569TIP3   OH235121   6.744   6.225   4.254 -0.0268 -0.0269 -0.5249
 4569TIP3    H135122   6.714   6.176   4.331  1.1175 -1.5937 -1.0323
 4569TIP3    H235123   6.774   6.158   4.193 -0.1058  1.2364 -2.0086
 4570TIP3   OH235124   1.581   3.533  16.684 -0.1999  0.5500  0.3606
 4570TIP3    H135125   1.596   3.438  16.675 -0.2060  0.4574  1.1754
 4570TIP3    H235126   1.663   3.566  16.721  0.2776  1.0817 -1.1279
 4571TIP3   OH235127   0.307   2.338   4.350  0.0332  0.5457 -0.2039
 4571TIP3    H135128   0.236   2.311   4.409  0.3555  0.8338  0.3258
 4571TIP3    H235129   0.332   2.258   4.304  1.2275 -0.1814  1.5981
 4572TIP3   OH235130   0.071   5.477  12.794  0.1006 -0.6646  0.1053
 4572TIP3    H135131   0.028   5.532  12.729  0.9707  0.7824  0.7206
 4572TIP3    H235132   0.020   5.489  12.874 -1.0762 -2.5827 -0.2812
 4573TIP3   OH235133   6.524   5.301   2.090  0.0889  0.1869  0.1509
 4573TIP3    H135134   6.556   5.330   2.004 -2.6594 -1.3008 -1.5454
 4573TIP3    H235135   6.460   5.232   2.069 -1.5369  0.5402  3.3430
 4574TIP3   OH235136   4.194   2.762   6.252  0.0982 -0.0486 -0.3429
 4574TIP3    H135137   4.268   2.816   6.227 -0.0617  0.5864  0.4892
 4574TIP3    H235138   4.233   2.679   6.281  0.3304 -0.4794 -1.8016
 4575TIP3   OH235139   0.281   3.147  16.599  0.3269  0.0591  0.1736
 4575TIP3    H135140   0.288   3.150  16.503 -0.0216 -0.8107  0.1096
 4575TIP3    H235141   0.188   3.163  16.617  0.1926 -0.7910  0.2966
 4576TIP3   OH235142   3.246   1.840  14.764  0.0976 -0.0664 -0.2170
 4576TIP3    H135143   3.224   1.875  14.850  0.4393 -1.9368  0.6974
 4576TIP3    H235144   3.176   1.778  14.744  1.1351 -1.2696 -0.2469
 4577TIP3   OH235145   4.721   4.331  12.550 -0.2705  0.1323 -0.5740
 4577TIP3    H135146   4.762   4.246  12.531 -1.0003 -0.2459 -0.5022
 4577TIP3    H235147   4.679   4.356  12.468 -2.4141 -0.9297  0.1380
 4578TIP3   OH235148   0.227   0.317  15.483  0.3975 -0.7120  1.2274
 4578TIP3    H135149   0.187   0.369  15.552  1.1673 -0.8276  1.7647
 4578TIP3    H235150   0.175   0.236  15.481 -1.9578  0.6992 -0.8150
 4579TIP3   OH235151   4.656   4.019  12.184 -0.7418 -0.1958 -1.2526
 4579TIP3    H135152   4.695   4.051  12.102 -1.0232  0.5287 -1.1105
 4579TIP3    H235153   4.568   4.056  12.185 -0.3379  0.7736 -0.0575
 4580TIP3   OH235154   1.876   3.976  14.317  0.1345  0.3226 -0.5989
 4580TIP3    H135155   1.942   4.003  14.254  1.2480 -0.1845  0.3113
 4580TIP3    H235156   1.921   3.913  14.374 -1.5867 -1.3004 -0.9296
 4581TIP3   OH235157   2.325   1.015  17.074  0.0991  0.0760  0.6108
 4581TIP3    H135158   2.410   1.046  17.105 -0.0961  1.1222  0.1353
 4581TIP3    H235159   2.335   0.920  17.067  2.0373  0.3594 -1.7577
 4582TIP3   OH235160   0.299   2.025  15.919  0.3504 -0.1544 -0.4193
 4582TIP3    H135161   0.322   1.981  16.001 -0.8690 -0.1798 -0.0637
 4582TIP3    H235162   0.308   2.118  15.938 -1.7749 -0.0513  0.4002
 4583TIP3   OH235163   6.323   1.705   3.050 -0.2470  0.5382 -0.4297
 4583TIP3    H135164   6.303   1.789   3.093 -1.1861  1.0096 -1.7105
 4583TIP3    H235165   6.283   1.639   3.107 -3.0027  1.2718 -1.3561
 4584TIP3   OH235166   6.167   3.737   1.935  0.5071  0.0520  0.2112
 4584TIP3    H135167   6.185   3.725   1.841  1.0506  0.3100  0.2835
 4584TIP3    H235168   6.072   3.754   1.938  0.0831 -2.0215 -0.0933
 4585TIP3   OH235169   4.276   1.281  10.800  0.1284 -0.0986 -0.1284
 4585TIP3    H135170   4.342   1.276  10.869 -1.7828 -0.8941  1.7491
 4585TIP3    H235171   4.301   1.213  10.737  0.0690 -1.7282  1.5374
 4586TIP3   OH235172   6.373   0.700  12.435 -0.0040 -0.3573 -0.1189
 4586TIP3    H135173   6.408   0.680  12.521 -0.6567  1.8221  0.7172
 4586TIP3    H235174   6.278   0.696  12.446 -0.0887 -0.7106 -0.9117
 4587TIP3   OH235175   2.608   1.073   2.064  0.6506 -0.1257  0.4306
 4587TIP3    H135176   2.546   1.022   2.012  0.3569  1.0127 -0.3812
 4587TIP3    H235177   2.692   1.060   2.021  0.3365  1.1477 -0.6257
 4588TIP3   OH235178   5.096   2.347  12.777 -0.1704 -0.2600 -0.2859
 4588TIP3    H135179   5.031   2.313  12.716 -1.0682  0.0063  0.4981
 4588TIP3    H235180   5.118   2.434  12.743  0.4217 -0.6823 -1.0175
 4589TIP3   OH235181   0.468   5.789   1.180 -0.0421  0.1504 -0.2692
 4589TIP3    H135182   0.459   5.698   1.155  0.0703 -0.1892  0.8712
 4589TIP3    H235183   0.503   5.787   1.269  0.2322  1.3068 -0.3230
 4590TIP3   OH235184   2.886   6.391  14.976 -0.1818  0.7712  0.3837
 4590TIP3    H135185   2.932   6.475  14.974 -1.8532  1.7135 -0.3165
 4590TIP3    H235186   2.905   6.351  14.892 -1.2770  1.5495 -0.2605
 4591TIP3   OH235187   3.226   2.126   2.537 -0.2439  0.2381 -0.3301
 4591TIP3    H135188   3.231   2.097   2.629 -0.9636  0.6461 -0.1491
 4591TIP3    H235189   3.132   2.128   2.519 -0.3056  3.1007 -0.1138
 4592TIP3   OH235190   4.855   2.845   2.652  0.0079 -0.4869 -0.4158
 4592TIP3    H135191   4.946   2.827   2.627 -0.0994  0.1202 -1.3061
 4592TIP3    H235192   4.813   2.759   2.656  0.4323 -0.7109 -0.7585
 4593TIP3   OH235193   4.668   2.443   5.450  0.1113  0.3921  0.2358
 4593TIP3    H135194   4.748   2.449   5.503 -0.0999  0.4813  0.5429
 4593TIP3    H235195   4.699   2.457   5.360  1.0257 -3.1293 -0.1614
 4594TIP3   OH235196   3.123   0.822  14.704  0.0043  0.2658 -0.0907
 4594TIP3    H135197   3.035   0.830  14.668  0.3439 -1.3466 -1.4168
 4594TIP3    H235198   3.146   0.910  14.732 -2.0530  0.7008  0.4014
 4595TIP3   OH235199   2.210   4.643   4.991  0.4940 -0.2222  0.4120
 4595TIP3    H135200   2.301   4.612   4.983 -0.1458 -2.1504  0.1206
 4595TIP3    H235201   2.172   4.586   5.057 -0.9238 -0.4566 -0.5786
 4596TIP3   OH235202   3.542   1.914   5.762  0.1936 -0.2316 -0.0510
 4596TIP3    H135203   3.572   1.918   5.853  4.5422 -0.0610 -1.2940
 4596TIP3    H235204   3.461   1.863   5.766 -0.7892  1.2045  4.0336
 4597TIP3   OH235205   2.405   0.099   1.577 -0.3643  0.5733  0.5018
 4597TIP3    H135206   2.406   0.169   1.643 -0.7558  0.7590  0.3127
 4597TIP3    H235207   2.405   0.146   1.494  1.3206  0.3551  0.3292
 4598TIP3   OH235208   5.663   4.661   2.305 -0.1408  0.6208  0.1415
 4598TIP3    H135209   5.732   4.727   2.301  0.3275  0.1388  0.0702
 4598TIP3    H235210   5.703   4.587   2.351 -0.8739  0.6406  0.8239
 4599TIP3   OH235211   5.597   5.147  13.375  0.6893  0.6230  0.3811
 4599TIP3    H135212   5.591   5.216  13.441  1.8465 -0.5544  1.7664
 4599TIP3    H235213   5.560   5.187  13.296 -0.7183  2.0771  1.6986
 4600TIP3   OH235214   5.472   4.864  12.715 -0.1251 -0.0651  0.2590
 4600TIP3    H135215   5.461   4.769  12.714  0.5759 -0.1652  0.9723
 4600TIP3    H235216   5.563   4.878  12.690 -0.7475  0.5516 -1.9230
 4601TIP3   OH235217   6.472   2.815   0.214  0.0571 -0.1763 -0.0660
 4601TIP3    H135218   6.559   2.805   0.253 -0.0163 -0.0755  0.1238
 4601TIP3    H235219   6.412   2.817   0.289 -0.0686  0.2121 -0.1777
 4602TIP3   OH235220   4.913   1.062   4.742  0.3993  0.0511  0.2317
 4602TIP3    H135221   4.959   1.027   4.666  0.2540 -1.0981  0.6559
 4602TIP3    H235222   4.821   1.064   4.717  0.4519  0.5099  0.0697
 4603TIP3   OH235223   4.479   1.752  17.048  0.6017 -0.3057 -0.0105
 4603TIP3    H135224   4.447   1.737  17.137  0.2140  0.4729 -0.0147
 4603TIP3    H235225   4.402   1.736  16.992  0.8249 -0.7229 -0.2040
 4604TIP3   OH235226   4.548   4.936  11.496 -0.3638  0.8846  0.0240
 4604TIP3    H135227   4.574   4.945  11.404 -1.8148  0.5097 -0.4542
 4604TIP3    H235228   4.498   5.016  11.514  2.7541  2.6581  1.5785
 4605TIP3   OH235229   0.167   6.244  12.846  0.3418  0.4264 -0.6086
 4605TIP3    H135230   0.075   6.229  12.824 -0.5772  1.1832  2.3332
 4605TIP3    H235231   0.179   6.339  12.836 -0.0342  0.7586  1.5485
 4606TIP3   OH235232   4.767   0.705  13.621  0.2302 -0.2936 -0.6730
 4606TIP3    H135233   4.679   0.694  13.584  0.2536  0.8195 -1.0815
 4606TIP3    H235234   4.798   0.615  13.634 -0.1124 -0.7274 -2.5697
 4607TIP3   OH235235   5.089   5.220   1.330  0.5589  0.3940  0.0760
 4607TIP3    H135236   5.174   5.205   1.371  1.0481  0.2575 -0.9509
 4607TIP3    H235237   5.094   5.310   1.297  0.7748 -0.0299 -1.0608
 4608TIP3   OH235238   1.259   0.330   0.659 -0.9730 -0.8716  0.1228
 4608TIP3    H135239   1.248   0.326   0.754  1.1089 -1.9219  0.3691
 4608TIP3    H235240   1.345   0.292   0.643 -1.0818 -0.2878 -2.1651
 4609TIP3   OH235241   0.070   2.382  12.347 -0.2516 -0.0517  0.0910
 4609TIP3    H135242   0.147   2.436  12.367 -0.6364  1.2426 -1.6875
 4609TIP3    H235243   0.104   2.309  12.296 -0.0523 -0.1495  0.3589
 4610TIP3   OH235244   3.443   1.214  16.858 -0.2266 -0.3717 -0.1508
 4610TIP3    H135245   3.522   1.233  16.909 -0.4822  0.1086  0.0747
 4610TIP3    H235246   3.412   1.130  16.892  0.4326 -0.7836 -0.5534
 4611TIP3   OH235247   2.123   3.635   1.433  0.0178 -0.5420  0.4631
 4611TIP3    H135248   2.211   3.659   1.461  0.6770 -2.0934 -0.1618
 4611TIP3    H235249   2.087   3.715   1.396  1.9088 -0.2940 -1.0561
 4612TIP3   OH235250   5.452   4.108   5.848  0.3802  0.0485 -0.4558
 4612TIP3    H135251   5.477   4.030   5.897  0.5808  0.6107  0.3599
 4612TIP3    H235252   5.532   4.135   5.803  0.2098 -0.4356 -1.0638
 4613TIP3   OH235253   1.308   4.275   6.922 -0.0333 -0.2777  0.2551
 4613TIP3    H135254   1.385   4.219   6.931 -1.3162 -1.9916  1.1457
 4613TIP3    H235255   1.323   4.346   6.984  0.7785 -0.6585  0.5102
 4614TIP3   OH235256   2.455   2.154   2.815 -0.6369 -0.0739 -0.6420
 4614TIP3    H135257   2.390   2.085   2.802  0.5647 -1.1654 -1.1013
 4614TIP3    H235258   2.526   2.132   2.755  0.1790  1.0615 -0.1364
 4615TIP3   OH235259   4.814   1.291  15.149 -0.3291 -0.1077  0.0253
 4615TIP3    H135260   4.761   1.362  15.188  0.2206  1.4635 -1.9204
 4615TIP3    H235261   4.768   1.269  15.068  1.9941  1.4453 -1.8299
 4616TIP3   OH235262   2.103   4.009  11.674 -0.3200 -0.1702 -0.1923
 4616TIP3    H135263   2.133   3.949  11.605 -1.1274  0.0923 -0.7859
 4616TIP3    H235264   2.023   3.969  11.708 -2.8553  2.1465 -2.9414
 4617TIP3   OH235265   6.489   2.521  13.974 -0.2226  0.1875 -0.1186
 4617TIP3    H135266   6.550   2.546  13.905  1.9044  4.0349  2.7947
 4617TIP3    H235267   6.531   2.446  14.017  0.5069  0.3863 -0.4752
 4618TIP3   OH235268   3.924   2.128  14.656 -0.1561  0.6394  0.5266
 4618TIP3    H135269   3.874   2.060  14.701 -1.7550 -0.1836 -2.2283
 4618TIP3    H235270   4.002   2.082  14.624 -0.0801  0.6957  0.6298
 4619TIP3   OH235271   6.649   0.170  14.435  0.7253  0.0162  0.6106
 4619TIP3    H135272   6.723   0.169  14.374  0.4312 -1.4192  0.2349
 4619TIP3    H235273   6.667   0.098  14.496  0.2631  0.4666  1.2934
 4620TIP3   OH235274   0.958   6.661  13.509  0.2580 -0.2222  0.3739
 4620TIP3    H135275   1.027   6.600  13.481  0.4157 -0.1446  0.5893
 4620TIP3    H235276   0.999   6.713  13.578  0.8849  1.6649 -1.3102
 4621TIP3   OH235277   6.177   1.924   3.205  0.0298 -0.4475  0.5076
 4621TIP3    H135278   6.122   1.856   3.244 -2.6578  1.4459  0.2654
 4621TIP3    H235279   6.206   1.977   3.280 -2.8387  1.5470  0.3510
 4622TIP3   OH235280   4.068   6.646   2.581 -0.0047 -0.2199 -0.4380
 4622TIP3    H135281   4.026   6.574   2.628  0.6717 -0.8992 -0.8527
 4622TIP3    H235282   4.127   6.603   2.518 -0.3857  0.6706 -1.4384
 4623TIP3   OH235283   0.143   2.239  15.654  0.2014  0.0270  0.3594
 4623TIP3    H135284   0.171   2.149  15.633  1.7511  0.5169  0.1706
 4623TIP3    H235285   0.166   2.290  15.576  0.9443  0.8834  1.1149
 4624TIP3   OH235286   0.994   4.643  15.126 -0.6204  0.2329 -0.0521
 4624TIP3    H135287   1.040   4.571  15.083 -0.3186 -0.4426  1.3339
 4624TIP3    H235288   0.906   4.611  15.141 -0.3736 -0.0350  0.9330
 4625TIP3   OH235289   0.320   5.476   4.426 -0.5856 -0.1343 -0.1667
 4625TIP3    H135290   0.345   5.559   4.386  1.6813  0.4330  2.0972
 4625TIP3    H235291   0.296   5.499   4.516 -0.0676 -1.8635  0.4618
 4626TIP3   OH235292   1.499   4.730  11.731 -0.1570 -0.1893  0.2153
 4626TIP3    H135293   1.433   4.723  11.801  0.1397 -0.0565  0.5134
 4626TIP3    H235294   1.463   4.795  11.671  1.3179  2.7909  2.2612
 4627TIP3   OH235295   0.742   0.959  16.923  0.1866  0.0231 -0.5599
 4627TIP3    H135296   0.747   1.008  17.005 -1.7455 -0.3810 -0.1454
 4627TIP3    H235297   0.778   1.019  16.857 -1.2152  1.6606  0.0769
 4628TIP3   OH235298   6.142   3.758   1.388 -0.0055 -0.5792  0.1351
 4628TIP3    H135299   6.088   3.835   1.369  1.0140  0.2975  0.6273
 4628TIP3    H235300   6.121   3.696   1.319 -3.1265 -1.1184  1.4105
 4629TIP3   OH235301   6.637   0.902  15.495 -0.0743  0.1620  0.7961
 4629TIP3    H135302   6.663   0.981  15.543 -1.6326  2.1096 -1.3739
 4629TIP3    H235303   6.543   0.895  15.508 -0.5900  0.8522 -1.9462
 4630TIP3   OH235304   3.585   4.716  15.975  0.4652  0.0428  0.2735
 4630TIP3    H135305   3.662   4.688  16.025 -0.0613  1.6451  2.1271
 4630TIP3    H235306   3.517   4.652  15.997  0.5643  0.0834  0.7034
 4631TIP3   OH235307   0.442   0.344   2.609  0.2135 -0.0795 -0.1760
 4631TIP3    H135308   0.401   0.411   2.553  1.9361  1.2593  0.0709
 4631TIP3    H235309   0.536   0.353   2.591  0.5968 -1.3915  1.0460
 4632TIP3   OH235310   1.007   0.615   2.521 -0.0797 -0.2890  0.6615
 4632TIP3    H135311   1.090   0.663   2.522  0.4901 -1.2327 -0.1902
 4632TIP3    H235312   0.979   0.615   2.613  0.1889  1.1530  0.7750
 4633TIP3   OH235313   6.781   5.293  16.921 -0.0198 -0.1679 -0.2492
 4633TIP3    H135314   6.799   5.224  16.856  0.6034  0.8927 -1.2497
 4633TIP3    H235315   6.727   5.356  16.874 -1.5448 -0.4917  1.0022
 4634TIP3   OH235316   3.241   4.021   4.805 -1.0984  0.1764  0.3162
 4634TIP3    H135317   3.318   4.067   4.773  0.1609 -0.7606  1.8132
 4634TIP3    H235318   3.166   4.069   4.769  0.0963  3.1994  1.5457
 4635TIP3   OH235319   0.070   1.425  11.619  0.9055  0.3252 -0.2960
 4635TIP3    H135320  -0.022   1.452  11.609  1.2113  0.8072 -2.1553
 4635TIP3    H235321   0.069   1.331  11.602  0.8420  0.4464 -0.9799
 4636TIP3   OH235322   2.729   2.765   6.286 -0.0674  0.0066 -0.0475
 4636TIP3    H135323   2.808   2.728   6.325 -0.5987 -0.1375  0.9338
 4636TIP3    H235324   2.678   2.690   6.257 -0.9366 -0.0582  1.5307
 4637TIP3   OH235325   2.271   0.227  11.359  0.0883  0.3182  0.1808
 4637TIP3    H135326   2.225   0.311  11.348 -0.0986  0.0703 -1.1584
 4637TIP3    H235327   2.252   0.201  11.449 -2.2647  0.3217 -0.2438
 4638TIP3   OH235328   3.652   5.013   3.345 -0.1030  0.2320  0.3973
 4638TIP3    H135329   3.702   5.056   3.414  0.1798 -0.9683  0.9582
 4638TIP3    H235330   3.699   5.033   3.264  0.1072  0.8272  0.6619
 4639TIP3   OH235331   2.404   3.938   1.126  0.4046 -0.0239 -0.3318
 4639TIP3    H135332   2.408   3.956   1.033 -1.4992  0.0535 -0.4353
 4639TIP3    H235333   2.397   4.024   1.167  0.5121 -0.0938 -0.1644
 4640TIP3   OH235334   0.677   1.342  13.603  0.2833  0.2928  0.2426
 4640TIP3    H135335   0.598   1.358  13.550  0.1147  2.4491  1.0520
 4640TIP3    H235336   0.665   1.254  13.637 -0.5152 -0.4320 -1.7398
 4641TIP3   OH235337   4.237   2.846   3.977  0.0137 -0.2975 -0.4690
 4641TIP3    H135338   4.174   2.906   3.937  0.3356 -1.4533 -2.8996
 4641TIP3    H235339   4.322   2.878   3.947  0.3906 -0.2996  0.5863
 4642TIP3   OH235340   5.055   4.667   5.207  0.6265 -0.0072  0.6410
 4642TIP3    H135341   5.025   4.638   5.293  0.2831 -0.2983  0.4232
 4642TIP3    H235342   4.991   4.733   5.180  0.6588 -0.0136  0.5477
 4643TIP3   OH235343   6.624   4.115   4.328 -0.2307 -0.1769 -0.0424
 4643TIP3    H135344   6.579   4.195   4.300  0.2380  0.3865  0.7592
 4643TIP3    H235345   6.553   4.054   4.348 -0.5991  0.0746 -0.5592
 4644TIP3   OH235346   6.160   5.809  14.908 -0.2676 -0.6283  0.6001
 4644TIP3    H135347   6.165   5.808  15.003 -1.4028 -0.4239  0.6779
 4644TIP3    H235348   6.249   5.786  14.879  0.6932  1.3770  1.6955
 4645TIP3   OH235349   4.455   5.961   5.819 -0.3425  0.1214  0.1152
 4645TIP3    H135350   4.367   5.967   5.781 -0.6841 -0.6834  0.7646
 4645TIP3    H235351   4.511   5.941   5.744 -0.7616  0.2400 -0.2389
 4646TIP3   OH235352   5.646   2.615   4.279  0.3135  0.7300  0.1574
 4646TIP3    H135353   5.554   2.638   4.267  0.5003  1.3109 -0.2170
 4646TIP3    H235354   5.667   2.558   4.205  0.4164  1.1083 -0.1093
 4647TIP3   OH235355   1.762   2.359   0.779 -0.0439 -0.1425 -0.0124
 4647TIP3    H135356   1.845   2.337   0.822 -1.0582 -2.4522  0.9135
 4647TIP3    H235357   1.730   2.436   0.827  0.5790 -0.5020  1.0182
 4648TIP3   OH235358   4.864   1.323   4.115  0.5247  0.2655 -0.1148
 4648TIP3    H135359   4.784   1.349   4.159  0.7155  2.5039 -0.9647
 4648TIP3    H235360   4.845   1.334   4.022  1.1922 -1.1523 -0.4513
 4649TIP3   OH235361   6.775   6.067  10.979  0.2118  0.0816 -0.2623
 4649TIP3    H135362   6.703   6.101  10.925 -0.5406 -2.2021 -0.7928
 4649TIP3    H235363   6.832   6.022  10.917  0.2171 -1.1531  0.6144
 4650TIP3   OH235364   0.692   4.738   4.157 -0.0041  0.5244 -0.2437
 4650TIP3    H135365   0.607   4.772   4.183 -0.1942 -1.1617  1.5979
 4650TIP3    H235366   0.679   4.643   4.151  1.6444  0.2688 -0.2877
 4651TIP3   OH235367   3.137   3.049   2.641  0.4342  0.6440 -0.4432
 4651TIP3    H135368   3.059   2.993   2.647 -0.2890  1.7021  0.4641
 4651TIP3    H235369   3.147   3.066   2.547  0.2073 -0.3588 -0.6617
 4652TIP3   OH235370   5.407   4.683   2.424  0.0634 -0.1807  0.3128
 4652TIP3    H135371   5.356   4.603   2.410 -0.1974  0.0414 -0.0361
 4652TIP3    H235372   5.485   4.672   2.369 -0.3659  0.1527 -0.3851
 4653TIP3   OH235373   2.385   1.326   4.680  0.2576  0.0365 -0.4729
 4653TIP3    H135374   2.444   1.288   4.746 -1.3505  2.2110  2.4589
 4653TIP3    H235375   2.410   1.418   4.677 -3.0265  1.1262  1.1445
 4654TIP3   OH235376   2.543   4.406  13.841  0.1192  0.7009 -0.4283
 4654TIP3    H135377   2.548   4.324  13.889 -1.5843  0.9377  0.2127
 4654TIP3    H235378   2.616   4.458  13.874  0.9569 -0.3828 -0.5355
 4655TIP3   OH235379   3.526   6.337  12.545 -0.0237 -0.7827  0.4906
 4655TIP3    H135380   3.504   6.276  12.616  0.2723 -1.5381 -0.0630
 4655TIP3    H235381   3.550   6.418  12.591  3.4515 -2.1988  1.5154
 4656TIP3   OH235382   0.758   5.154  12.995 -0.1658 -0.0691  0.0625
 4656TIP3    H135383   0.830   5.215  13.012 -0.5292 -0.3844  3.3123
 4656TIP3    H235384   0.792   5.096  12.927  1.4311  1.6687 -0.7261
 4657TIP3   OH235385   2.976   5.016  11.712  0.5779 -0.0824 -0.2449
 4657TIP3    H135386   2.926   4.953  11.764 -1.4947  2.5768  1.2001
 4657TIP3    H235387   3.054   5.034  11.765 -1.3549  2.3522  2.0067
 4658TIP3   OH235388   2.300   6.638   2.055 -0.0417 -0.1261  0.0996
 4658TIP3    H135389   2.366   6.604   2.115 -0.4154  0.8505  1.1094
 4658TIP3    H235390   2.217   6.627   2.102 -0.6407 -1.4354 -1.1947
 4659TIP3   OH235391   5.592   4.040   4.244  0.3567 -0.4810 -0.2430
 4659TIP3    H135392   5.568   4.089   4.323 -2.7347  0.9999 -1.9341
 4659TIP3    H235393   5.633   4.105   4.187  0.3319 -0.9608 -0.8169
 4660TIP3   OH235394   3.708   3.007  16.964 -0.1607  0.2887  0.1550
 4660TIP3    H135395   3.736   3.034  16.877 -1.7062  0.2559 -0.3938
 4660TIP3    H235396   3.706   2.912  16.960 -2.6573  0.2983 -0.6679
 4661TIP3   OH235397   4.428   3.408   4.956 -0.6790 -0.1843 -0.0003
 4661TIP3    H135398   4.416   3.428   5.048  1.5144  2.5282 -0.1834
 4661TIP3    H235399   4.511   3.360   4.951 -0.1927  0.6915 -0.6306
 4662TIP3   OH235400   5.836   1.329   1.819  0.7481  0.5710  0.6981
 4662TIP3    H135401   5.858   1.263   1.753  0.7968 -0.5257  1.7712
 4662TIP3    H235402   5.845   1.284   1.902 -0.7346  1.4886  1.4166
 4663TIP3   OH235403   3.859   1.200   1.465  0.8431 -0.3752  0.3549
 4663TIP3    H135404   3.953   1.182   1.461  0.9413 -0.7384  2.9158
 4663TIP3    H235405   3.824   1.135   1.526 -1.3146 -0.9893 -1.3891
 4664TIP3   OH235406   4.101   2.214  13.155 -0.6409 -0.7332  0.6443
 4664TIP3    H135407   4.145   2.290  13.193  0.0635 -2.0405  2.6155
 4664TIP3    H235408   4.172   2.152  13.138 -1.0305 -0.5418 -2.1931
 4665TIP3   OH235409   5.650   4.481  13.970 -0.0840 -0.0546 -0.3748
 4665TIP3    H135410   5.589   4.554  13.981  0.6104  0.3207  1.3014
 4665TIP3    H235411   5.622   4.438  13.889 -1.9807  0.6474 -0.1352
 4666TIP3   OH235412   1.782   4.602  15.197  0.4894 -0.1892 -0.2121
 4666TIP3    H135413   1.736   4.528  15.158 -0.0292 -0.0570  0.1351
 4666TIP3    H235414   1.783   4.583  15.291 -0.8300  0.8700  0.0380
 4667TIP3   OH235415   0.120   4.898   5.364  0.5763  0.0335  0.9225
 4667TIP3    H135416   0.074   4.815   5.354 -1.2019  0.9143  1.3938
 4667TIP3    H235417   0.111   4.920   5.456  0.4394  1.0727  0.6754
 4668TIP3   OH235418   5.164   3.424   0.408  0.6343  0.1716 -0.0636
 4668TIP3    H135419   5.196   3.454   0.323  0.8595 -0.3561 -0.1677
 4668TIP3    H235420   5.235   3.445   0.469  1.3568 -1.3312 -0.3547
 4669TIP3   OH235421   0.912   6.598   6.072  0.0885 -0.1605 -0.3570
 4669TIP3    H135422   0.999   6.617   6.108 -0.1400 -2.0063  1.4106
 4669TIP3    H235423   0.859   6.673   6.098  0.2314 -0.8653  2.3206
 4670TIP3   OH235424   3.607   4.848  10.972  0.6280 -0.4457  0.0125
 4670TIP3    H135425   3.522   4.888  10.990  1.2334  0.9756 -0.0869
 4670TIP3    H235426   3.588   4.771  10.919 -0.4826  0.7334 -1.3641
 4671TIP3   OH235427   5.366   0.565   6.245  0.4223 -0.0354  0.0123
 4671TIP3    H135428   5.440   0.512   6.215  2.0806  1.1128  1.9109
 4671TIP3    H235429   5.298   0.500   6.264  1.4861 -1.2630 -0.1983
 4672TIP3   OH235430   0.243   3.443  14.319  0.4489 -0.0880 -0.4132
 4672TIP3    H135431   0.240   3.426  14.224  1.2216  1.8331 -0.8310
 4672TIP3    H235432   0.337   3.450  14.338  0.4306 -2.5362  0.9653
 4673TIP3   OH235433   3.388   0.828  17.170 -0.0547 -0.4064 -0.0226
 4673TIP3    H135434   3.365   0.735  17.164 -0.6917 -0.3778  1.5132
 4673TIP3    H235435   3.327   0.864  17.235  0.6946  0.9104 -0.0132
 4674TIP3   OH235436   5.651   2.049  17.043 -0.1376  0.4313  0.3706
 4674TIP3    H135437   5.720   1.993  17.079 -0.5772 -1.7820 -1.8892
 4674TIP3    H235438   5.573   2.027  17.094  0.3150  1.2783  1.4633
 4675TIP3   OH235439   2.972   3.406  10.593  0.0576  0.1370 -0.0690
 4675TIP3    H135440   2.978   3.358  10.676 -0.6222  0.9971  0.4844
 4675TIP3    H235441   2.988   3.339  10.526 -0.0867 -0.7054  0.7214
 4676TIP3   OH235442   6.548   1.398   0.626 -0.0541 -0.0868 -0.4590
 4676TIP3    H135443   6.483   1.413   0.695  0.4455 -1.5792  0.3725
 4676TIP3    H235444   6.517   1.451   0.552 -1.1719  0.7164  0.5500
 4677TIP3   OH235445   3.270   4.483   3.840  0.1744 -0.0777  0.3234
 4677TIP3    H135446   3.242   4.499   3.930 -0.5488  0.2203  0.0523
 4677TIP3    H235447   3.311   4.397   3.842  0.4521  0.0639  0.9993
 4678TIP3   OH235448   2.613   5.349  16.314 -0.3061 -0.6251  0.5391
 4678TIP3    H135449   2.553   5.297  16.368 -3.1230  1.6801 -0.0747
 4678TIP3    H235450   2.661   5.402  16.377 -0.4666 -0.9826  0.9710
 4679TIP3   OH235451   3.203   2.530  14.937 -0.3948  0.1023 -0.1311
 4679TIP3    H135452   3.274   2.471  14.911 -1.2763 -0.9190 -0.2733
 4679TIP3    H235453   3.246   2.595  14.993  0.7655 -0.1048 -0.7339
 4680TIP3   OH235454   0.068   6.513  11.427  0.0512  0.6441 -0.2328
 4680TIP3    H135455   0.066   6.540  11.335 -0.9479 -0.3841 -0.5284
 4680TIP3    H235456  -0.022   6.492  11.448  0.2986  0.6922  0.9498
 4681TIP3   OH235457   6.413   0.505  11.923  0.3219 -0.3879 -0.3858
 4681TIP3    H135458   6.492   0.451  11.918  0.9329  0.4382  0.0679
 4681TIP3    H235459   6.432   0.581  11.868  0.0080  0.0097  0.0428
 4682TIP3   OH235460   4.819   5.478  17.186 -0.2629  0.2150  0.4132
 4682TIP3    H135461   4.781   5.499  17.271 -2.3568  0.5988 -0.5567
 4682TIP3    H235462   4.900   5.528  17.182 -0.8345  1.2785  1.6342
 4683TIP3   OH235463   3.265   5.212  17.100  0.0761  0.2986 -0.1691
 4683TIP3    H135464   3.197   5.177  17.158  1.1077 -0.2389  0.7529
 4683TIP3    H235465   3.281   5.301  17.133 -0.6763  0.6899 -0.8418
 4684TIP3   OH235466   5.364   1.323   1.571 -0.2251  0.6182 -1.0422
 4684TIP3    H135467   5.360   1.328   1.475 -1.5626  1.8548 -0.9427
 4684TIP3    H235468   5.297   1.259   1.594  0.5935 -0.2321 -0.9431
 4685TIP3   OH235469   6.046   2.206  11.218 -0.1351  0.6392 -0.4115
 4685TIP3    H135470   6.101   2.283  11.235  0.1908  0.6410 -1.3979
 4685TIP3    H235471   6.073   2.176  11.132 -0.1079 -0.7278  0.0524
 4686TIP3   OH235472   4.679   5.407  14.603  0.2651  0.1417 -0.1717
 4686TIP3    H135473   4.624   5.416  14.680  2.0206  2.9750  0.9141
 4686TIP3    H235474   4.624   5.435  14.530 -1.1455 -1.7524  0.0895
 4687TIP3   OH235475   5.798   4.045  15.461  0.4610  0.7431 -0.1003
 4687TIP3    H135476   5.874   4.074  15.411  1.8932 -0.8225  1.0247
 4687TIP3    H235477   5.835   4.016  15.545 -1.3136 -0.5654  0.2820
 4688TIP3   OH235478   4.974   5.103   3.401 -0.0763 -1.0431 -0.3073
 4688TIP3    H135479   4.949   5.012   3.388 -2.2693 -0.5062 -0.2675
 4688TIP3    H235480   4.896   5.153   3.377  1.4761  0.9307 -1.5858
 4689TIP3   OH235481   6.409   4.139  15.773 -0.1052 -0.3534 -0.6848
 4689TIP3    H135482   6.378   4.218  15.816  1.0511 -1.1054  1.6989
 4689TIP3    H235483   6.504   4.151  15.765  0.3204 -2.0191  1.0614
 4690TIP3   OH235484   4.888   5.277   6.210  0.9586  0.3844  0.0965
 4690TIP3    H135485   4.962   5.221   6.186  1.5481  0.2728  2.0246
 4690TIP3    H235486   4.928   5.352   6.255  0.0172  1.2955 -0.5457
 4691TIP3   OH235487   0.499   6.328  15.218  0.4995  0.3258  0.3151
 4691TIP3    H135488   0.588   6.363  15.218  0.5257  0.2916  1.8197
 4691TIP3    H235489   0.452   6.381  15.282 -0.2081 -0.5504  0.5362
 4692TIP3   OH235490   4.111   1.199  12.728 -0.5116 -0.3787 -0.0732
 4692TIP3    H135491   4.068   1.281  12.749  2.3545  1.1492  0.3882
 4692TIP3    H235492   4.085   1.180  12.638 -2.0800  0.4336  0.1881
 4693TIP3   OH235493   0.962   0.338   5.785  0.2822 -0.1825  0.2345
 4693TIP3    H135494   0.936   0.281   5.857  0.5508 -0.0176  0.4646
 4693TIP3    H235495   0.880   0.379   5.756  0.2408  0.1066  0.7546
 4694TIP3   OH235496   2.227   3.212   5.082 -0.5368  0.2688  0.5680
 4694TIP3    H135497   2.145   3.262   5.091 -0.2997  0.7930 -0.0937
 4694TIP3    H235498   2.209   3.129   5.125 -1.1477  0.6905  1.1469
 4695TIP3   OH235499   5.311   3.821   2.894 -0.2338  0.6998  0.2271
 4695TIP3    H135500   5.238   3.836   2.953  0.4296  0.0019  1.2662
 4695TIP3    H235501   5.293   3.736   2.854  0.2932  0.2250  0.9638
 4696TIP3   OH235502   3.261   4.508   3.076  0.4899  0.2119 -0.7260
 4696TIP3    H135503   3.182   4.463   3.045  0.3441  2.0675 -3.3439
 4696TIP3    H235504   3.254   4.504   3.172 -4.7717  3.4184 -0.6071
 4697TIP3   OH235505   0.196   3.679   6.322 -0.4278  0.3767  0.0198
 4697TIP3    H135506   0.207   3.623   6.399 -0.9619 -0.4582 -0.4894
 4697TIP3    H235507   0.283   3.683   6.283 -1.0747 -4.4000 -2.7850
 4698TIP3   OH235508   6.255   3.129  16.161  0.2702 -0.1317  0.1167
 4698TIP3    H135509   6.239   3.057  16.100  3.0601 -0.6310 -0.1344
 4698TIP3    H235510   6.262   3.087  16.246 -0.9336  0.2406  0.4185
 4699TIP3   OH235511   2.777   3.488   3.445 -0.6617 -0.0264  0.5079
 4699TIP3    H135512   2.865   3.450   3.445 -1.0654 -0.9732  0.8547
 4699TIP3    H235513   2.771   3.535   3.528 -0.3275  0.4503  0.2743
 4700TIP3   OH235514   4.224   4.125   2.059 -0.8381 -0.1790 -0.2434
 4700TIP3    H135515   4.252   4.215   2.042 -0.5340 -0.7945 -3.6489
 4700TIP3    H235516   4.161   4.133   2.131 -1.0853  2.8139 -0.6664
 4701TIP3   OH235517   4.318   6.453  16.109  0.2924 -0.2025  0.6594
 4701TIP3    H135518   4.289   6.395  16.180 -2.2403 -1.1258 -0.9836
 4701TIP3    H235519   4.256   6.526  16.112  0.8404  0.2909  0.0929
 4702TIP3   OH235520   3.154   2.388  11.492 -0.1906  0.2548 -0.1935
 4702TIP3    H135521   3.194   2.432  11.567 -0.9687  0.6747 -0.0190
 4702TIP3    H235522   3.214   2.315  11.473 -0.0028  0.1139  0.8574
 4703TIP3   OH235523   0.327   0.584   2.446 -0.3095  0.7609  0.3385
 4703TIP3    H135524   0.280   0.655   2.491 -0.9036  1.1766 -0.8824
 4703TIP3    H235525   0.383   0.628   2.383  0.4061  0.1851  0.5580
 4704TIP3   OH235526   4.737   4.027   1.021 -0.1386 -0.0945  0.0368
 4704TIP3    H135527   4.694   4.094   1.074 -2.2001 -0.7524 -0.7085
 4704TIP3    H235528   4.830   4.045   1.030 -0.5209  1.1130  2.1357
 4705TIP3   OH235529   3.464   5.316  11.240  0.5740  0.7851 -0.3432
 4705TIP3    H135530   3.462   5.308  11.145 -0.8921  2.1027 -0.4670
 4705TIP3    H235531   3.434   5.405  11.257  0.6247  0.5104  1.3627
 4706TIP3   OH235532   0.977   2.529  14.615  0.2348  0.0318 -0.3355
 4706TIP3    H135533   0.948   2.614  14.648 -0.5122  0.0728 -1.0592
 4706TIP3    H235534   0.952   2.466  14.682 -1.8679  0.0196 -1.0782
 4707TIP3   OH235535   3.820   0.733  16.065 -0.5516 -0.6370 -0.2608
 4707TIP3    H135536   3.745   0.701  16.114 -1.2789 -0.9887 -1.5515
 4707TIP3    H235537   3.884   0.661  16.070 -0.1682 -0.2362  1.0453
 4708TIP3   OH235538   1.453   1.800   6.461  0.2817  0.3496 -0.0496
 4708TIP3    H135539   1.496   1.717   6.440 -1.0586 -0.5374  0.6037
 4708TIP3    H235540   1.397   1.780   6.536 -0.9577  1.5482 -0.6148
 4709TIP3   OH235541   0.340   5.073  12.217  0.5061 -0.0959 -0.2584
 4709TIP3    H135542   0.405   5.020  12.170  0.3566 -0.5050 -0.0089
 4709TIP3    H235543   0.260   5.066  12.164  0.6478  0.3554 -0.5329
 4710TIP3   OH235544   4.858   6.072   5.839 -0.3869 -0.1025  0.4382
 4710TIP3    H135545   4.939   6.024   5.856 -0.4142  0.0148  0.9264
 4710TIP3    H235546   4.877   6.162   5.867 -0.7167 -0.0992  0.6556
 4711TIP3   OH235547   4.256   3.424  15.853  0.1283  0.2499  0.0116
 4711TIP3    H135548   4.340   3.380  15.862 -0.6852 -0.8920  3.2017
 4711TIP3    H235549   4.272   3.513  15.886  0.6686  1.0235 -2.1300
 4712TIP3   OH235550   3.504   4.944  13.766  0.1489 -0.3783  0.1308
 4712TIP3    H135551   3.542   4.957  13.679 -1.1006 -0.6900 -0.4976
 4712TIP3    H235552   3.471   5.030  13.791 -0.1035 -0.4284 -0.0217
 4713TIP3   OH235553   0.609   0.868  14.884 -0.2612 -0.0860  0.1912
 4713TIP3    H135554   0.573   0.799  14.828 -0.0253 -1.2620  1.4321
 4713TIP3    H235555   0.696   0.837  14.909 -0.3074  0.4647  1.1030
 4714TIP3   OH235556   0.642   3.468  15.938 -0.5053  0.2208  0.1461
 4714TIP3    H135557   0.711   3.402  15.940  0.6315  1.2087 -2.1077
 4714TIP3    H235558   0.572   3.428  15.885 -1.6479 -0.6847  2.2249
 4715TIP3   OH235559   0.159   6.708  11.600  0.3414 -0.1057  0.2763
 4715TIP3    H135560   0.127   6.647  11.533  1.0708 -0.0861 -0.0953
 4715TIP3    H235561   0.140   6.663  11.683 -0.8451  0.0049  0.0880
 4716TIP3   OH235562   1.641   4.313   3.654  0.0912 -0.0815  0.2962
 4716TIP3    H135563   1.696   4.277   3.584 -1.6301  0.2701 -1.3246
 4716TIP3    H235564   1.690   4.389   3.686  2.2009 -1.8290  1.4652
 4717TIP3   OH235565   3.385   2.780   1.729 -0.3434  0.1636  0.0418
 4717TIP3    H135566   3.432   2.850   1.686  2.6015 -2.1180 -0.7701
 4717TIP3    H235567   3.431   2.766   1.811  0.0061 -1.6341 -0.4081
 4718TIP3   OH235568   2.472   4.608   5.052  0.7723 -0.1593 -0.2755
 4718TIP3    H135569   2.537   4.618   5.121  1.5384 -0.8817 -0.8657
 4718TIP3    H235570   2.470   4.514   5.033 -1.6343 -0.4113  0.8186
 4719TIP3   OH235571   2.235   4.044  14.459  0.2003 -0.7551  0.3912
 4719TIP3    H135572   2.281   4.126  14.477  1.1661 -1.3393  0.6903
 4719TIP3    H235573   2.193   4.022  14.542 -0.1447 -0.5190  0.2823
 4720TIP3   OH235574   2.937   6.221   5.140 -0.2496 -0.4641 -0.0616
 4720TIP3    H135575   3.029   6.197   5.129 -0.3372 -0.6887 -0.3116
 4720TIP3    H235576   2.932   6.256   5.229 -0.3726 -2.5672  0.8130
 4721TIP3   OH235577   4.912   1.016   4.459 -0.0149 -0.4817  0.4918
 4721TIP3    H135578   4.942   1.105   4.474  2.6778 -1.2064 -0.1542
 4721TIP3    H235579   4.857   1.023   4.381  0.9488  0.4818 -0.1303
 4722TIP3   OH235580   2.164   4.924  13.913 -0.0213 -0.2404  0.1724
 4722TIP3    H135581   2.232   4.858  13.894 -1.8294 -2.0422 -0.4518
 4722TIP3    H235582   2.160   4.978  13.834  1.0831  0.2860  0.4597
 4723TIP3   OH235583   6.411   6.738  11.565 -0.2502 -0.0366  0.0884
 4723TIP3    H135584   6.446   6.823  11.592 -1.0769  0.1863  0.4831
 4723TIP3    H235585   6.330   6.759  11.519 -0.7311 -0.6368  0.6488
 4724TIP3   OH235586   0.346   1.493   1.206  0.0295 -0.6738 -0.8750
 4724TIP3    H135587   0.349   1.476   1.300  0.2124 -0.8287 -0.9086
 4724TIP3    H235588   0.272   1.553   1.195  2.3246  2.5318 -0.1331
 4725TIP3   OH235589   4.518   5.335   0.908  0.3638 -0.0773  0.1322
 4725TIP3    H135590   4.434   5.302   0.876  0.7389  1.0892 -2.3083
 4725TIP3    H235591   4.536   5.283   0.986 -1.8166 -1.5124 -0.2230
 4726TIP3   OH235592   5.819   4.387  11.352  0.2309 -0.0735  0.6854
 4726TIP3    H135593   5.737   4.374  11.401 -0.5909 -0.9016 -0.8444
 4726TIP3    H235594   5.798   4.361  11.263  1.8982  0.7127  0.0293
 4727TIP3   OH235595   1.196   0.692  12.129  0.0614  0.0204 -0.4499
 4727TIP3    H135596   1.232   0.781  12.134  1.0491 -0.4052  0.7648
 4727TIP3    H235597   1.273   0.637  12.112 -0.0375 -0.8528  1.5636
 4728TIP3   OH235598   6.725   3.050  12.606  0.2352 -0.4194  0.1394
 4728TIP3    H135599   6.650   3.000  12.574  0.6772  0.1114 -1.8685
 4728TIP3    H235600   6.705   3.141  12.584  1.7568 -0.3500 -1.1793
 4729TIP3   OH235601   0.045   1.216  10.438  0.9234  0.4045  0.1662
 4729TIP3    H135602   0.080   1.235  10.525 -1.0179 -0.3942  1.1864
 4729TIP3    H235603   0.051   1.300  10.391 -0.7447  1.7186  2.1116
 4730TIP3   OH235604   3.330   2.231  16.771  0.1140  0.2739 -0.3172
 4730TIP3    H135605   3.260   2.174  16.738 -0.7638  1.5348 -0.7346
 4730TIP3    H235606   3.283   2.309  16.801  1.2112  0.4861  0.9202
 4731TIP3   OH235607   2.616   3.396   5.847 -0.1688  0.3119  0.3221
 4731TIP3    H135608   2.617   3.379   5.941  0.7787  0.2749  0.3229
 4731TIP3    H235609   2.527   3.426   5.828 -0.6768 -0.7030  1.0353
 4732TIP3   OH235610   0.324   3.785   3.147 -0.3669 -0.5900  0.3652
 4732TIP3    H135611   0.330   3.855   3.082 -1.8280 -0.0486  0.7849
 4732TIP3    H235612   0.353   3.826   3.229  1.2104 -1.1980  0.1578
 4733TIP3   OH235613   2.317   4.306  11.006 -0.4777  0.3185 -0.1119
 4733TIP3    H135614   2.242   4.292  11.063  1.3921 -0.9224  2.2064
 4733TIP3    H235615   2.358   4.220  10.997  1.5352  1.1923  0.0261
 4734TIP3   OH235616   1.455   0.467   5.509  0.0274  0.2176 -0.5124
 4734TIP3    H135617   1.535   0.518   5.522  0.8230 -1.2891  0.8562
 4734TIP3    H235618   1.384   0.528   5.526  0.9282  1.1787 -0.1437
 4735TIP3   OH235619   2.147   5.592  16.423  0.3196  0.0797 -0.2666
 4735TIP3    H135620   2.113   5.630  16.503 -0.3201  0.4172 -0.6966
 4735TIP3    H235621   2.124   5.654  16.354  0.1076 -0.6118 -0.8367
 4736TIP3   OH235622   5.821   5.276  11.520 -0.5336 -0.4711 -0.0531
 4736TIP3    H135623   5.797   5.369  11.522  1.1024 -0.0357  1.3241
 4736TIP3    H235624   5.870   5.262  11.601 -1.4871 -2.7721  0.1938
 4737TIP3   OH235625   2.000   3.301   2.317 -0.0265  0.3899 -0.6329
 4737TIP3    H135626   1.946   3.377   2.294  0.0346  0.8097  0.5384
 4737TIP3    H235627   1.952   3.226   2.282 -1.0234  0.8169 -0.2234
 4738TIP3   OH235628   1.309   0.317   4.849  0.2938  0.5134  0.2089
 4738TIP3    H135629   1.342   0.327   4.938  1.9393 -0.6509 -0.2228
 4738TIP3    H235630   1.255   0.239   4.852  2.6962 -1.2933 -0.3438
 4739TIP3   OH235631   1.469   2.856   2.196  0.0945  0.4020  0.1195
 4739TIP3    H135632   1.379   2.877   2.220 -0.1341  1.5510 -1.6552
 4739TIP3    H235633   1.482   2.896   2.111  1.7206 -1.2870 -0.4936
 4740TIP3   OH235634   1.998   4.609  15.807  0.6654 -0.3262 -0.2187
 4740TIP3    H135635   2.057   4.660  15.861  1.2391 -0.1487 -0.9899
 4740TIP3    H235636   2.034   4.520  15.809  1.9297  0.0865 -1.9547
 4741TIP3   OH235637   2.880   2.157   4.316  0.6764 -0.1889 -0.0399
 4741TIP3    H135638   2.958   2.212   4.311 -1.0220  2.4673  0.2039
 4741TIP3    H235639   2.822   2.191   4.248 -0.4183 -1.8218  0.0200
 4742TIP3   OH235640   2.491   2.726   2.440  0.4101 -0.0713 -0.5428
 4742TIP3    H135641   2.504   2.633   2.455  0.2879 -0.0174 -0.0934
 4742TIP3    H235642   2.433   2.730   2.363  0.2283 -0.3722 -0.4228
 4743TIP3   OH235643   4.149   3.568   5.781 -0.3893 -0.8757 -0.0132
 4743TIP3    H135644   4.208   3.559   5.706 -0.6921  0.0971 -0.3984
 4743TIP3    H235645   4.067   3.529   5.751  0.4931 -3.8346  1.1441
 4744TIP3   OH235646   1.448   5.369   4.298 -0.7150 -0.5377 -0.0338
 4744TIP3    H135647   1.360   5.398   4.278 -0.1020  0.9988 -0.6449
 4744TIP3    H235648   1.503   5.410   4.231  0.6593 -0.1402  1.2753
 4745TIP3   OH235649   3.563   6.670   5.512 -0.4136 -0.1475 -0.3459
 4745TIP3    H135650   3.596   6.759   5.501 -0.3952 -0.0344  0.5959
 4745TIP3    H235651   3.622   6.629   5.575 -1.2090 -0.4001  0.2454
 4746TIP3   OH235652   0.285   2.942  14.376 -0.2865  0.5334 -0.6259
 4746TIP3    H135653   0.354   3.006  14.358 -0.2185 -0.1308 -3.0170
 4746TIP3    H235654   0.206   2.980  14.336 -0.7845  0.2152  0.0374
 4747TIP3   OH235655   3.073   5.867   4.772  0.1470  0.0215  0.5377
 4747TIP3    H135656   3.154   5.817   4.757 -0.1419 -0.6953  1.2456
 4747TIP3    H235657   3.015   5.805   4.817 -0.4785  0.7970  0.8253
 4748TIP3   OH235658   1.752   5.823  12.577  0.1880  0.3321 -0.2970
 4748TIP3    H135659   1.668   5.868  12.585  0.8740  1.4136  1.3500
 4748TIP3    H235660   1.787   5.821  12.666  3.3229  2.7327 -1.3087
 4749TIP3   OH235661   3.111   0.500  13.294  0.0303 -0.0551 -0.4334
 4749TIP3    H135662   3.099   0.415  13.338  0.1670  1.4771  2.8973
 4749TIP3    H235663   3.078   0.564  13.357  1.5708  2.5055 -2.0480
 4750TIP3   OH235664   0.059   1.684  12.180  0.0667  0.2659  0.3051
 4750TIP3    H135665   0.112   1.758  12.149  0.5794 -0.0625  0.3946
 4750TIP3    H235666   0.044   1.702  12.272  1.6215 -0.5636  0.7608
 4751TIP3   OH235667   1.195   2.417  12.591 -0.0361  0.0087 -0.1791
 4751TIP3    H135668   1.201   2.479  12.664  1.2888  1.0228 -1.0954
 4751TIP3    H235669   1.241   2.461  12.519 -0.6170 -1.3041 -1.3865
 4752TIP3   OH235670   1.065   4.497   5.282 -0.1815  0.0449 -0.1586
 4752TIP3    H135671   0.996   4.443   5.243  0.8819 -1.7050  0.2889
 4752TIP3    H235672   1.066   4.471   5.374  0.2576  0.9645  0.1073
 4753TIP3   OH235673   6.570   2.548  12.626  0.0963  0.2026 -0.4922
 4753TIP3    H135674   6.628   2.621  12.646 -1.3359  1.3199 -0.2396
 4753TIP3    H235675   6.583   2.532  12.532  1.4275 -0.1614 -0.2620
 4754TIP3   OH235676   0.835   2.769   3.513  0.0666 -0.1518  0.2406
 4754TIP3    H135677   0.930   2.783   3.520 -0.0974  1.4609 -0.3379
 4754TIP3    H235678   0.827   2.689   3.461  1.1211 -0.1412  0.0285
 4755TIP3   OH235679   2.495   6.427   5.978 -0.1885  0.4547 -0.0396
 4755TIP3    H135680   2.529   6.440   5.889  0.2563 -1.2673 -0.1534
 4755TIP3    H235681   2.430   6.497   5.988  1.0404  1.8251 -1.0158
 4756TIP3   OH235682   6.604   5.039   2.341 -0.3175 -0.0097  0.0415
 4756TIP3    H135683   6.541   4.968   2.327  0.0708 -0.4094  0.2661
 4756TIP3    H235684   6.633   5.062   2.253 -1.2154  0.5923 -0.1043
 4757TIP3   OH235685   1.828   0.940  14.906  0.2417 -0.0147 -0.1720
 4757TIP3    H135686   1.832   0.992  14.987 -1.0122  0.2591 -0.2548
 4757TIP3    H235687   1.794   0.855  14.934  1.8823 -0.6821 -0.1025
 4758TIP3   OH235688   0.372   0.823   6.121 -0.4427 -0.0818  0.2047
 4758TIP3    H135689   0.341   0.733   6.122  0.4818 -0.4075  0.7729
 4758TIP3    H235690   0.424   0.830   6.041 -2.3601  0.6306 -1.0588
 4759TIP3   OH235691   4.150   4.175   5.963 -0.4264 -0.5842 -0.0188
 4759TIP3    H135692   4.137   4.268   5.945 -0.3532 -0.0162  2.4404
 4759TIP3    H235693   4.175   4.137   5.879  1.4571  1.9742 -0.7323
 4760TIP3   OH235694   2.499   2.236   3.470  0.1191 -0.6430 -0.1502
 4760TIP3    H135695   2.576   2.249   3.414  0.9337  0.5449  1.1848
 4760TIP3    H235696   2.439   2.307   3.445 -0.7188 -1.7519 -1.4085
 4761TIP3   OH235697   2.082   0.761   4.960 -0.6431  0.0205  0.0903
 4761TIP3    H135698   2.148   0.735   4.896  0.8542 -0.0831  1.6100
 4761TIP3    H235699   2.058   0.850   4.934 -0.8365 -0.3926 -1.2008
 4762TIP3   OH235700   2.491   2.903  12.847 -0.4549  0.3639  0.1550
 4762TIP3    H135701   2.490   2.948  12.932 -0.3485  1.1395 -0.2366
 4762TIP3    H235702   2.524   2.970  12.786  3.0845 -1.2052  0.0730
 4763TIP3   OH235703   3.387   2.462  11.966  0.1704 -0.6135  0.1748
 4763TIP3    H135704   3.331   2.507  11.902  0.0259 -2.8075 -1.3423
 4763TIP3    H235705   3.335   2.389  11.998  1.8880 -2.3991 -0.8690
 4764TIP3   OH235706   2.394   3.498   3.941  0.1816 -0.5003  0.4287
 4764TIP3    H135707   2.350   3.583   3.941  0.9217 -0.1110  0.5191
 4764TIP3    H235708   2.323   3.434   3.948 -0.6764 -0.0722 -2.7977
 4765TIP3   OH235709   5.344   2.256  16.732  0.0071  0.2943 -0.0584
 4765TIP3    H135710   5.309   2.265  16.820  0.3129  0.0915  0.0865
 4765TIP3    H235711   5.437   2.279  16.740  0.6644 -2.1615  0.2064
 4766TIP3   OH235712   1.546   6.520  15.177 -0.3181 -0.2831 -0.3054
 4766TIP3    H135713   1.483   6.514  15.105 -0.9186  1.1584  0.0556
 4766TIP3    H235714   1.582   6.432  15.185  0.2200 -0.3797 -2.7578
 4767TIP3   OH235715   6.677   2.287   2.993  0.2220 -0.3085  0.0700
 4767TIP3    H135716   6.753   2.236   2.963 -0.6714 -2.0578  0.6529
 4767TIP3    H235717   6.615   2.222   3.025 -0.7395  1.1914  1.4606
 4768TIP3   OH235718   1.385   3.701  10.868  0.1029 -0.3108  0.0260
 4768TIP3    H135719   1.351   3.724  10.781 -0.9434 -2.4082 -0.1971
 4768TIP3    H235720   1.391   3.606  10.866  0.0898 -0.4006  2.2470
 4769TIP3   OH235721   0.128   5.774   2.193 -0.5159  0.5762  0.0308
 4769TIP3    H135722   0.140   5.862   2.158 -0.3701  1.1072  1.3780
 4769TIP3    H235723   0.187   5.769   2.268  0.4895 -1.1553 -0.8092
 4770TIP3   OH235724   4.478   1.345  16.170 -0.2039 -0.3661  0.3612
 4770TIP3    H135725   4.505   1.433  16.197 -1.7894 -0.3854  2.2120
 4770TIP3    H235726   4.550   1.288  16.198 -0.5479 -0.0121  2.0893
 4771TIP3   OH235727   2.862   0.768  16.908 -0.5170  0.1532 -1.0113
 4771TIP3    H135728   2.935   0.736  16.854  0.1199  2.2493 -1.4946
 4771TIP3    H235729   2.847   0.858  16.877 -3.0225 -0.0455 -0.5999
 4772TIP3   OH235730   0.239   1.180  11.091 -0.1087 -0.0732 -0.1958
 4772TIP3    H135731   0.220   1.269  11.120 -1.3485 -0.4704  0.3332
 4772TIP3    H235732   0.271   1.190  11.002 -0.6081  0.8845 -0.2883
 4773TIP3   OH235733   6.711   5.577   5.001 -0.5040 -0.1869 -0.1128
 4773TIP3    H135734   6.673   5.610   5.083 -0.3021  0.5807 -0.3140
 4773TIP3    H235735   6.777   5.514   5.029  0.5726  1.0982  0.4058
 4774TIP3   OH235736   1.849   3.268   0.365 -0.2883  0.3547 -0.3154
 4774TIP3    H135737   1.766   3.223   0.385  0.0380  0.1712  0.7131
 4774TIP3    H235738   1.895   3.209   0.307 -1.2992  0.9180 -1.7571
 4775TIP3   OH235739   6.586   2.113  14.882 -0.7689  0.1708  0.5577
 4775TIP3    H135740   6.616   2.042  14.824 -0.8936 -0.3102  1.0734
 4775TIP3    H235741   6.628   2.191  14.847 -1.6340  0.0617 -0.7958
 4776TIP3   OH235742   1.107   5.706   4.752 -0.2851 -0.4210 -0.7307
 4776TIP3    H135743   1.150   5.790   4.734 -1.1397  0.1743 -0.0519
 4776TIP3    H235744   1.039   5.699   4.685 -0.9804 -0.0065 -0.0779
 4777TIP3   OH235745   3.885   2.821   4.944 -0.2294  0.2806 -0.3754
 4777TIP3    H135746   3.842   2.764   5.007 -0.9091  0.6821 -0.4663
 4777TIP3    H235747   3.926   2.889   4.996 -0.6262  0.5029 -0.3502
 4778TIP3   OH235748   2.603   4.387  14.231 -0.8220 -0.2531 -0.5610
 4778TIP3    H135749   2.559   4.380  14.316  0.3016  1.8269  0.2842
 4778TIP3    H235750   2.536   4.425  14.174 -1.4743 -1.3193 -0.5389
 4779TIP3   OH235751   1.895   1.279   5.917 -0.2557 -0.6099 -0.1988
 4779TIP3    H135752   1.831   1.288   5.988 -0.1826 -1.8575  0.0562
 4779TIP3    H235753   1.896   1.365   5.874 -1.2089 -0.2075  0.5425
 4780TIP3   OH235754   3.266   2.470  13.735 -0.3821 -0.6119  0.7924
 4780TIP3    H135755   3.297   2.437  13.819  0.5968 -0.8719  0.3391
 4780TIP3    H235756   3.339   2.521  13.700  0.1349 -2.4070 -0.9436
 4781TIP3   OH235757   4.929   1.811   0.026  0.3010 -0.1097 -0.1699
 4781TIP3    H135758   4.852   1.794  -0.027 -1.3830 -0.4535  2.2453
 4781TIP3    H235759   4.929   1.742   0.092  1.5983  0.9761  1.0310
 4782TIP3   OH235760   2.156   2.813  14.590  0.3892  0.4735  0.0482
 4782TIP3    H135761   2.158   2.770  14.504  3.5632  0.3050  0.1018
 4782TIP3    H235762   2.173   2.742  14.652 -2.0253  0.5680  0.9318
 4783TIP3   OH235763   0.497   2.191   1.051  0.7317 -0.1413  0.3821
 4783TIP3    H135764   0.543   2.255   0.996  1.9167 -0.0832  1.4093
 4783TIP3    H235765   0.545   2.110   1.038  0.6769 -0.2593  0.9122
 4784TIP3   OH235766   5.236   1.732  14.080 -0.2500 -0.1611 -0.8384
 4784TIP3    H135767   5.226   1.713  13.986  0.5689 -0.3415 -0.8985
 4784TIP3    H235768   5.330   1.729  14.095 -0.3681 -0.0523 -0.0181
 4785TIP3   OH235769   4.368   1.526   1.520  0.3765  0.0008 -0.2845
 4785TIP3    H135770   4.444   1.581   1.500  1.3653 -1.3450 -0.4343
 4785TIP3    H235771   4.314   1.579   1.578  0.7278  1.5203 -1.2894
 4786TIP3   OH235772   6.348   3.490   5.171 -0.2994  0.0485  0.4338
 4786TIP3    H135773   6.387   3.534   5.246  0.5253 -0.4141  0.2788
 4786TIP3    H235774   6.371   3.398   5.181 -0.6450 -0.1041 -0.1010
 4787TIP3   OH235775   0.731   5.743  12.875  0.4502 -0.0432  0.3738
 4787TIP3    H135776   0.698   5.742  12.965 -0.8973  0.0505 -0.0903
 4787TIP3    H235777   0.752   5.651  12.856  2.3149  0.1504  1.2996
 4788TIP3   OH235778   5.316   4.051  12.149 -0.4445 -0.2626  0.2089
 4788TIP3    H135779   5.403   4.038  12.188 -0.4567 -0.6271  0.1135
 4788TIP3    H235780   5.256   4.053  12.224 -0.0748  2.8760  0.5821
 4789TIP3   OH235781   2.027   4.852   3.147  0.2512 -0.0543 -0.2502
 4789TIP3    H135782   2.022   4.940   3.185  0.7891  0.7555 -1.9598
 4789TIP3    H235783   2.101   4.811   3.192  0.5567  0.6939 -0.0411
 4790TIP3   OH235784   1.764   5.791   0.811 -0.0907  0.0329 -0.3331
 4790TIP3    H135785   1.777   5.726   0.742 -0.5630  3.6710 -4.3043
 4790TIP3    H235786   1.852   5.822   0.833 -0.0219 -0.1507 -0.3501
 4791TIP3   OH235787   6.634   2.998  13.098  0.5820 -0.0429  0.2594
 4791TIP3    H135788   6.616   2.944  13.175 -2.6879 -1.3983 -1.2383
 4791TIP3    H235789   6.723   2.975  13.073  1.1423 -0.7640  2.6889
 4792TIP3   OH235790   1.990   5.220   1.002 -0.6216 -0.1330  0.3977
 4792TIP3    H135791   2.055   5.183   0.943  1.0280  1.4615  1.1109
 4792TIP3    H235792   2.003   5.175   1.085 -0.3037  0.2751  0.5763
 4793TIP3   OH235793   2.379   2.296  15.208 -0.2608  0.5750 -0.4197
 4793TIP3    H135794   2.463   2.293  15.162 -0.2843  0.9522 -0.4884
 4793TIP3    H235795   2.344   2.383  15.189 -1.4871 -0.1899 -1.8633
 4794TIP3   OH235796   2.667   5.168  12.267  0.7251  0.2224  0.0441
 4794TIP3    H135797   2.730   5.224  12.222  1.5818 -0.4655  0.3655
 4794TIP3    H235798   2.603   5.145  12.199 -0.0112  2.0785  0.0532
 4795TIP3   OH235799   4.332   6.523  13.107 -0.0213 -0.0342  0.3197
 4795TIP3    H135800   4.331   6.554  13.197  1.3142  1.3684 -0.1128
 4795TIP3    H235801   4.244   6.542  13.074  0.0366  1.1138  0.7977
 4796TIP3   OH235802   6.438   1.386   2.506 -0.4142 -0.2147  0.1934
 4796TIP3    H135803   6.488   1.393   2.424 -1.7261  1.0324 -0.5582
 4796TIP3    H235804   6.449   1.471   2.548 -0.7382 -0.4279  0.7193
 4797TIP3   OH235805   0.091   0.395  16.053  0.4078  0.6429 -0.1854
 4797TIP3    H135806   0.081   0.470  16.112  0.3371  0.5694 -0.1027
 4797TIP3    H235807   0.004   0.383  16.015  0.4741  0.7445 -0.3706
 4798TIP3   OH235808   1.253   5.508  11.813 -0.0442 -0.0885  0.0819
 4798TIP3    H135809   1.190   5.438  11.831  0.7375 -0.5893  0.9460
 4798TIP3    H235810   1.332   5.463  11.784  1.2771  0.1820  2.8816
 4799TIP3   OH235811   6.566   4.274  12.539 -0.1026 -0.8404 -0.2386
 4799TIP3    H135812   6.571   4.281  12.443  0.9981  1.5259 -0.0672
 4799TIP3    H235813   6.474   4.292  12.559 -0.6914 -2.8458 -0.8790
 4800TIP3   OH235814   2.709   5.408   7.008  0.5262  0.2881 -0.2428
 4800TIP3    H135815   2.715   5.466   6.933  0.6869 -1.1374 -1.3854
 4800TIP3    H235816   2.647   5.340   6.981  3.1919 -2.2525 -0.5851
 4801TIP3   OH235817   5.103   5.056  11.294 -0.0997 -0.0327 -0.0990
 4801TIP3    H135818   5.082   5.068  11.201 -0.5568 -0.7681 -0.0974
 4801TIP3    H235819   5.194   5.084  11.302 -0.4195  1.2071 -0.5264
 4802TIP3   OH235820   3.990   5.352   0.942  0.4192  0.1680 -0.2450
 4802TIP3    H135821   4.046   5.426   0.967  0.0055  0.9249 -1.4712
 4802TIP3    H235822   3.927   5.390   0.881 -0.2868 -1.0536 -0.2895
 4803TIP3   OH235823   4.572   5.862   1.399 -0.0726 -0.4936  0.0622
 4803TIP3    H135824   4.522   5.934   1.360 -0.8728 -0.6637  0.7504
 4803TIP3    H235825   4.506   5.795   1.417  0.2886 -0.4619  1.6089
 4804TIP3   OH235826   1.962   2.833   1.324 -0.2927  0.1077 -0.4563
 4804TIP3    H135827   1.909   2.872   1.394 -1.7931 -1.0430 -0.8962
 4804TIP3    H235828   1.987   2.747   1.357  1.1135  0.5157 -0.3783
 4805TIP3   OH235829   6.354   0.470   5.477  0.0198 -0.0156 -0.3112
 4805TIP3    H135830   6.284   0.491   5.539  0.9265  1.1432  0.3598
 4805TIP3    H235831   6.423   0.432   5.531  0.2243 -0.4357 -0.8581
 4806TIP3   OH235832   4.272   3.614   0.480 -0.0263 -0.3196  0.5478
 4806TIP3    H135833   4.364   3.611   0.503  0.4158  0.7557 -0.9388
 4806TIP3    H235834   4.239   3.526   0.498  1.6925 -1.2041 -0.4473
 4807TIP3   OH235835   1.400   6.739  12.740 -0.5359 -0.3688 -0.4232
 4807TIP3    H135836   1.443   6.814  12.780  1.3132 -1.3671 -0.3841
 4807TIP3    H235837   1.355   6.695  12.812 -1.3372  0.4871 -0.3866
 4808TIP3   OH235838   2.529   4.645  15.347 -0.6248  0.7506  0.4945
 4808TIP3    H135839   2.610   4.695  15.354  1.4491 -2.4877  1.4200
 4808TIP3    H235840   2.530   4.609  15.259 -1.5328  1.3689  0.2161
 4809TIP3   OH235841   5.995   5.218  11.757 -0.0705 -0.4174 -0.1492
 4809TIP3    H135842   6.035   5.131  11.765  0.9892 -0.1758 -2.0376
 4809TIP3    H235843   6.024   5.266  11.834  0.9608 -1.1553 -0.0592
 4810TIP3   OH235844   3.305   1.997   2.308  0.3957  0.4419  0.4481
 4810TIP3    H135845   3.378   2.039   2.262  0.9218  0.0584  0.9162
 4810TIP3    H235846   3.297   2.047   2.390  0.3189  0.3081  0.5214
 4811TIP3   OH235847   5.496   5.933   2.526 -0.1889 -0.7855 -0.7231
 4811TIP3    H135848   5.440   5.861   2.496 -1.2125 -0.5181  0.4586
 4811TIP3    H235849   5.535   5.968   2.446 -1.1997 -1.4097 -1.5155
 4812TIP3   OH235850   5.045   4.952   3.641  0.0942  0.6531 -0.4903
 4812TIP3    H135851   4.966   4.903   3.620  0.9731 -0.6693 -0.8176
 4812TIP3    H235852   5.057   5.010   3.565  0.1736 -0.0999 -1.0626
 4813TIP3   OH235853   2.651   3.041   2.881  0.2088  0.6977 -0.5703
 4813TIP3    H135854   2.633   2.997   2.798 -1.4872  0.8175 -0.3157
 4813TIP3    H235855   2.656   3.134   2.858  0.1656  0.6925 -0.6017
 4814TIP3   OH235856   1.338   3.832  14.796  0.0009 -0.8324  0.1718
 4814TIP3    H135857   1.300   3.752  14.833 -1.4070 -0.9315 -1.3652
 4814TIP3    H235858   1.280   3.855  14.723  1.9886 -0.0264 -1.2589
 4815TIP3   OH235859   4.137   2.624  11.006 -0.0275  0.0963  0.0233
 4815TIP3    H135860   4.111   2.624  11.098 -0.0699 -0.4082  0.0147
 4815TIP3    H235861   4.085   2.694  10.966  0.7616  1.0248  0.5898
 4816TIP3   OH235862   5.498   2.449  15.738  0.2663  0.0118  0.0493
 4816TIP3    H135863   5.543   2.473  15.657  1.3650 -0.4102  0.5203
 4816TIP3    H235864   5.415   2.410  15.708 -1.0688  3.1514 -0.7663
 4817TIP3   OH235865   0.959   4.867   0.256 -0.0634  0.6166  0.5222
 4817TIP3    H135866   1.039   4.815   0.263  0.3437  1.2402  0.5557
 4817TIP3    H235867   0.899   4.827   0.319  0.2934  0.2722  0.6453
 4818TIP3   OH235868   0.544   4.220   3.140  0.5999  0.0374 -0.1380
 4818TIP3    H135869   0.487   4.193   3.212  1.1268 -0.1286  0.2251
 4818TIP3    H235870   0.592   4.141   3.116  0.8024  0.2127 -0.3225
 4819TIP3   OH235871   6.111   3.460  11.478  0.1734  0.1202 -0.2844
 4819TIP3    H135872   6.032   3.480  11.528  2.0530 -0.3666  3.1804
 4819TIP3    H235873   6.090   3.381  11.429 -1.9819  0.9830 -0.8488
 4820TIP3   OH235874   2.467   1.437  15.319  0.6984 -0.3565  0.4612
 4820TIP3    H135875   2.501   1.392  15.397  1.5851 -0.9749 -0.2503
 4820TIP3    H235876   2.444   1.366  15.259  1.7676  0.1081 -0.5459
 4821TIP3   OH235877   6.051   6.383  14.731 -0.3414 -0.3802  0.2709
 4821TIP3    H135878   6.007   6.357  14.812  0.6347 -0.8036  0.6830
 4821TIP3    H235879   5.980   6.407  14.671 -1.0914 -0.4594  1.1148
 4822TIP3   OH235880   1.710   0.933  12.060  0.0550 -0.8411  0.4856
 4822TIP3    H135881   1.738   1.020  12.031  0.2110 -1.0492  0.0120
 4822TIP3    H235882   1.651   0.951  12.133  0.3496 -0.3469  0.6135
 4823TIP3   OH235883   3.831   3.123  13.329 -0.8103  0.4383  0.3096
 4823TIP3    H135884   3.887   3.201  13.331 -0.0320 -0.1063  2.6364
 4823TIP3    H235885   3.744   3.157  13.308 -0.4254  1.9223  0.9574
 4824TIP3   OH235886   2.863   1.160  15.533 -0.1716 -0.2571  1.0257
 4824TIP3    H135887   2.883   1.254  15.525  1.3699 -0.6453 -0.1778
 4824TIP3    H235888   2.910   1.132  15.611  0.0243 -0.1847  0.9343
 4825TIP3   OH235889   4.548   4.939   0.051  1.0106 -0.1800 -0.3157
 4825TIP3    H135890   4.551   5.033   0.072 -0.7958 -0.3795  1.1005
 4825TIP3    H235891   4.562   4.895   0.135 -0.8637 -1.1096 -0.4385
 4826TIP3   OH235892   2.203   3.498  14.909  0.8628 -0.1570 -0.1429
 4826TIP3    H135893   2.258   3.510  14.986 -0.2864  0.9374  0.5391
 4826TIP3    H235894   2.122   3.459  14.943 -0.5935  2.4484 -0.3709
 4827TIP3   OH235895   4.906   1.545   4.800 -0.1082  0.0540 -0.3015
 4827TIP3    H135896   4.964   1.470   4.813  0.8587  0.1102 -3.4638
 4827TIP3    H235897   4.827   1.507   4.759 -0.1088  0.6037 -0.8136
 4828TIP3   OH235898   3.702   5.091  11.769 -0.0828 -0.1049  0.0003
 4828TIP3    H135899   3.729   5.103  11.860  1.7166 -0.5443 -0.4280
 4828TIP3    H235900   3.612   5.058  11.774 -0.7883  1.8669  1.5234
 4829TIP3   OH235901   1.564   6.556  12.011 -1.0067  0.3185 -0.2012
 4829TIP3    H135902   1.534   6.629  11.957 -0.3916  0.2172 -0.6982
 4829TIP3    H235903   1.499   6.488  11.999 -1.5275  0.7435  0.1770
 4830TIP3   OH235904   0.405   4.625  17.199  0.7907 -0.0541 -0.2653
 4830TIP3    H135905   0.476   4.679  17.164  2.0036 -0.3458  1.5710
 4830TIP3    H235906   0.437   4.598  17.285 -1.3777 -0.5872  0.4252
 4831TIP3   OH235907   2.983   4.320  12.353 -0.0881 -1.1251  0.0884
 4831TIP3    H135908   2.893   4.295  12.334 -0.2409 -3.0617  2.9016
 4831TIP3    H235909   3.036   4.244  12.326  0.2671 -1.4927  1.7022
 4832TIP3   OH235910   3.384   0.536  15.272 -0.1517 -0.6003 -0.3545
 4832TIP3    H135911   3.368   0.589  15.194 -0.5540 -1.8055 -1.1099
 4832TIP3    H235912   3.299   0.532  15.316  0.4438  1.6886  1.2638
 4833TIP3   OH235913   6.091   3.255  11.309 -0.2027  0.1678 -0.0035
 4833TIP3    H135914   6.009   3.226  11.270 -1.0071  0.7143  1.2189
 4833TIP3    H235915   6.142   3.289  11.236 -1.8984  1.6861 -0.5492
 4834TIP3   OH235916   5.710   1.403   2.723 -0.4345  0.1150  0.2640
 4834TIP3    H135917   5.702   1.333   2.788  2.6782 -0.2116  0.4201
 4834TIP3    H235918   5.685   1.362   2.640  1.4213 -1.2810  0.3364
 4835TIP3   OH235919   1.950   0.245  13.792 -0.5015  0.3587  0.8431
 4835TIP3    H135920   1.951   0.169  13.850  2.0411  1.0373  1.8416
 4835TIP3    H235921   1.967   0.209  13.705 -0.0166 -0.2896  1.1981
 4836TIP3   OH235922   4.298   6.474  14.560 -0.0818 -0.3875 -0.0175
 4836TIP3    H135923   4.337   6.447  14.643  1.6068 -0.5515 -0.8288
 4836TIP3    H235924   4.228   6.410  14.545  0.4135 -1.1090  0.6659
 4837TIP3   OH235925   2.726   5.184  15.591 -0.0002  0.1932 -0.0510
 4837TIP3    H135926   2.700   5.187  15.683  1.1272  1.3391  0.2579
 4837TIP3    H235927   2.655   5.228  15.544  0.2020  1.1151  0.4883
 4838TIP3   OH235928   5.799   0.247   2.387 -0.2317  0.2779  0.4660
 4838TIP3    H135929   5.772   0.333   2.419  2.5126  1.0122  1.0108
 4838TIP3    H235930   5.814   0.260   2.293  1.6230  0.8536  0.8026
 4839TIP3   OH235931   4.248   2.844  16.002  0.0079  0.6407 -0.5149
 4839TIP3    H135932   4.201   2.769  15.967 -2.0221  0.4856  2.1748
 4839TIP3    H235933   4.317   2.805  16.057 -1.3908  0.5911  1.3291
 4840TIP3   OH235934   4.749   1.951  12.082  0.2749 -0.7258 -0.1015
 4840TIP3    H135935   4.813   2.020  12.101  0.2113 -1.2059  2.0442
 4840TIP3    H235936   4.671   1.976  12.131 -0.2733 -1.5336 -0.5448
 4841TIP3   OH235937   6.132   3.213  12.734  0.2628 -0.0473  0.0936
 4841TIP3    H135938   6.123   3.194  12.827  1.0544  0.5511  0.2998
 4841TIP3    H235939   6.144   3.127  12.693 -2.0105 -0.5252  0.2783
 4842TIP3   OH235940   5.952   1.085  17.200  0.3231 -0.9945 -0.1062
 4842TIP3    H135941   5.861   1.071  17.224  0.1297 -0.4226 -0.4902
 4842TIP3    H235942   5.951   1.088  17.104  0.0706  3.0776 -0.1372
 4843TIP3   OH235943   2.131   5.692   1.457  0.2612  0.2312  0.2525
 4843TIP3    H135944   2.115   5.601   1.433  0.3376  0.1136  0.6320
 4843TIP3    H235945   2.122   5.741   1.375 -1.5157  0.1119  0.3328
 4844TIP3   OH235946   4.421   4.899   5.120 -0.1954 -0.1237  0.1200
 4844TIP3    H135947   4.424   4.995   5.110  1.8317 -0.2590 -1.0768
 4844TIP3    H235948   4.398   4.867   5.034  0.1489 -0.7406  0.2526
 4845TIP3   OH235949   5.903   5.176  16.719 -0.4321 -0.2022  0.4613
 4845TIP3    H135950   5.811   5.197  16.734 -0.5323 -0.2054 -0.1476
 4845TIP3    H235951   5.936   5.151  16.806 -0.8065  0.5537  0.8293
 4846TIP3   OH235952   3.229   6.332   0.172 -0.0319 -0.4034  0.4476
 4846TIP3    H135953   3.210   6.369   0.086  0.0626 -0.3886  0.4333
 4846TIP3    H235954   3.193   6.396   0.234  0.2662 -0.2123  0.4254
 4847TIP3   OH235955   4.015   2.869  11.775  0.1086 -0.3982 -0.2258
 4847TIP3    H135956   4.071   2.946  11.784 -1.0733  0.3226  1.5182
 4847TIP3    H235957   3.943   2.899  11.718 -0.5547 -0.0518  0.7655
 4848TIP3   OH235958   3.454   1.935   2.717  0.4089  0.1701  0.2132
 4848TIP3    H135959   3.375   1.984   2.739  1.7759  1.7290  2.0659
 4848TIP3    H235960   3.437   1.846   2.749 -0.4133  0.6043  1.0434
 4849TIP3   OH235961   6.028   0.472   0.767 -0.4401 -0.2060 -0.1465
 4849TIP3    H135962   6.091   0.406   0.796 -0.7867 -0.6926 -0.4906
 4849TIP3    H235963   6.082   0.540   0.726  0.0758  0.5086  1.5859
 4850TIP3   OH235964   2.331   2.399  12.537  0.0545  0.0637  0.2237
 4850TIP3    H135965   2.367   2.459  12.472 -2.0756 -0.6566 -1.7577
 4850TIP3    H235966   2.324   2.450  12.617 -1.9293  2.5940 -1.4389
 4851TIP3   OH235967   4.748   0.867  17.117  0.3488 -0.1668  0.0959
 4851TIP3    H135968   4.680   0.805  17.094  0.2679 -0.2665  0.5767
 4851TIP3    H235969   4.710   0.919  17.188  0.5014  0.2758 -0.1400
 4852TIP3   OH235970   6.331   4.763   0.896  0.3932 -0.2252  0.6067
 4852TIP3    H135971   6.299   4.831   0.955  0.1547 -0.5677  0.8772
 4852TIP3    H235972   6.320   4.681   0.945 -0.7055 -0.6275 -0.2651
 4853TIP3   OH235973   0.388   5.201   0.248 -0.2850 -0.7832  0.0947
 4853TIP3    H135974   0.391   5.242   0.335  0.1410  1.6966 -1.0152
 4853TIP3    H235975   0.475   5.164   0.237  1.2049  2.5953 -0.8372
 4854TIP3   OH235976   1.852   6.278  15.161  0.4140 -0.4093 -0.0494
 4854TIP3    H135977   1.890   6.274  15.249  1.1550 -1.5791 -0.3908
 4854TIP3    H235978   1.761   6.250  15.173  0.3611 -0.0454  0.4190
 4855TIP3   OH235979   5.086   2.349  16.542 -0.2540 -0.1479 -0.2096
 4855TIP3    H135980   5.075   2.308  16.628  0.5139  0.0109 -0.0264
 4855TIP3    H235981   5.124   2.280  16.487  1.2009  0.3370  0.1460
 4856TIP3   OH235982   1.818   0.335   0.944  0.2740  0.6585  0.0278
 4856TIP3    H135983   1.847   0.269   0.882  1.7342 -0.2623  1.6110
 4856TIP3    H235984   1.888   0.400   0.945  0.1950  0.7438  0.5938
 4857TIP3   OH235985   5.484   2.335   0.383  0.3611  0.2192  0.1873
 4857TIP3    H135986   5.467   2.295   0.469 -0.4620 -1.0520 -0.5163
 4857TIP3    H235987   5.434   2.416   0.384 -1.3757 -0.7916  0.1981
 4858TIP3   OH235988   2.247   6.543  12.679 -0.2641  0.0204 -0.1039
 4858TIP3    H135989   2.195   6.550  12.759  1.3093 -0.9738  1.0602
 4858TIP3    H235990   2.306   6.470  12.695  1.5127  1.1053 -1.3539
 4859TIP3   OH235991   1.400   1.924   0.643 -0.5847  0.5922 -0.7236
 4859TIP3    H135992   1.475   1.911   0.701 -0.1522 -0.2662 -1.4547
 4859TIP3    H235993   1.342   1.982   0.692 -0.0995  0.1143  0.4573
 4860TIP3   OH235994   4.090   0.091   4.934 -0.2145  0.6435  0.1899
 4860TIP3    H135995   4.022   0.065   4.871  0.2439 -1.5798  0.5066
 4860TIP3    H235996   4.161   0.126   4.879 -1.4051  2.6379 -0.1653
 4861TIP3   OH235997   0.055   2.881   1.157 -0.4483 -0.1142 -0.3254
 4861TIP3    H135998   0.137   2.844   1.125 -0.3195  0.9302 -1.2837
 4861TIP3    H235999   0.072   2.900   1.249 -1.0808 -3.8870  0.7232
 4862TIP3   OH236000   3.958   4.083   2.904  0.6237 -0.1446  0.3957
 4862TIP3    H136001   4.037   4.033   2.885 -0.8268 -1.6275 -2.5556
 4862TIP3    H236002   3.967   4.163   2.851  0.4232 -0.0141  0.5563
 4863TIP3   OH236003   1.377   0.745   5.627  0.0339 -0.6567 -0.3459
 4863TIP3    H136004   1.394   0.706   5.713 -0.2200 -1.0421 -0.4700
 4863TIP3    H236005   1.452   0.803   5.612  1.5557 -2.6806 -1.0968
 4864TIP3   OH236006   2.714   0.443  11.258  0.0123 -0.0556 -0.4915
 4864TIP3    H136007   2.728   0.523  11.208  0.6322  1.7485  2.3490
 4864TIP3    H236008   2.783   0.384  11.229 -0.4203  0.4192 -2.6062
 4865TIP3   OH236009   1.121   4.063  12.571  0.1847  1.0489 -0.5034
 4865TIP3    H136010   1.073   3.992  12.528  0.6960  0.2248  0.2621
 4865TIP3    H236011   1.175   4.100  12.501  1.8916 -1.0338 -0.4282
 4866TIP3   OH236012   3.653   2.302  12.043  0.0883 -0.3149 -0.1080
 4866TIP3    H136013   3.593   2.318  12.116  0.8986  0.8538  0.3306
 4866TIP3    H236014   3.717   2.373  12.048  2.1309 -2.0614  0.0744
 4867TIP3   OH236015   3.186   3.205  13.974  0.5686 -0.4423  0.5485
 4867TIP3    H136016   3.269   3.159  13.969  0.9054  0.1749  0.4068
 4867TIP3    H236017   3.182   3.256  13.894  0.6598  0.5430  1.1569
 4868TIP3   OH236018   3.977   2.893  13.254  0.8801  0.2422 -0.5295
 4868TIP3    H136019   3.909   2.936  13.203 -0.1475 -1.2752 -0.5005
 4868TIP3    H236020   4.013   2.962  13.310 -0.2072  1.1987 -0.9829
 4869TIP3   OH236021   6.577   4.257   4.030  0.4317 -0.5364 -0.5909
 4869TIP3    H136022   6.499   4.310   4.050  0.0214 -1.3675  0.0776
 4869TIP3    H236023   6.544   4.167   4.025  1.4966 -1.0092  0.5704
 4870TIP3   OH236024   3.956   4.353  16.216 -0.0687 -0.0563  0.3260
 4870TIP3    H136025   3.996   4.415  16.154  0.8562 -1.7204 -0.8188
 4870TIP3    H236026   3.953   4.401  16.299  2.5378  0.8544 -0.0040
 4871TIP3   OH236027   2.556   5.522  13.120 -0.3574 -0.1554  0.1610
 4871TIP3    H136028   2.578   5.548  13.209 -0.8714 -2.1135  0.9116
 4871TIP3    H236029   2.600   5.438  13.108  0.9131  0.7219 -1.9940
 4872TIP3   OH236030   3.753   4.246  17.139 -0.0003  0.2202 -0.3181
 4872TIP3    H136031   3.760   4.281  17.051 -0.3860  0.8956 -0.0879
 4872TIP3    H236032   3.831   4.279  17.184  1.5942 -2.2028 -1.0669
 4873TIP3   OH236033   6.330   2.366  13.347  0.1185 -0.3515  0.7050
 4873TIP3    H136034   6.392   2.406  13.286  0.4902 -1.2102  0.5005
 4873TIP3    H236035   6.384   2.316  13.407 -0.4295 -3.6859 -1.3231
 4874TIP3   OH236036   6.672   1.610  10.575 -0.2430 -0.9172 -0.4590
 4874TIP3    H136037   6.577   1.623  10.568 -0.2927 -1.4411 -0.8921
 4874TIP3    H236038   6.687   1.591  10.667 -0.4091  0.2536 -0.1834
 4875TIP3   OH236039   5.315   0.008   4.319  0.2132 -0.5537  0.5414
 4875TIP3    H136040   5.221  -0.010   4.323  0.2036 -0.2637  2.4700
 4875TIP3    H236041   5.356  -0.072   4.352  0.5819 -0.2526  0.8260
 4876TIP3   OH236042   6.162   3.023   3.204 -0.4748 -0.0495  0.2505
 4876TIP3    H136043   6.168   3.095   3.141 -0.8740  0.4593  0.7801
 4876TIP3    H236044   6.090   3.048   3.262 -0.9535 -1.1304  0.1272
 4877TIP3   OH236045   1.013   3.020   0.468  0.3333  0.2032 -0.7967
 4877TIP3    H136046   0.919   3.032   0.481 -0.1548 -3.2792 -0.0150
 4877TIP3    H236047   1.054   3.083   0.528 -1.4466  1.7248 -1.0841
 4878TIP3   OH236048   4.150   3.525   4.444  0.5793  0.0603 -0.3581
 4878TIP3    H136049   4.097   3.515   4.523 -1.4041  0.5100 -1.5503
 4878TIP3    H236050   4.232   3.564   4.474  0.2472 -0.6270  1.5734
 4879TIP3   OH236051   1.791   5.414   3.125  0.2669  0.0603 -0.1803
 4879TIP3    H136052   1.697   5.428   3.137  0.2079 -0.5720  0.1948
 4879TIP3    H236053   1.801   5.395   3.032 -0.1869 -1.2473  0.0100
 4880TIP3   OH236054   3.972   3.948   2.562  0.4216 -0.5311 -0.0265
 4880TIP3    H136055   4.032   3.881   2.532  0.4573 -0.7530  0.5279
 4880TIP3    H236056   3.970   3.938   2.658  3.0354  2.4010  0.4963
 4881TIP3   OH236057   0.310   0.133  11.919  0.1181 -0.0114  0.4447
 4881TIP3    H136058   0.338   0.172  12.001  1.2312  0.3369 -0.0790
 4881TIP3    H236059   0.375   0.065  11.901 -0.8909 -1.0365  0.5401
 4882TIP3   OH236060   6.310   1.539  15.079 -0.4788 -0.5554  0.2920
 4882TIP3    H136061   6.375   1.509  15.143 -0.1955  0.2612  0.3944
 4882TIP3    H236062   6.317   1.634  15.081 -0.4913 -0.5160 -0.9174
 4883TIP3   OH236063   0.307   5.466  14.855 -0.1013 -0.0769  0.3002
 4883TIP3    H136064   0.266   5.380  14.853  0.0847 -0.1995  1.3005
 4883TIP3    H236065   0.245   5.524  14.811  0.9571 -1.1778 -2.8876
 4884TIP3   OH236066   3.822   1.859   0.199  0.1971 -0.2423 -0.1801
 4884TIP3    H136067   3.851   1.861   0.290  1.5413 -0.3154 -0.5891
 4884TIP3    H236068   3.730   1.887   0.202  0.1558 -0.4759  1.2125
 4885TIP3   OH236069   5.988   0.651  11.608 -0.1483  0.3141  0.3428
 4885TIP3    H136070   5.977   0.577  11.667 -0.0112 -0.2865 -0.3580
 4885TIP3    H236071   5.995   0.610  11.521  0.2711  1.1309 -0.0129
 4886TIP3   OH236072   6.534   1.107  13.887  0.7295 -0.0269 -0.4797
 4886TIP3    H136073   6.621   1.131  13.855  1.6481 -2.2692  0.1955
 4886TIP3    H236074   6.529   1.145  13.975  0.6964  0.7318 -0.7967
 4887TIP3   OH236075   1.610   1.755   1.581  0.1870 -0.3331 -0.2033
 4887TIP3    H136076   1.562   1.675   1.601 -1.0933  0.4558 -0.0051
 4887TIP3    H236077   1.601   1.765   1.486 -0.4810  0.0690 -0.1046
 4888TIP3   OH236078   2.868   3.755   1.055 -0.4559  0.4667  0.2733
 4888TIP3    H136079   2.952   3.774   1.012 -0.2704  0.5496  0.6632
 4888TIP3    H236080   2.839   3.839   1.089 -0.2054  0.2688  1.0003
 4889TIP3   OH236081   6.104   4.949  11.828 -0.3238  0.1604 -0.5125
 4889TIP3    H136082   6.180   4.892  11.837 -0.3017  0.2527 -0.0873
 4889TIP3    H236083   6.094   4.990  11.914 -1.2432 -0.3320 -0.3729
 4890TIP3   OH236084   6.691   2.708   3.025 -0.2181  0.6263 -0.2625
 4890TIP3    H136085   6.681   2.757   2.944 -0.9426 -2.7897 -2.4583
 4890TIP3    H236086   6.768   2.652   3.009  2.2293  2.6342  3.1256
 4891TIP3   OH236087   4.927   2.528   1.309 -0.1798 -0.7317  0.4648
 4891TIP3    H136088   4.879   2.481   1.240 -0.7140  0.5733 -0.0995
 4891TIP3    H236089   5.002   2.472   1.329  0.1658 -1.0189 -1.4084
 4892TIP3   OH236090   3.595   2.172   3.741 -0.2965 -0.2708 -0.3856
 4892TIP3    H136091   3.688   2.188   3.727 -0.1694 -1.6206 -1.2289
 4892TIP3    H236092   3.592   2.109   3.813 -0.5561 -0.2878 -0.4102
 4893TIP3   OH236093   2.434   3.219  14.131 -0.3558  0.2288  1.1373
 4893TIP3    H136094   2.346   3.254  14.147 -0.0264  0.7465  1.8910
 4893TIP3    H236095   2.492   3.285  14.168  0.3188 -0.5924  1.5719
 4894TIP3   OH236096   1.488   5.037   4.885  0.9145 -0.6386  0.2644
 4894TIP3    H136097   1.407   5.020   4.933  0.6340 -1.1166 -0.3537
 4894TIP3    H236098   1.503   4.957   4.835 -1.2602  1.2174 -3.9469
 4895TIP3   OH236099   3.617   1.907   6.022  0.3654 -0.7281  0.5701
 4895TIP3    H136100   3.706   1.941   6.028 -0.1362  0.7723 -0.1337
 4895TIP3    H236101   3.616   1.832   6.082  2.1665 -0.9481  0.3738
 4896TIP3   OH236102   3.695   5.313  10.632  0.4611  0.3850  0.5144
 4896TIP3    H136103   3.700   5.233  10.683 -0.9896 -0.4843 -0.6098
 4896TIP3    H236104   3.746   5.296  10.553 -1.7069 -0.4031 -0.8283
 4897TIP3   OH236105   0.149   2.658   4.432 -0.0517  0.1074 -0.0894
 4897TIP3    H136106   0.162   2.748   4.463 -0.1412  0.4301 -0.9513
 4897TIP3    H236107   0.182   2.659   4.342 -0.5536 -0.5833 -0.2862
 4898TIP3   OH236108   1.852   4.463   6.841 -0.2544  0.1097 -0.4108
 4898TIP3    H136109   1.942   4.478   6.812 -0.3432  1.8729  0.0733
 4898TIP3    H236110   1.827   4.380   6.801  1.7980 -0.7512 -0.0406
 4899TIP3   OH236111   3.450   5.859   6.121  0.0556 -0.1689 -0.3871
 4899TIP3    H136112   3.422   5.863   6.213 -0.7011 -0.9873 -0.5716
 4899TIP3    H236113   3.390   5.917   6.075 -1.7534 -2.2704 -0.8550
 4900TIP3   OH236114   0.735   1.103  16.203  0.6260 -0.1506 -0.3122
 4900TIP3    H136115   0.674   1.139  16.139  1.5023  0.1848 -0.9857
 4900TIP3    H236116   0.710   1.011  16.212 -0.9166  0.3172  0.5672
 4901TIP3   OH236117   5.882   6.491   3.582  0.3801 -0.2787 -0.2483
 4901TIP3    H136118   5.852   6.446   3.662  0.3195  0.6204  0.2516
 4901TIP3    H236119   5.977   6.499   3.594  0.2463  0.7325  0.2042
 4902TIP3   OH236120   1.860   1.685   0.439 -0.2088  0.0989  0.6816
 4902TIP3    H136121   1.902   1.756   0.489 -3.1796  2.6592 -0.1286
 4902TIP3    H236122   1.879   1.706   0.348 -0.1465 -0.8807  0.4588
 4903TIP3   OH236123   0.838   0.859  12.431  0.4191  0.4354 -0.4096
 4903TIP3    H136124   0.785   0.810  12.494  0.8335  1.2248  0.5727
 4903TIP3    H236125   0.910   0.800  12.410  1.1917  0.7710  1.1524
 4904TIP3   OH236126   2.746   3.138  16.691 -0.0200 -0.1712  0.6019
 4904TIP3    H136127   2.757   3.172  16.602 -0.8824  0.9987  0.9114
 4904TIP3    H236128   2.653   3.118  16.698  0.1309 -0.7214  1.0875
 4905TIP3   OH236129   2.418   4.411  15.818  0.5165 -0.2901 -0.3584
 4905TIP3    H136130   2.449   4.482  15.875 -1.0210 -1.1573  1.6753
 4905TIP3    H236131   2.385   4.456  15.740  1.0070  1.1105  0.2126
 4906TIP3   OH236132   1.099   2.225  11.821 -0.3298  0.4144  0.0514
 4906TIP3    H136133   1.110   2.317  11.797  0.7272  0.1258 -0.6428
 4906TIP3    H236134   1.020   2.197  11.774  1.0912  0.1533 -2.3635
 4907TIP3   OH236135   2.096   4.874   5.044 -0.2158 -0.0548  0.4648
 4907TIP3    H136136   2.017   4.886   5.097  0.7240 -0.5113  2.0545
 4907TIP3    H236137   2.112   4.780   5.044 -0.0165 -0.0311 -0.3827
 4908TIP3   OH236138   5.853   2.618   1.752  0.2591  0.6801 -0.4238
 4908TIP3    H136139   5.934   2.567   1.750  1.5007  2.4989  0.9064
 4908TIP3    H236140   5.860   2.671   1.831 -1.7740  1.6379 -0.8343
 4909TIP3   OH236141   4.063   2.264   3.486  0.5967 -0.1634  0.0132
 4909TIP3    H136142   4.145   2.216   3.476  0.6062 -0.1792  0.1732
 4909TIP3    H236143   4.083   2.333   3.549  0.4814 -0.1793  0.0673
 4910TIP3   OH236144   6.303   3.485   1.594 -0.6812  0.6470  0.3636
 4910TIP3    H136145   6.231   3.497   1.657 -2.2710 -0.4856 -1.1553
 4910TIP3    H236146   6.279   3.406   1.545  2.4242 -0.7268  0.8456
 4911TIP3   OH236147   1.396   0.028  15.925  0.0893 -0.3101 -0.1309
 4911TIP3    H136148   1.491   0.034  15.912 -0.0067  0.0833 -0.7388
 4911TIP3    H236149   1.385   0.009  16.018  0.7884 -1.3099 -0.2452
 4912TIP3   OH236150   2.610   6.466   5.132 -0.1873  0.6711 -0.2704
 4912TIP3    H136151   2.523   6.470   5.092 -1.0732  0.2595  1.5203
 4912TIP3    H236152   2.606   6.390   5.190  1.1945  0.9804  0.2660
 4913TIP3   OH236153   0.471   5.651   5.644 -0.1233 -0.1963  0.3882
 4913TIP3    H136154   0.390   5.666   5.693 -0.4140 -0.4736 -0.0033
 4913TIP3    H236155   0.499   5.563   5.671 -1.9533 -1.7103 -2.2321
 4914TIP3   OH236156   6.510   4.519   6.130 -0.1414  0.0307  0.4194
 4914TIP3    H136157   6.553   4.592   6.086  0.2218 -0.2742  0.2584
 4914TIP3    H236158   6.571   4.446   6.119 -0.6739 -0.3939  0.2396
 4915TIP3   OH236159   5.380   2.643   5.680  0.2488 -0.1034 -0.1564
 4915TIP3    H136160   5.461   2.693   5.696  0.4883 -0.3378 -0.6313
 4915TIP3    H236161   5.371   2.588   5.758 -0.6523  1.5011  0.9415
 4916TIP3   OH236162   0.588   5.320   4.766  0.3750 -0.3232 -0.5437
 4916TIP3    H136163   0.599   5.268   4.846  2.4461 -0.8649 -1.1097
 4916TIP3    H236164   0.631   5.403   4.784 -0.5634  0.1782 -0.5658
 4917TIP3   OH236165   0.547   4.759  11.236 -0.5681 -0.1209  0.4938
 4917TIP3    H136166   0.485   4.703  11.189 -1.3919  2.0413 -1.1886
 4917TIP3    H236167   0.520   4.754  11.327 -1.7949 -0.9887  0.1029
 4918TIP3   OH236168   5.169   2.529   5.519  0.1759  0.2253 -0.2793
 4918TIP3    H136169   5.232   2.559   5.584  1.3768  1.3443 -1.8881
 4918TIP3    H236170   5.107   2.601   5.511 -0.0022  0.0671 -0.3202
 4919TIP3   OH236171   2.725   4.611   3.411  0.4045  0.0199  0.0371
 4919TIP3    H136172   2.661   4.652   3.352  1.1765  0.7974 -0.2808
 4919TIP3    H236173   2.726   4.668   3.487  1.3523  0.5095 -0.3303
 4920TIP3   OH236174   0.173   5.830  12.190 -0.1776  0.5912  0.2474
 4920TIP3    H136175   0.149   5.789  12.273  1.5631 -2.1192 -0.4357
 4920TIP3    H236176   0.092   5.829  12.138 -0.4631 -1.0794  0.6659
 4921TIP3   OH236177   3.256   2.764   3.760  0.1268 -0.2058  0.2455
 4921TIP3    H136178   3.185   2.721   3.807 -0.6034  0.2188 -0.4514
 4921TIP3    H236179   3.213   2.828   3.703  1.1960  1.9068  1.6579
 4922TIP3   OH236180   2.085   1.918   3.609 -0.3703  0.4561  0.4349
 4922TIP3    H136181   2.169   1.875   3.592  0.2802  1.4290  1.1565
 4922TIP3    H236182   2.081   1.989   3.545 -0.7205  0.3396  0.3199
 4923TIP3   OH236183   5.054   3.059  14.171 -0.0079 -0.0419 -0.1906
 4923TIP3    H136184   5.110   3.011  14.231  0.8554  1.9003  0.6336
 4923TIP3    H236185   4.981   3.089  14.225  0.2683  0.8962 -0.3314
 4924TIP3   OH236186   2.941   6.032   1.059 -1.2321  0.0184  0.4617
 4924TIP3    H136187   2.948   6.060   0.968  0.2418 -0.4625  0.3991
 4924TIP3    H236188   3.014   6.076   1.103 -1.1838 -0.7219  1.1447
 4925TIP3   OH236189   3.705   2.791   0.503 -0.0075 -0.0508 -0.5223
 4925TIP3    H136190   3.678   2.780   0.594 -1.0086  1.3688 -0.6189
 4925TIP3    H236191   3.687   2.706   0.463  1.4831 -1.0603  0.8118
 4926TIP3   OH236192   4.579   2.780   2.821 -0.4620  0.6389 -0.7172
 4926TIP3    H136193   4.582   2.862   2.771  0.8300  0.4051 -1.0578
 4926TIP3    H236194   4.667   2.772   2.858 -0.4310 -0.8347 -1.0720
 4927TIP3   OH236195   4.252   0.531   6.035 -0.2826 -0.0272  0.2330
 4927TIP3    H136196   4.169   0.516   6.080  0.5098 -0.9911  1.4535
 4927TIP3    H236197   4.292   0.604   6.083 -0.8287  1.1060 -0.9755
 4928TIP3   OH236198   6.579   2.740   2.068  0.3961 -0.0059 -0.3885
 4928TIP3    H136199   6.532   2.663   2.100  1.7300 -0.6626  0.0837
 4928TIP3    H236200   6.539   2.814   2.114  0.5671 -0.6649  0.8580
 4929TIP3   OH236201   4.250   0.213  13.665 -0.4502  0.9630 -0.4788
 4929TIP3    H136202   4.183   0.266  13.708 -1.1790  0.8747 -1.4790
 4929TIP3    H236203   4.259   0.251  13.578 -1.5051 -0.9372 -1.4826
 4930TIP3   OH236204   0.042   5.783  15.144  0.0214 -0.6465  0.1948
 4930TIP3    H136205   0.075   5.855  15.197  1.1303  0.1795 -1.5583
 4930TIP3    H236206   0.120   5.743  15.106 -0.7770  0.4292 -2.8768
 4931TIP3   OH236207   3.236   2.054  15.247  0.3717 -0.3565  0.1925
 4931TIP3    H136208   3.252   2.084  15.157  1.0022  1.1662  0.7828
 4931TIP3    H236209   3.154   2.006  15.241  0.2128  0.0244 -1.1342
 4932TIP3   OH236210   0.020   0.945  13.944 -0.2042 -0.0963  0.1262
 4932TIP3    H136211   0.029   1.038  13.922 -1.6349 -0.0105 -0.2433
 4932TIP3    H236212  -0.026   0.946  14.029  2.1524 -0.4662  1.4741
 4933TIP3   OH236213   1.645   6.291   1.171 -0.3021 -0.0175 -0.1696
 4933TIP3    H136214   1.720   6.239   1.198  1.2596  0.3031 -3.4424
 4933TIP3    H236215   1.607   6.242   1.097 -2.9704  0.1741  0.9519
 4934TIP3   OH236216   5.050   6.733  15.446 -0.7047  0.1533 -0.1601
 4934TIP3    H136217   5.014   6.816  15.477  0.7502  0.3343  1.1797
 4934TIP3    H236218   5.026   6.669  15.513 -0.9461 -0.3041 -0.6745
 4935TIP3   OH236219   1.293   3.802  12.651  0.0623 -0.2808  0.0746
 4935TIP3    H136220   1.251   3.887  12.638  0.9452  0.5286  2.0731
 4935TIP3    H236221   1.386   3.819  12.636 -0.0795 -1.9359 -3.7985
 4936TIP3   OH236222   4.066   4.714  11.541 -0.2659  0.3299  0.4443
 4936TIP3    H136223   4.074   4.621  11.561 -5.3703 -0.0411  2.1367
 4936TIP3    H236224   4.137   4.755  11.591  1.5477 -2.4837  0.4205
 4937TIP3   OH236225   5.261   0.897   0.247  0.2670 -0.0344  0.0720
 4937TIP3    H136226   5.250   0.945   0.329  0.3564 -1.7224  1.1198
 4937TIP3    H236227   5.172   0.873   0.222  0.3939 -1.8548  1.1811
 4938TIP3   OH236228   2.551   0.868   6.058  0.0724  0.6398  0.4140
 4938TIP3    H136229   2.464   0.836   6.082  0.3307 -0.6597 -0.2807
 4938TIP3    H236230   2.604   0.859   6.137  0.0682 -0.4368  0.3001
 4939TIP3   OH236231   6.072   3.274  15.500  0.3821 -0.6925  0.1080
 4939TIP3    H136232   6.049   3.218  15.426 -1.8229 -0.4088  0.5051
 4939TIP3    H236233   6.025   3.237  15.575 -0.3584  1.0784  0.5886
 4940TIP3   OH236234   5.962   0.381   2.847  0.0423  0.2491  0.3503
 4940TIP3    H136235   5.943   0.453   2.907 -1.5982  1.2399 -1.2473
 4940TIP3    H236236   5.896   0.315   2.866  1.3613 -0.7589  1.6077
 4941TIP3   OH236237   4.796   4.858   2.482  0.2776 -0.2533  0.6934
 4941TIP3    H136238   4.833   4.850   2.569 -0.8633  1.6015  1.4183
 4941TIP3    H236239   4.751   4.943   2.483  0.9104  0.2196 -1.9489
 4942TIP3   OH236240   2.504   3.504   3.452 -0.3959 -0.2328 -0.7242
 4942TIP3    H136241   2.498   3.476   3.543 -1.6024  1.8606 -0.0837
 4942TIP3    H236242   2.598   3.497   3.430  0.2295  1.0330  1.3192
 4943TIP3   OH236243   0.260   6.465  14.808  0.5964 -0.1622  0.2911
 4943TIP3    H136244   0.289   6.381  14.844 -1.3556 -1.0112 -0.0063
 4943TIP3    H236245   0.225   6.512  14.884 -0.7398 -0.7209  0.0407
 4944TIP3   OH236246   0.879   2.853   2.402 -0.0142  0.1399  0.3829
 4944TIP3    H136247   0.789   2.821   2.401 -0.1945  0.6571 -0.5117
 4944TIP3    H236248   0.918   2.820   2.321  1.4054 -2.2530  1.9205
 4945TIP3   OH236249   3.208   2.431  15.648 -0.8527  0.2329 -0.2715
 4945TIP3    H136250   3.170   2.367  15.708  0.2858 -0.1478  0.0501
 4945TIP3    H236251   3.260   2.380  15.587 -1.1302  0.7224 -0.9387
 4946TIP3   OH236252   2.409   2.510  16.337  0.6443  0.1545 -0.0557
 4946TIP3    H136253   2.325   2.474  16.365  0.4210  0.0451 -0.8461
 4946TIP3    H236254   2.474   2.459  16.384  0.2679  0.3568  0.6992
 4947TIP3   OH236255   4.063   3.947  11.302  0.4697  0.5819 -0.3808
 4947TIP3    H136256   3.971   3.973  11.313  0.9720  1.3328  4.3776
 4947TIP3    H236257   4.106   4.025  11.267 -0.2952  1.2502  0.1180
 4948TIP3   OH236258   2.687   0.366  15.298 -0.5664 -0.4488  0.2063
 4948TIP3    H136259   2.667   0.273  15.281 -2.0948  0.0511 -1.0349
 4948TIP3    H236260   2.682   0.375  15.393  2.3389 -2.1696  0.6345
 4949TIP3   OH236261   5.829   4.175   6.705  0.1800  0.3677 -0.2442
 4949TIP3    H136262   5.836   4.174   6.800 -1.1325  0.6591 -0.1346
 4949TIP3    H236263   5.918   4.156   6.674  0.4852 -0.3565  1.0310
 4950TIP3   OH236264   5.662   1.983   3.106  0.2757  0.3924  0.2541
 4950TIP3    H136265   5.617   1.977   3.190  0.7782 -2.4247  0.4189
 4950TIP3    H236266   5.611   2.047   3.056 -0.4937  1.5507  2.3990
 4951TIP3   OH236267   5.319   1.719   1.956  0.2976  0.2468 -0.1141
 4951TIP3    H136268   5.377   1.643   1.952  0.4685  0.2027  2.1034
 4951TIP3    H236269   5.378   1.793   1.963  0.1200  0.6220 -1.9666
 4952TIP3   OH236270   6.063   6.386  15.492 -0.3025 -0.2323 -0.0714
 4952TIP3    H136271   6.046   6.479  15.481 -0.3293 -0.3285 -0.9391
 4952TIP3    H236272   6.139   6.369  15.437  0.7889 -0.4006  1.4260
 4953TIP3   OH236273   3.561   3.665   2.915 -0.0105 -0.0487  0.1598
 4953TIP3    H136274   3.609   3.709   2.985  0.9174  0.5532 -0.8243
 4953TIP3    H236275   3.474   3.704   2.917  0.5629  1.2809 -0.1909
 4954TIP3   OH236276   3.177   1.173   1.131 -0.2269 -0.1970 -0.4393
 4954TIP3    H136277   3.125   1.249   1.106 -1.5896 -0.2812  1.7795
 4954TIP3    H236278   3.227   1.202   1.207 -2.1697 -1.8829  1.6460
 4955TIP3   OH236279   6.782   1.223  13.920  0.5718  0.0032  0.2801
 4955TIP3    H136280   6.842   1.247  13.991  0.3608  1.8711 -0.1484
 4955TIP3    H236281   6.820   1.261  13.842 -0.0614 -0.6610 -0.3668
 4956TIP3   OH236282   0.756   0.494   5.775  0.1071 -0.0410  0.0712
 4956TIP3    H136283   0.676   0.459   5.815  1.2144  0.5759  3.0921
 4956TIP3    H236284   0.724   0.558   5.711 -1.8080 -2.4449 -1.5889
 4957TIP3   OH236285   1.608   1.949   0.936  0.0204  0.1495 -0.0807
 4957TIP3    H136286   1.613   1.941   1.031 -2.7611  1.4250  0.2752
 4957TIP3    H236287   1.619   1.860   0.904 -0.9987 -0.6342  1.6015
 4958TIP3   OH236288   2.228   2.433   2.266  0.1807  0.8052  0.4818
 4958TIP3    H136289   2.228   2.376   2.189  0.5912 -0.5792  1.4735
 4958TIP3    H236290   2.320   2.446   2.286  0.0721  0.6551  1.0890
 4959TIP3   OH236291   5.204   0.757  16.967 -0.1971  0.1740  0.0320
 4959TIP3    H136292   5.161   0.837  16.937 -0.7880  0.3828  1.3613
 4959TIP3    H236293   5.132   0.697  16.987  0.2390 -0.6873 -0.8975
 4960TIP3   OH236294   3.563   0.721   1.871 -0.4376  0.3522  0.1407
 4960TIP3    H136295   3.635   0.728   1.934 -0.1950  0.9164 -0.1893
 4960TIP3    H236296   3.487   0.758   1.917 -0.7922 -1.2139  0.8782
 4961TIP3   OH236297   0.816   2.345  11.996 -0.5089  0.5024 -0.2237
 4961TIP3    H136298   0.748   2.390  11.944 -1.6798  0.7295  1.4193
 4961TIP3    H236299   0.815   2.391  12.080 -0.5242 -1.4911  0.9162
 4962TIP3   OH236300   6.325   1.803   0.254 -0.4730 -0.8867  0.2203
 4962TIP3    H136301   6.419   1.790   0.242  0.0947  1.1638  1.6954
 4962TIP3    H236302   6.284   1.733   0.204  1.8306 -1.8518 -0.4649
 4963TIP3   OH236303   2.814   5.175   1.511  0.0600  0.2667  0.2759
 4963TIP3    H136304   2.827   5.148   1.421 -0.6329 -1.5156  0.6674
 4963TIP3    H236305   2.902   5.196   1.543  0.4604 -0.2678 -0.4503
 4964TIP3   OH236306   6.263   0.988   3.883 -0.3997  0.2002  0.0499
 4964TIP3    H136307   6.292   0.933   3.810  0.6811  1.1744 -0.2950
 4964TIP3    H236308   6.291   0.940   3.962  1.0139  0.4825 -0.2555
 4965TIP3   OH236309   0.768   3.248  14.136  0.5009 -0.1802  0.5545
 4965TIP3    H136310   0.736   3.186  14.070 -1.1606 -0.7186  1.8029
 4965TIP3    H236311   0.755   3.334  14.095 -1.3956 -0.4464  0.4796
 4966TIP3   OH236312   3.205   4.108   0.703  0.1937 -0.2164  0.4827
 4966TIP3    H136313   3.130   4.145   0.656  0.3370 -0.0818  0.3597
 4966TIP3    H236314   3.278   4.166   0.682  1.1076 -2.0425 -1.9787
 4967TIP3   OH236315   2.585   2.569  15.115  0.0730  0.0213  0.1452
 4967TIP3    H136316   2.583   2.593  15.207  0.8190  0.8810 -0.0445
 4967TIP3    H236317   2.648   2.629  15.076  0.2524 -0.7547 -0.8069
 4968TIP3   OH236318   6.256   0.439  10.766  0.0464  0.0701 -0.0654
 4968TIP3    H136319   6.182   0.380  10.779 -0.0953 -0.0909 -1.4710
 4968TIP3    H236320   6.309   0.428  10.845 -0.5256 -1.1182  0.1808
 4969TIP3   OH236321   4.811   6.387  15.079 -0.4219 -0.2053 -0.1318
 4969TIP3    H136322   4.798   6.292  15.082  0.9809 -0.4172  1.9013
 4969TIP3    H236323   4.842   6.409  15.167 -0.0972  2.0573 -0.7470
 4970TIP3   OH236324   3.888   3.626   1.323 -0.0121  0.0824  0.3416
 4970TIP3    H136325   3.897   3.576   1.404 -0.4342  1.0592  1.0082
 4970TIP3    H236326   3.857   3.712   1.351 -0.2567  0.4064 -0.8697
 4971TIP3   OH236327   3.172   6.716  13.010  0.4832  0.5953  0.5367
 4971TIP3    H136328   3.212   6.629  13.006 -0.2705  0.1797  1.5975
 4971TIP3    H236329   3.113   6.718  12.935  0.4204  0.1416  0.5678
 4972TIP3   OH236330   2.032   6.441   4.919 -0.0241 -0.2453 -0.0943
 4972TIP3    H136331   1.959   6.399   4.873  0.5570 -0.5111 -0.7818
 4972TIP3    H236332   2.109   6.389   4.896  0.4550  0.2615  0.3128
 4973TIP3   OH236333   5.776   5.144   2.354  0.0891  0.6810 -0.3960
 4973TIP3    H136334   5.687   5.112   2.335 -1.2875  3.1332  1.2813
 4973TIP3    H236335   5.782   5.226   2.305  1.5615  0.4434 -0.6554
 4974TIP3   OH236336   5.110   5.026   3.895  0.1136 -0.5664  1.1102
 4974TIP3    H136337   5.132   4.938   3.927  1.7080 -0.6186 -0.0358
 4974TIP3    H236338   5.073   5.011   3.808 -0.0147 -0.1200  1.0855
 4975TIP3   OH236339   4.503   3.951   2.616  0.0719 -0.2560  0.6450
 4975TIP3    H136340   4.426   3.922   2.567  0.3011  1.1593 -0.6530
 4975TIP3    H236341   4.490   4.045   2.628  1.4424 -0.0462  0.6600
 4976TIP3   OH236342   2.482   1.165  11.846 -0.1739  0.0041 -0.0291
 4976TIP3    H136343   2.497   1.089  11.791 -0.5417  0.4711 -0.7935
 4976TIP3    H236344   2.388   1.179  11.844 -0.1581  0.2177  0.4626
 4977TIP3   OH236345   0.188   1.065   0.483  0.7248 -0.3967  0.1635
 4977TIP3    H136346   0.205   1.056   0.390 -1.6388 -0.1187 -0.3674
 4977TIP3    H236347   0.151   1.152   0.493  0.2056 -0.7121  1.2295
 4978TIP3   OH236348   3.257   5.833   3.972 -0.0446 -0.4781 -0.0613
 4978TIP3    H136349   3.327   5.771   3.994 -0.9186 -1.9941 -1.3394
 4978TIP3    H236350   3.191   5.819   4.041  0.8978  1.0312  1.2079
 4979TIP3   OH236351   3.976   1.373   5.842 -0.1924 -0.2253  1.0242
 4979TIP3    H136352   3.884   1.358   5.817 -0.0508  0.4947  0.0010
 4979TIP3    H236353   4.013   1.419   5.767  0.4193  1.5527  2.3648
 4980TIP3   OH236354   5.507   1.211   1.293  0.4796  0.1139  0.4663
 4980TIP3    H136355   5.579   1.147   1.288 -0.7347 -1.4468  1.8107
 4980TIP3    H236356   5.428   1.157   1.292 -0.6272  1.6898  0.6566
 4981TIP3   OH236357   5.298   4.946   1.394 -0.4194 -0.0896  0.7350
 4981TIP3    H136358   5.210   4.911   1.382 -0.9260  0.3648  2.7139
 4981TIP3    H236359   5.285   5.025   1.447  1.1822 -0.0840  1.1631
 4982TIP3   OH236360   2.488   6.262   3.446  0.0455  0.4058  0.4965
 4982TIP3    H136361   2.572   6.301   3.471 -0.2579 -0.1847  2.6127
 4982TIP3    H236362   2.449   6.233   3.528 -1.1303 -1.5813 -0.6642
 4983TIP3   OH236363   4.741   5.282   5.947  0.1815 -0.3408  0.1848
 4983TIP3    H136364   4.712   5.358   5.997 -1.4232  0.9597 -2.5210
 4983TIP3    H236365   4.719   5.207   6.003 -2.3708  0.9560  1.0623
 4984TIP3   OH236366   5.526   3.830   1.148 -0.2004  0.3839  0.3392
 4984TIP3    H136367   5.501   3.817   1.057  0.0029  0.2640  0.3007
 4984TIP3    H236368   5.617   3.858   1.144 -0.3779  0.9987  0.4683
 4985TIP3   OH236369   2.968   6.588  14.735 -0.5098 -0.6646 -0.1281
 4985TIP3    H136370   2.875   6.567  14.742 -0.4020 -0.7618  1.1518
 4985TIP3    H236371   3.011   6.503  14.726 -0.6215 -0.5601 -2.0375
 4986TIP3   OH236372   1.962   5.474   0.375  0.0298 -0.4012 -0.1617
 4986TIP3    H136373   1.968   5.428   0.459 -1.7165  0.3166  0.3808
 4986TIP3    H236374   1.994   5.410   0.311 -1.6890 -2.1798  0.6575
 4987TIP3   OH236375   1.236   0.246   1.460 -0.3373  0.6634  0.0197
 4987TIP3    H136376   1.141   0.248   1.476 -0.3649  1.5724 -0.2052
 4987TIP3    H236377   1.260   0.338   1.447  0.5622  0.4296 -0.0273
 4988TIP3   OH236378   5.879   4.503   1.098  0.1848  0.1012 -0.3623
 4988TIP3    H136379   5.939   4.573   1.073  1.2535 -0.9963 -0.9610
 4988TIP3    H236380   5.850   4.466   1.015  1.2054 -1.4547 -0.0601
 4989TIP3   OH236381   0.933   4.737  12.947 -0.2820  0.0617 -0.5971
 4989TIP3    H136382   0.959   4.805  13.009 -0.8357  0.5688 -0.9113
 4989TIP3    H236383   0.987   4.754  12.869  1.0046 -1.0644 -0.0019
 4990TIP3   OH236384   2.934   4.249   6.353  0.5759  0.3781 -0.5225
 4990TIP3    H136385   2.992   4.188   6.307 -0.4069  0.4078 -1.8722
 4990TIP3    H236386   2.896   4.198   6.425  1.1153 -0.0697 -0.5566
 4991TIP3   OH236387   5.180   0.050  11.269 -0.2535  0.5323  0.2063
 4991TIP3    H136388   5.226  -0.005  11.206 -0.7810  1.4155 -0.9873
 4991TIP3    H236389   5.199   0.140  11.241 -0.9021  0.9361  1.0130
 4992TIP3   OH236390   5.689   6.247  16.578  0.0828  0.4050 -0.6463
 4992TIP3    H136391   5.643   6.222  16.658 -0.4076  0.0147 -1.0395
 4992TIP3    H236392   5.729   6.332  16.598 -1.5261  1.1849 -0.5604
 4993TIP3   OH236393   2.892   6.470  12.592  0.1207 -0.4611  0.1250
 4993TIP3    H136394   2.887   6.563  12.569  1.2084 -0.9981 -2.5923
 4993TIP3    H236395   2.982   6.445  12.571 -0.0377 -2.0684  1.1910
 4994TIP3   OH236396   0.059   3.071  14.491 -0.7012  1.0334 -0.5732
 4994TIP3    H136397   0.115   3.139  14.529  0.2321  0.5418 -1.0421
 4994TIP3    H236398   0.065   2.998  14.552 -0.0060  0.6135 -1.1237
 4995TIP3   OH236399   1.758   0.278  15.534  0.1266 -0.0108  0.1260
 4995TIP3    H136400   1.826   0.220  15.501  1.3951  0.7902  1.2446
 4995TIP3    H236401   1.805   0.356  15.564 -1.2894  0.6166  0.8183
 4996TIP3   OH236402   3.134   1.242   5.619 -0.5580 -0.5929  0.0808
 4996TIP3    H136403   3.107   1.211   5.533 -0.0845 -2.1308  0.4711
 4996TIP3    H236404   3.190   1.173   5.654  0.0299  0.4295  1.2429
 4997TIP3   OH236405   5.794   4.739   0.471 -0.0673 -0.1186  0.7277
 4997TIP3    H136406   5.776   4.801   0.400  0.1595 -0.3197  0.4913
 4997TIP3    H236407   5.886   4.715   0.458 -0.2668 -0.8153  0.5669
 4998TIP3   OH236408   4.413   5.588   0.411 -1.0047  0.2083  0.3109
 4998TIP3    H136409   4.416   5.532   0.489 -1.4002  0.4448  0.4995
 4998TIP3    H236410   4.342   5.550   0.358 -0.1754 -0.4759 -0.3447
 4999TIP3   OH236411   0.831   1.321   2.464  0.3860 -0.5509  0.7331
 4999TIP3    H136412   0.832   1.372   2.545  0.1937 -1.8662  1.5966
 4999TIP3    H236413   0.834   1.230   2.493 -0.3301 -1.0713 -0.7210
 5000TIP3   OH236414   6.043   4.353   2.895  0.3906 -0.3446  0.3549
 5000TIP3    H136415   5.998   4.400   2.825 -0.8406 -0.0833  1.2888
 5000TIP3    H236416   6.049   4.262   2.863  1.3894  0.0998 -0.7937
 5001TIP3   OH236417   4.139   5.873  13.255  0.8787  0.1386 -0.0158
 5001TIP3    H136418   4.173   5.829  13.177  1.2609  1.1033 -0.4090
 5001TIP3    H236419   4.216   5.888  13.309  0.5707 -0.8182  0.7122
 5002TIP3   OH236420   6.318   1.484   3.649  0.4248  0.0245  0.0240
 5002TIP3    H136421   6.321   1.401   3.698  0.9157 -0.1998 -0.3812
 5002TIP3    H236422   6.239   1.477   3.595  1.3235 -0.8771 -1.2166
 5003TIP3   OH236423   5.587   0.595  11.319 -0.7256 -0.3448  0.2816
 5003TIP3    H136424   5.635   0.648  11.383  0.7791 -0.0485 -1.0350
 5003TIP3    H236425   5.545   0.659  11.262  0.1173 -0.5511 -0.5978
 5004TIP3   OH236426   6.709   1.588  11.948  0.2940 -0.4489 -0.3597
 5004TIP3    H136427   6.727   1.614  11.858  1.1666 -1.4639 -0.5064
 5004TIP3    H236428   6.788   1.613  11.996  0.2613 -0.8412 -0.0931
 5005TIP3   OH236429   4.480   3.612   4.269  0.3439  0.4039  0.0560
 5005TIP3    H136430   4.559   3.623   4.216 -0.6922 -0.0482 -1.6662
 5005TIP3    H236431   4.435   3.697   4.263 -0.6852 -0.2097 -1.3905
 5006TIP3   OH236432   0.922   6.715  14.431  0.1650  0.6580  0.2319
 5006TIP3    H136433   0.909   6.639  14.374 -0.7601  0.4084  0.7561
 5006TIP3    H236434   0.971   6.778  14.377 -0.7481  0.4542 -0.8656
 5007TIP3   OH236435   5.297   1.012   1.295 -0.1454 -0.2054  0.5072
 5007TIP3    H136436   5.253   0.945   1.243  0.7819 -0.1939 -0.3320
 5007TIP3    H236437   5.340   0.964   1.365  0.3313 -0.4743  0.0376
 5008TIP3   OH236438   0.262   3.738  11.342  0.0798  0.0335 -0.2544
 5008TIP3    H136439   0.277   3.832  11.329 -0.4981  0.0384 -0.9702
 5008TIP3    H236440   0.293   3.698  11.261 -2.4702 -0.0687 -1.3032
 5009TIP3   OH236441   3.610   5.792  12.136 -0.9563  0.2088  0.1555
 5009TIP3    H136442   3.635   5.813  12.046  0.7789 -0.0843  0.5375
 5009TIP3    H236443   3.665   5.717  12.160 -2.0356 -0.3030  1.1761
 5010TIP3   OH236444   0.370   4.037   1.466  0.0078  0.0351 -0.1638
 5010TIP3    H136445   0.319   4.084   1.531 -0.0718  0.7268 -0.7127
 5010TIP3    H236446   0.306   3.983   1.419  0.0496 -0.3829  0.2616
 5011TIP3   OH236447   0.411   2.913   1.269  0.5556  0.1336 -0.3759
 5011TIP3    H136448   0.429   2.958   1.186  2.8796 -1.1290 -0.6425
 5011TIP3    H236449   0.369   2.831   1.242  1.1369 -0.1920 -0.2989
 5012TIP3   OH236450   0.811   3.792  15.848 -0.1689  0.2459 -0.7470
 5012TIP3    H136451   0.874   3.754  15.910 -0.7947 -0.0557 -0.2817
 5012TIP3    H236452   0.728   3.791  15.896 -0.4902  0.8104 -1.2868
 5013TIP3   OH236453   5.141   4.441  16.825  0.1720  0.0314 -0.2077
 5013TIP3    H136454   5.200   4.516  16.824  1.8801 -1.2179 -1.3558
 5013TIP3    H236455   5.143   4.409  16.915  2.7093 -0.9507 -0.5040
 5014TIP3   OH236456   0.516   2.652   2.062 -0.1459  0.1639  0.3914
 5014TIP3    H136457   0.463   2.609   2.130 -1.0964 -1.4071 -1.2591
 5014TIP3    H236458   0.599   2.604   2.062 -0.2651 -0.0449  0.2431
 5015TIP3   OH236459   1.960   3.425   0.844 -0.7441 -0.5474 -0.0390
 5015TIP3    H136460   2.010   3.346   0.826  1.6735  0.6517  0.8749
 5015TIP3    H236461   1.927   3.453   0.759 -0.8389 -2.0143 -0.5065
 5016TIP3   OH236462   4.135   5.065   6.428 -0.4227 -0.3032 -0.0081
 5016TIP3    H136463   4.082   5.032   6.500 -0.7855 -0.1615 -0.2074
 5016TIP3    H236464   4.157   5.155   6.452  0.3698 -0.6043  0.4266
 5017TIP3   OH236465   5.331   5.846   3.372  0.5103 -0.0874  0.2575
 5017TIP3    H136466   5.353   5.827   3.463 -1.0705 -0.0147  0.6880
 5017TIP3    H236467   5.382   5.924   3.350  4.0244 -2.2858 -0.2620
 5018TIP3   OH236468   5.929   6.700   1.955  0.5071  0.2838 -0.2794
 5018TIP3    H136469   6.013   6.685   1.998  0.0232 -0.1541  0.5575
 5018TIP3    H236470   5.864   6.677   2.022 -0.2764  0.4547 -0.9643
 5019TIP3   OH236471   2.834   6.629  13.474 -0.2720  0.3698 -0.7906
 5019TIP3    H136472   2.882   6.598  13.397  0.5692  0.5298 -0.3489
 5019TIP3    H236473   2.751   6.582  13.471  0.5185 -1.0955 -0.7532
 5020TIP3   OH236474   6.021   1.393  16.668  0.2215  0.4706 -0.4737
 5020TIP3    H136475   6.032   1.478  16.711 -0.2860  0.7071 -0.8030
 5020TIP3    H236476   5.934   1.363  16.695 -0.0560  0.5667 -1.2292
 5021TIP3   OH236477   5.589   2.996   5.236 -0.4096 -0.0342 -0.1782
 5021TIP3    H136478   5.638   3.065   5.281 -0.5492 -0.7799  1.1574
 5021TIP3    H236479   5.627   2.915   5.268 -1.7304 -0.6098 -0.0102
 5022TIP3   OH236480   5.311   5.824  11.725  0.0734  0.3142 -0.0040
 5022TIP3    H136481   5.361   5.897  11.762  1.7363  0.7111 -2.7401
 5022TIP3    H236482   5.220   5.854  11.728  0.3931  1.2543  1.5454
 5023TIP3   OH236483   4.319   4.515  15.678 -0.1103 -0.3593  0.1880
 5023TIP3    H136484   4.395   4.542  15.627 -0.5347  1.9602  0.6718
 5023TIP3    H236485   4.351   4.440  15.730  2.0413  0.8763  0.7899
 5024TIP3   OH236486   6.466   5.628   4.446  0.1338 -0.2890  0.1753
 5024TIP3    H136487   6.559   5.618   4.424  0.1826  3.0409 -1.7616
 5024TIP3    H236488   6.467   5.678   4.528  0.0783  0.1550 -0.0915
 5025TIP3   OH236489   3.598   5.487  14.272 -0.4002 -0.2771  0.4303
 5025TIP3    H136490   3.643   5.514  14.192  0.6645 -0.5191  0.9332
 5025TIP3    H236491   3.667   5.455  14.329 -1.3421 -1.8495  0.7690
 5026TIP3   OH236492   1.881   2.945   4.123 -0.0777 -0.3551  0.1401
 5026TIP3    H136493   1.942   2.956   4.196  0.5648 -0.5366 -0.3603
 5026TIP3    H236494   1.828   3.025   4.123 -0.5416 -0.6327  1.2107
 5027TIP3   OH236495   5.615   4.845  14.478  0.0181  0.3399  0.5482
 5027TIP3    H136496   5.634   4.934  14.447  0.6490 -0.2995 -1.0189
 5027TIP3    H236497   5.559   4.808  14.409 -2.7976  0.4653  2.6044
 5028TIP3   OH236498   4.632   3.507  16.745  0.0807  0.3447  0.1612
 5028TIP3    H136499   4.560   3.531  16.688 -0.1113  3.5647  1.5391
 5028TIP3    H236500   4.591   3.489  16.829  0.7911  2.2266  0.9620
 5029TIP3   OH236501   3.754   2.435   3.312 -0.4546  0.0227 -0.7416
 5029TIP3    H136502   3.796   2.355   3.344  0.1689  0.2966 -0.8620
 5029TIP3    H236503   3.802   2.457   3.233 -0.5677  0.5713 -0.6580
 5030TIP3   OH236504   4.097   2.406  14.423 -0.4850 -0.3144  0.2322
 5030TIP3    H136505   4.144   2.447  14.351  0.2273 -2.9436 -0.8793
 5030TIP3    H236506   4.009   2.443  14.418 -0.0152  0.7058 -0.9834
 5031TIP3   OH236507   2.505   2.417   0.166 -0.2584  0.0514 -0.5892
 5031TIP3    H136508   2.457   2.470   0.102 -0.7797 -0.3333 -0.5275
 5031TIP3    H236509   2.506   2.329   0.128 -1.5628 -0.4416  0.4359
 5032TIP3   OH236510   1.599   0.100  13.344 -0.5002 -0.9663 -0.1676
 5032TIP3    H136511   1.548   0.068  13.419 -1.2771 -1.3353 -0.8401
 5032TIP3    H236512   1.548   0.174  13.311  0.9946  0.6826  1.0282
 5033TIP3   OH236513   0.624   2.492  16.660  0.1246  0.4088 -0.2800
 5033TIP3    H136514   0.676   2.421  16.698 -1.4504 -0.0388  1.1784
 5033TIP3    H236515   0.641   2.567  16.716 -1.6803 -0.0754  1.0354
 5034TIP3   OH236516   4.748   1.969  16.188  0.7287  0.3776 -1.0759
 5034TIP3    H136517   4.761   2.063  16.198  0.8254  0.2445  0.2968
 5034TIP3    H236518   4.820   1.929  16.237 -1.0910 -0.3771  1.1996
 5035TIP3   OH236519   6.045   4.400   5.777 -0.4170  0.0073  0.0289
 5035TIP3    H136520   5.977   4.389   5.844  0.7049  0.0584  1.2066
 5035TIP3    H236521   6.018   4.478   5.728 -1.1937  0.0429  0.4941
 5036TIP3   OH236522   3.660   1.762   3.812 -0.0909  0.5351 -0.0364
 5036TIP3    H136523   3.700   1.715   3.739  2.5053  0.1534  1.4947
 5036TIP3    H236524   3.696   1.851   3.805  1.4013  0.1042  1.5477
 5037TIP3   OH236525   2.322   0.481  17.197 -0.1060  0.0038  1.1201
 5037TIP3    H136526   2.284   0.444  17.276 -2.9068 -0.4730 -0.3204
 5037TIP3    H236527   2.260   0.457  17.127  2.6757 -0.3886 -1.3978
 5038TIP3   OH236528   6.491   4.338   1.540 -0.1968 -0.1698  0.2716
 5038TIP3    H136529   6.450   4.425   1.540 -2.4783 -1.1750  0.2126
 5038TIP3    H236530   6.455   4.294   1.617  1.3850 -0.8971  0.6374
 5039TIP3   OH236531   4.331   2.487   2.116  0.1118  0.2697  0.0372
 5039TIP3    H136532   4.292   2.416   2.167  0.2143  1.5974  2.1166
 5039TIP3    H236533   4.412   2.508   2.163  0.5749  1.1059 -1.1000
 5040TIP3   OH236534   1.283   1.954   3.155 -0.2713  0.0159 -0.4385
 5040TIP3    H136535   1.369   1.926   3.186  0.2639  2.6276  0.7165
 5040TIP3    H236536   1.276   1.918   3.066  1.2419 -1.6836  0.0847
 5041TIP3   OH236537   4.162   0.250   6.689 -0.4031  0.7643 -0.4424
 5041TIP3    H136538   4.126   0.177   6.639  1.2827  0.2916 -1.0277
 5041TIP3    H236539   4.166   0.322   6.627  0.1785  0.6512 -0.5367
 5042TIP3   OH236540   2.847   2.072  12.033 -0.0014  0.0159 -0.1337
 5042TIP3    H136541   2.845   2.081  12.128  1.8069 -0.0538 -0.0517
 5042TIP3    H236542   2.940   2.081  12.010 -0.4775  0.7751 -1.9641
 5043TIP3   OH236543   0.374   3.137   5.467  0.4348 -0.1757 -0.2132
 5043TIP3    H136544   0.294   3.132   5.415  1.0759  0.8299 -1.3505
 5043TIP3    H236545   0.442   3.098   5.411  1.3054  1.7100 -0.5449
 5044TIP3   OH236546   6.551   6.424  16.167 -0.1511 -0.7430 -0.5294
 5044TIP3    H136547   6.570   6.474  16.088  1.3097 -1.1467 -0.4655
 5044TIP3    H236548   6.551   6.489  16.237  3.8882 -0.9368 -0.1119
 5045TIP3   OH236549   4.070   2.073   3.182  0.0621 -0.7073 -0.0815
 5045TIP3    H136550   4.082   2.159   3.140  1.1690  0.1103  1.7874
 5045TIP3    H236551   3.992   2.085   3.236  0.9759 -0.4247  1.2044
 5046TIP3   OH236552   3.929   1.059  14.861 -0.2891  0.1045  0.3295
 5046TIP3    H136553   3.959   1.078  14.949  2.2542  1.1443 -0.6564
 5046TIP3    H236554   4.004   1.080  14.805 -2.4163  1.4219 -2.2840
 5047TIP3   OH236555   3.741   0.479  13.117 -0.5630  0.1501 -0.0787
 5047TIP3    H136556   3.711   0.564  13.149 -3.0683 -0.3781 -0.7899
 5047TIP3    H236557   3.686   0.415  13.162  1.0333 -1.1108  0.1743
 5048TIP3   OH236558   3.127   5.195   2.964 -0.1862  0.0552  0.2627
 5048TIP3    H136559   3.210   5.227   2.927 -1.2447  0.8801 -1.5037
 5048TIP3    H236560   3.116   5.108   2.925 -0.9208  0.6123 -0.8319
 5049TIP3   OH236561   0.164   4.692   0.457 -0.4843 -0.0420 -0.0866
 5049TIP3    H136562   0.137   4.661   0.544 -0.1381 -1.5866 -0.4974
 5049TIP3    H236563   0.248   4.650   0.442 -0.9313 -0.4722 -1.5272
 5050TIP3   OH236564   1.005   1.911  16.789 -0.5867 -0.2126  0.3289
 5050TIP3    H136565   1.027   1.980  16.726 -0.1459 -0.9160 -0.3013
 5050TIP3    H236566   0.924   1.942  16.830 -0.5259  0.5701 -0.1190
 5051TIP3   OH236567   4.714   0.269   2.928  0.0503 -0.5296  0.2871
 5051TIP3    H136568   4.723   0.249   2.835 -2.2455 -0.5141  0.0131
 5051TIP3    H236569   4.730   0.363   2.934 -2.2314 -0.0256 -0.5425
 5052TIP3   OH236570   2.267   0.055  11.982 -0.0330  0.2926  0.1897
 5052TIP3    H136571   2.256   0.141  11.942 -1.2042  0.7779  1.4766
 5052TIP3    H236572   2.358   0.031  11.963  1.1645  2.9598  1.9148
 5053TIP3   OH236573   0.012   5.721  13.620 -0.0808  0.0646 -0.2423
 5053TIP3    H136574   0.067   5.799  13.624  2.2912 -1.5757  2.0832
 5053TIP3    H236575  -0.058   5.737  13.683  0.4637  0.3151  0.3096
 5054TIP3   OH236576   2.017   4.325   6.601  0.6493  0.5479  0.0081
 5054TIP3    H136577   1.925   4.311   6.579  0.6975 -0.5085  0.4246
 5054TIP3    H236578   2.025   4.420   6.611 -0.5611  0.5938  0.7109
 5055TIP3   OH236579   6.509   2.174   0.699  0.4001 -0.3838  0.4141
 5055TIP3    H136580   6.419   2.161   0.671  0.5869  1.2730 -1.1488
 5055TIP3    H236581   6.539   2.251   0.650  2.1631  0.0730  2.0760
 5056TIP3   OH236582   5.957   1.181  16.266 -0.0726  0.0798 -0.2604
 5056TIP3    H136583   5.937   1.159  16.357 -0.6902  0.6995 -0.2384
 5056TIP3    H236584   5.902   1.122  16.215 -0.6865  0.6084 -0.2167
 5057TIP3   OH236585   4.139   6.665   1.315  0.0688  0.3401  0.0131
 5057TIP3    H136586   4.166   6.757   1.316 -0.3002  0.4597 -0.5449
 5057TIP3    H236587   4.098   6.654   1.229 -1.5104  0.1081  0.7801
 5058TIP3   OH236588   5.045   3.127  11.605  0.4644  0.4126  0.2082
 5058TIP3    H136589   5.037   3.141  11.700  0.2074 -0.0450  0.2539
 5058TIP3    H236590   5.139   3.121  11.590  0.5060  0.4636  0.4395
 5059TIP3   OH236591   2.497   0.606   3.523 -0.3188  0.3539 -0.3392
 5059TIP3    H136592   2.556   0.532   3.510  0.1832  0.5003  0.9421
 5059TIP3    H236593   2.450   0.586   3.604  1.3279  2.3417  1.2396
 5060TIP3   OH236594   3.205   1.743  15.057  0.2608 -0.2018  0.1182
 5060TIP3    H136595   3.147   1.818  15.072  1.4549  0.5645  1.1179
 5060TIP3    H236596   3.280   1.759  15.114  0.0660 -2.7457  1.2103
 5061TIP3   OH236597   4.416   2.989   4.678  0.2696 -0.3648  0.7200
 5061TIP3    H136598   4.432   2.924   4.610  0.4164  0.3060  0.0891
 5061TIP3    H236599   4.395   3.069   4.630  0.6123  0.1876  1.4566
 5062TIP3   OH236600   0.298   5.013  16.079  0.3666 -0.6904  0.1248
 5062TIP3    H136601   0.354   5.076  16.125 -0.4950  0.6145 -0.5589
 5062TIP3    H236602   0.358   4.965  16.022  0.7318  1.2319 -1.2018
 5063TIP3   OH236603   0.233   3.105  16.091 -0.7147  0.3312 -0.1052
 5063TIP3    H136604   0.173   3.171  16.056  0.2318  0.0385 -2.4675
 5063TIP3    H236605   0.269   3.061  16.013  0.1730 -1.6411  1.3287
 5064TIP3   OH236606   6.172   4.073  12.901 -0.4859  0.1260  0.0270
 5064TIP3    H136607   6.196   4.038  12.987 -2.2967 -1.1046  0.0895
 5064TIP3    H236608   6.189   4.167  12.907  3.6862 -0.4112  0.1705
 5065TIP3   OH236609   2.418   1.850  16.462  0.3534 -0.4570 -0.4745
 5065TIP3    H136610   2.416   1.816  16.373 -0.0948  0.5239 -0.8594
 5065TIP3    H236611   2.487   1.799  16.506  1.4460 -0.1370 -1.7348
 5066TIP3   OH236612   3.812   3.872  11.989 -0.1450  0.0806  0.3192
 5066TIP3    H136613   3.736   3.839  11.941 -0.9298  0.5769  1.2006
 5066TIP3    H236614   3.789   3.862  12.081  1.3189 -0.8012  0.6295
 5067TIP3   OH236615   3.524   4.947   5.103 -0.1167 -0.1456 -0.8747
 5067TIP3    H136616   3.480   4.971   5.184 -0.5981  1.3765 -1.5530
 5067TIP3    H236617   3.515   5.024   5.047  4.3557  0.8218 -0.6910
 5068TIP3   OH236618   0.943   6.289   0.131 -0.3525 -0.5657 -0.2952
 5068TIP3    H136619   0.872   6.353   0.132  1.5208  1.6365  0.4283
 5068TIP3    H236620   0.954   6.264   0.223  1.5567  1.2963  0.0617
 5069TIP3   OH236621   4.186   2.982   2.542 -0.0042  0.4454 -0.2963
 5069TIP3    H136622   4.193   3.056   2.482  0.0547  0.9186  0.2816
 5069TIP3    H236623   4.195   3.021   2.629  1.2322 -0.4012 -0.0270
 5070TIP3   OH236624   6.020   5.460   0.325 -0.1007 -0.7111 -0.6423
 5070TIP3    H136625   5.935   5.457   0.369  1.3251 -1.3682  2.3117
 5070TIP3    H236626   6.023   5.380   0.272 -1.7682 -0.0533 -1.7841
 5071TIP3   OH236627   0.080   4.078   1.834  0.7126 -0.3765  0.1768
 5071TIP3    H136628   0.098   4.169   1.857 -1.1856 -0.1414  0.8595
 5071TIP3    H236629   0.029   4.083   1.753 -2.0317 -0.5923  1.7792
 5072TIP3   OH236630   3.033   0.973  10.461 -1.1728 -0.2268  0.5766
 5072TIP3    H136631   3.040   0.878  10.452  1.0372 -0.0886  0.2354
 5072TIP3    H236632   2.952   0.996  10.416 -0.8333 -1.7692 -0.9005
 5073TIP3   OH236633   6.643   6.098   1.683 -0.0404 -0.3910 -0.0956
 5073TIP3    H136634   6.722   6.152   1.678 -0.3459 -0.0158 -1.5305
 5073TIP3    H236635   6.624   6.075   1.592 -2.2468  0.5323  0.0509
 5074TIP3   OH236636   2.030   6.575   6.379  0.9515  0.2073 -1.5334
 5074TIP3    H136637   2.100   6.510   6.367  1.0745  0.4615 -2.2622
 5074TIP3    H236638   1.968   6.557   6.308  0.7072  0.5266 -1.4033
 5075TIP3   OH236639   6.575   2.477  12.363  0.8295  0.1016  0.5597
 5075TIP3    H136640   6.562   2.563  12.323  3.0075  1.7902  3.1117
 5075TIP3    H236641   6.663   2.452  12.335  0.8684 -0.4770  1.2006
 5076TIP3   OH236642   4.295   5.347  13.375  0.1307 -0.0828 -0.2110
 5076TIP3    H136643   4.210   5.305  13.362  0.4791 -0.6710 -0.6360
 5076TIP3    H236644   4.292   5.380  13.465 -0.6105  0.0475 -0.2842
 5077TIP3   OH236645   2.288   3.845  14.031 -0.1280  0.4634  0.2467
 5077TIP3    H136646   2.292   3.850  14.126 -1.0728  0.6693  0.2870
 5077TIP3    H236647   2.225   3.775  14.013 -2.2396  2.3668 -0.1724
 5078TIP3   OH236648   1.618   3.298   1.508  0.0364 -0.2882 -0.3031
 5078TIP3    H136649   1.529   3.284   1.474  0.5686  0.5159 -2.1435
 5078TIP3    H236650   1.660   3.353   1.443  2.1568 -1.2780  0.1453
 5079TIP3   OH236651   0.226   0.965   1.644 -0.8013 -0.2916 -0.5938
 5079TIP3    H136652   0.190   1.005   1.564 -1.0176  2.4353  0.7545
 5079TIP3    H236653   0.298   1.024   1.669 -0.4602 -1.3372  0.9841
 5080TIP3   OH236654   3.211   0.380   2.193  0.0141 -0.3774 -0.0895
 5080TIP3    H136655   3.301   0.349   2.199 -0.8643 -3.2852 -0.4736
 5080TIP3    H236656   3.183   0.391   2.284  0.9165  1.2455  0.0273
 5081TIP3   OH236657   3.912   6.256  15.011  0.2638  0.5287 -0.4386
 5081TIP3    H136658   3.915   6.279  14.918 -0.2615  0.3253 -0.5058
 5081TIP3    H236659   3.957   6.328  15.054 -0.0478  0.9413 -0.7920
 5082TIP3   OH236660   6.596   6.029  12.098 -0.0119  1.1604 -0.6805
 5082TIP3    H136661   6.673   6.081  12.121  1.4534 -0.8407 -0.8511
 5082TIP3    H236662   6.631   5.943  12.076 -2.4581 -0.4664  1.2677
 5083TIP3   OH236663   3.722   3.588   1.773 -0.5227 -0.7283 -0.9134
 5083TIP3    H136664   3.736   3.653   1.705 -0.7712  0.4451  0.1188
 5083TIP3    H236665   3.628   3.569   1.770 -1.5872  2.8316  2.0113
 5084TIP3   OH236666   2.536   3.285  15.090 -0.0905  0.1208 -0.5828
 5084TIP3    H136667   2.568   3.198  15.068  0.2264  0.6660 -2.4875
 5084TIP3    H236668   2.544   3.291  15.185  2.6352 -0.8839 -0.6703
 5085TIP3   OH236669   3.538   5.744   0.667  0.2001 -0.4052  0.3872
 5085TIP3    H136670   3.483   5.666   0.668  0.5841 -0.6730  0.6651
 5085TIP3    H236671   3.530   5.778   0.578  1.6275 -1.8980 -0.3538
 5086TIP3   OH236672   4.041   0.272  11.765 -0.6318 -0.2712  0.2716
 5086TIP3    H136673   3.977   0.244  11.699  0.9797 -1.0223 -1.0258
 5086TIP3    H236674   4.058   0.364  11.744  1.0354 -0.9092 -1.4219
 5087TIP3   OH236675   0.011   3.566  13.387 -0.1863  0.0689 -0.2822
 5087TIP3    H136676   0.060   3.565  13.470 -0.4140 -1.4298 -0.1368
 5087TIP3    H236677   0.071   3.527  13.324 -1.0696 -1.6251 -0.1383
 5088TIP3   OH236678   2.431   6.298  12.231  0.0090 -0.3697  0.0634
 5088TIP3    H136679   2.420   6.248  12.311  0.1600  0.7064  0.7805
 5088TIP3    H236680   2.467   6.382  12.259  0.6441 -0.1855 -1.1946
 5089TIP3   OH236681   6.023   2.638   2.620 -0.4820 -0.3315  0.2322
 5089TIP3    H136682   6.048   2.548   2.640 -0.3807 -0.2537  0.4625
 5089TIP3    H236683   6.022   2.682   2.705  0.4113  0.1219  0.0288
 5090TIP3   OH236684   2.984   4.406  12.790  0.1979  0.2351 -0.1502
 5090TIP3    H136685   2.926   4.338  12.754  0.7137  0.3472 -1.2518
 5090TIP3    H236686   2.956   4.487  12.747 -0.8962  0.9011  1.7027
 5091TIP3   OH236687   3.124   3.130   2.146  0.2086  0.4064  0.1047
 5091TIP3    H136688   3.151   3.081   2.224  0.3500  0.4384  0.0754
 5091TIP3    H236689   3.169   3.214   2.153  1.2683 -0.0717 -0.6688
 5092TIP3   OH236690   2.870   0.007  12.053  0.3287  0.5233 -0.9252
 5092TIP3    H136691   2.893   0.004  11.960 -1.9832  0.8114 -1.5651
 5092TIP3    H236692   2.913   0.086  12.086  1.7235  0.0622 -1.5517
 5093TIP3   OH236693   5.185   2.281  15.184  0.0047 -0.0740 -0.5835
 5093TIP3    H136694   5.167   2.212  15.248 -0.5362  1.4708  1.0134
 5093TIP3    H236695   5.265   2.253  15.140  0.1794 -1.3747  0.5042
 5094TIP3   OH236696   5.106   5.566  13.414 -0.0392 -0.4427 -0.4959
 5094TIP3    H136697   5.029   5.531  13.458  0.4729 -2.3708 -1.0233
 5094TIP3    H236698   5.142   5.629  13.476 -2.6111  1.3831 -0.7071
 5095TIP3   OH236699   1.528   6.114   0.501  0.4535 -0.1520 -0.2776
 5095TIP3    H136700   1.498   6.158   0.580  0.1600 -0.9951  0.0980
 5095TIP3    H236701   1.478   6.155   0.430 -0.0421 -0.0859  0.1008
 5096TIP3   OH236702   1.466   1.636  15.510  0.0521 -0.0286 -0.6090
 5096TIP3    H136703   1.494   1.606  15.597  1.4694  1.3992 -0.5315
 5096TIP3    H236704   1.445   1.555  15.463 -0.4885 -0.8453  0.9600
 5097TIP3   OH236705   2.185   1.979  15.379  0.4233  0.9537  0.2329
 5097TIP3    H136706   2.142   2.051  15.332 -1.0948 -0.9342 -1.4313
 5097TIP3    H236707   2.115   1.918  15.401  2.0028 -1.9159 -1.9411
 5098TIP3   OH236708   2.038   1.296  12.571 -0.1331 -0.2900 -0.0635
 5098TIP3    H136709   1.973   1.235  12.537 -0.8574  0.7809 -0.6557
 5098TIP3    H236710   2.122   1.250  12.562 -0.4150 -0.4459 -2.3800
 5099TIP3   OH236711   5.050   1.132  12.801 -0.1560 -0.3940 -0.2347
 5099TIP3    H136712   5.050   1.190  12.725  0.5356 -1.8151 -1.3682
 5099TIP3    H236713   5.107   1.059  12.776  0.1219 -0.8937  1.6688
 5100TIP3   OH236714   0.699   0.270   1.973  0.6766 -0.0372 -0.5510
 5100TIP3    H136715   0.647   0.344   2.003 -0.1170 -0.0023 -1.8910
 5100TIP3    H236716   0.713   0.287   1.880  0.4881 -1.5364 -0.8909
 5101TIP3   OH236717   2.271   6.396   1.922  0.1947 -0.4996  0.4828
 5101TIP3    H136718   2.284   6.486   1.950  2.3938 -0.2983 -0.9128
 5101TIP3    H236719   2.282   6.343   2.001  1.5658  0.3219  0.8668
 5102TIP3   OH236720   5.917   6.182  11.896 -0.9894 -0.3127 -0.0899
 5102TIP3    H136721   5.907   6.276  11.905  0.4790 -0.2222  1.1620
 5102TIP3    H236722   5.895   6.163  11.805  2.4614  1.8232 -1.5561
 5103TIP3   OH236723   5.519   0.946  14.910  0.6193  0.0503 -0.1200
 5103TIP3    H136724   5.491   0.910  14.825 -0.5278 -1.4763  0.8389
 5103TIP3    H236725   5.469   0.896  14.974  0.3491  2.1735  1.4260
 5104TIP3   OH236726   3.238   5.463  13.092  0.3222  0.2807  0.1047
 5104TIP3    H136727   3.221   5.442  13.183  0.3836 -2.0618 -0.3650
 5104TIP3    H236728   3.310   5.526  13.095 -0.8518  1.6432  1.6899
 5105TIP3   OH236729   0.481   2.191   1.952 -0.5160  0.0220  0.3592
 5105TIP3    H136730   0.554   2.196   2.014 -1.4432 -2.2239  1.7737
 5105TIP3    H236731   0.518   2.219   1.869  1.9443 -0.9031  1.0359
 5106TIP3   OH236732   5.266   0.767  11.452 -0.3425 -0.2496 -0.2763
 5106TIP3    H136733   5.328   0.835  11.478 -0.8142  0.1794 -0.2438
 5106TIP3    H236734   5.261   0.708  11.527  2.0825 -1.8604 -1.2574
 5107TIP3   OH236735   2.368   4.688   1.737  0.9994  0.0943  0.7355
 5107TIP3    H136736   2.419   4.614   1.769  0.0069 -1.4441 -1.0787
 5107TIP3    H236737   2.417   4.721   1.662  1.0726  0.8782  1.1060
 5108TIP3   OH236738   4.384   1.076  10.482  0.1167 -0.6514 -0.0463
 5108TIP3    H136739   4.463   1.085  10.534  0.0805 -1.3184  0.1316
 5108TIP3    H236740   4.393   1.142  10.413 -0.7162  1.6013  1.8689
 5109TIP3   OH236741   6.013   4.288  11.015  0.0979 -0.6574 -0.7892
 5109TIP3    H136742   5.940   4.349  11.013 -0.6933 -1.5331  0.3175
 5109TIP3    H236743   5.975   4.204  10.989  0.4272 -1.3602  0.8416
 5110TIP3   OH236744   3.674   5.803  13.417  0.2651 -0.3607 -0.5410
 5110TIP3    H136745   3.695   5.756  13.336 -1.9706  2.1410 -2.7643
 5110TIP3    H236746   3.742   5.870  13.424 -1.2408  1.5094 -2.3307
 5111TIP3   OH236747   2.805   5.199   5.307  0.6508 -0.0280 -0.3007
 5111TIP3    H136748   2.831   5.260   5.238 -0.8244 -0.1149 -0.9758
 5111TIP3    H236749   2.721   5.232   5.338  0.8291 -0.5504  0.7921
 5112TIP3   OH236750   2.038   6.523  15.224 -0.2516  0.6211  0.2020
 5112TIP3    H136751   2.009   6.453  15.283 -2.3556  1.0670 -0.2156
 5112TIP3    H236752   2.039   6.483  15.137  2.0114  0.2055  0.3436
 5113TIP3   OH236753   1.751   5.759   2.349 -0.4728  0.1904  0.3848
 5113TIP3    H136754   1.831   5.719   2.384 -0.4128  0.4165  0.5098
 5113TIP3    H236755   1.783   5.833   2.297 -0.6676  1.1703  1.6206
 5114TIP3   OH236756   5.195   4.508   6.427  0.2384 -0.6193 -0.5471
 5114TIP3    H136757   5.273   4.498   6.483  1.9689  0.4337 -2.6197
 5114TIP3    H236758   5.136   4.563   6.479  1.8135  0.3947  0.2755
 5115TIP3   OH236759   2.613   5.979   0.064 -0.0108 -0.2426 -0.1583
 5115TIP3    H136760   2.645   6.037  -0.005 -1.1164 -0.3685 -0.7920
 5115TIP3    H236761   2.691   5.929   0.091  0.9781  1.5135  0.4297
 5116TIP3   OH236762   4.896   3.418  11.482  0.1166  0.2975  0.3162
 5116TIP3    H136763   4.919   3.497  11.433 -0.4532  1.3531  1.7163
 5116TIP3    H236764   4.924   3.435  11.571 -0.1503 -1.0345  0.6807
 5117TIP3   OH236765   0.332   1.672   2.904 -0.3507 -0.3627 -0.2268
 5117TIP3    H136766   0.362   1.595   2.856  1.0312 -0.0928  0.1481
 5117TIP3    H236767   0.378   1.746   2.863 -1.9306  0.3273 -0.8200
 5118TIP3   OH236768   1.350   1.905  16.211 -0.3404 -0.5558 -0.7949
 5118TIP3    H136769   1.320   1.814  16.213  1.2625 -1.1126  1.3431
 5118TIP3    H236770   1.396   1.917  16.294 -0.8672  2.3615 -0.8333
 5119TIP3   OH236771   1.370   0.141  11.509  0.3832 -0.4235  0.6284
 5119TIP3    H136772   1.313   0.078  11.463  0.1531  0.6294 -0.5905
 5119TIP3    H236773   1.449   0.090  11.530  0.2840 -1.0829 -0.5014
 5120TIP3   OH236774   1.046   3.605   0.968 -0.2780 -0.2257  0.0076
 5120TIP3    H136775   1.009   3.530   1.014  0.7422 -0.2349  0.8274
 5120TIP3    H236776   1.138   3.606   0.993 -0.2333  1.1905 -0.1489
 5121TIP3   OH236777   2.179   4.637   3.952 -0.1545 -0.3755  0.2971
 5121TIP3    H136778   2.264   4.667   3.987 -0.1724 -0.1016  0.1133
 5121TIP3    H236779   2.159   4.559   4.003  1.1662 -1.6100 -1.0080
 5122TIP3   OH236780   6.172   0.971  11.885  0.2169  0.1109 -0.3074
 5122TIP3    H136781   6.104   1.011  11.831  0.3834  0.0476 -0.5615
 5122TIP3    H236782   6.249   1.025  11.870 -0.1802  1.2010  1.2347
 5123TIP3   OH236783   3.006   5.228  16.851  0.3623 -0.0577  0.4988
 5123TIP3    H136784   3.070   5.226  16.922 -0.8746  1.1550  1.7303
 5123TIP3    H236785   2.964   5.314  16.860 -1.2476 -0.7047 -0.3999
 5124TIP3   OH236786   1.053   3.882  15.654 -0.7414 -0.3761  0.4086
 5124TIP3    H136787   1.048   3.924  15.568  1.0831 -2.0337 -0.5991
 5124TIP3    H236788   0.964   3.888  15.689 -1.3300  1.0998 -1.2096
 5125TIP3   OH236789   2.254   0.447   5.820  0.2393  0.2069 -0.6318
 5125TIP3    H136790   2.301   0.531   5.820  0.0274  0.3271 -1.1585
 5125TIP3    H236791   2.310   0.389   5.871 -0.8375  1.3634  2.0797
 5126TIP3   OH236792   1.431   5.300  16.487 -0.0245  0.3261  0.1651
 5126TIP3    H136793   1.433   5.227  16.548  1.3451 -0.4780 -0.7729
 5126TIP3    H236794   1.463   5.263  16.405  1.2258  2.0999 -0.2049
 5127TIP3   OH236795   3.856   3.932  14.299 -0.6463  0.3497  0.0966
 5127TIP3    H136796   3.889   4.021  14.310 -1.3064  0.7452 -0.9877
 5127TIP3    H236797   3.821   3.930  14.210 -0.3187 -1.1057 -0.0237
 5128TIP3   OH236798   2.832   3.609   3.674  0.2350  0.5869  0.3163
 5128TIP3    H136799   2.888   3.547   3.720  0.9172  1.0964  0.1977
 5128TIP3    H236800   2.856   3.694   3.711 -1.2450  0.7112  1.0307
 5129TIP3   OH236801   1.317   4.114   3.133 -0.3910 -0.1386 -0.3987
 5129TIP3    H136802   1.238   4.090   3.083 -1.1610 -1.3237  1.3114
 5129TIP3    H236803   1.283   4.154   3.213  0.6204 -2.3813  1.2507
 5130TIP3   OH236804   0.096   1.914   5.193 -0.4119 -0.7251 -0.2444
 5130TIP3    H136805   0.170   1.898   5.252  0.3147 -0.8692 -1.1687
 5130TIP3    H236806   0.019   1.911   5.250  0.2987 -0.3943  0.7719
 5131TIP3   OH236807   4.305   1.952   3.021 -0.5761  0.1265 -0.1021
 5131TIP3    H136808   4.225   1.992   3.056 -0.1478  0.7702  0.1613
 5131TIP3    H236809   4.277   1.908   2.941 -1.5809 -1.3331  0.9785
 5132TIP3   OH236810   2.543   0.805  15.427  0.0445  0.3956  0.2354
 5132TIP3    H136811   2.509   0.893  15.414 -1.0255  0.0466  0.5451
 5132TIP3    H236812   2.591   0.785  15.346 -0.2856  1.0063 -0.1175
 5133TIP3   OH236813   4.237   1.610  12.993 -0.2195 -0.4485  0.4755
 5133TIP3    H136814   4.184   1.531  12.984 -0.4366 -0.4316  1.5170
 5133TIP3    H236815   4.287   1.614  12.911  1.9752 -3.2654  1.4895
 5134TIP3   OH236816   2.466   4.634   4.047  0.1156  0.9193  0.5990
 5134TIP3    H136817   2.422   4.715   4.073  1.1810  1.8888 -0.4469
 5134TIP3    H236818   2.559   4.655   4.052  0.4054  0.4464 -1.6277
 5135TIP3   OH236819   0.938   1.166  15.089  1.0458 -0.0310  0.6419
 5135TIP3    H136820   1.019   1.119  15.110  1.1464  1.0972  3.1150
 5135TIP3    H236821   0.946   1.187  14.996  3.1262 -0.8258  0.5866
 5136TIP3   OH236822   2.448   3.135  16.723  0.4689 -0.2755 -0.5647
 5136TIP3    H136823   2.447   3.168  16.812 -1.3534 -0.1042 -0.6285
 5136TIP3    H236824   2.388   3.192  16.675  1.8104 -0.0237 -2.0527
 5137TIP3   OH236825   4.375   2.833  10.635  0.3010 -0.5332  0.2738
 5137TIP3    H136826   4.310   2.867  10.573 -0.9704 -0.3660  1.6607
 5137TIP3    H236827   4.422   2.910  10.665  0.5337 -0.5534 -0.0251
 5138TIP3   OH236828   1.455   1.569   2.258 -0.5142  0.1286 -0.5264
 5138TIP3    H136829   1.406   1.601   2.182 -0.7627  0.2803 -0.3015
 5138TIP3    H236830   1.514   1.503   2.222 -2.1457 -1.3765 -0.5349
 5139TIP3   OH236831   0.263   1.630  12.626 -0.1913  0.2273  0.5714
 5139TIP3    H136832   0.318   1.698  12.665  1.1143 -0.6825  0.3676
 5139TIP3    H236833   0.182   1.632  12.678  0.5742  0.6493  1.7919
 5140TIP3   OH236834   3.379   0.038  14.683 -0.7934 -1.0398  0.3714
 5140TIP3    H136835   3.328  -0.036  14.717 -0.2520 -0.9907  1.3082
 5140TIP3    H236836   3.399   0.091  14.760 -1.8151  0.5163 -0.3635
 5141TIP3   OH236837   6.485   3.241  16.467 -0.4525  0.0774  0.2420
 5141TIP3    H136838   6.549   3.171  16.455  0.2006  0.1407  2.8919
 5141TIP3    H236839   6.505   3.303  16.396  0.7141 -1.1230 -0.5296
 5142TIP3   OH236840   0.376   2.751   0.997 -0.2922 -0.1380 -0.0052
 5142TIP3    H136841   0.307   2.761   0.932  0.4022 -0.8161 -0.8827
 5142TIP3    H236842   0.457   2.762   0.947  0.2612 -0.9079  0.6881
 5143TIP3   OH236843   3.909   4.683   2.335 -0.1944  0.1242 -0.0952
 5143TIP3    H136844   3.872   4.755   2.387  0.1054  0.4765 -0.3689
 5143TIP3    H236845   3.920   4.612   2.398  0.5067  0.6618  0.4058
 5144TIP3   OH236846   1.370   6.139   2.577  0.5463  0.3667 -0.1888
 5144TIP3    H136847   1.462   6.115   2.590  0.9991  1.5958 -0.9987
 5144TIP3    H236848   1.322   6.082   2.637  1.8173 -0.4081  0.1304
 5145TIP3   OH236849   3.589   4.886   3.019  0.1460 -0.2437 -0.8566
 5145TIP3    H136850   3.615   4.853   3.105  0.4513 -1.4927 -1.4066
 5145TIP3    H236851   3.499   4.853   3.008 -0.4372  1.1252 -0.4326
 5146TIP3   OH236852   3.434   4.264   3.896 -0.0045  0.5604  0.6505
 5146TIP3    H136853   3.513   4.307   3.865  0.4897 -1.8457 -1.8109
 5146TIP3    H236854   3.464   4.181   3.933 -1.3556 -1.5109 -2.4799
 5147TIP3   OH236855   0.260   6.134   4.395 -0.3502 -0.6596  0.7377
 5147TIP3    H136856   0.262   6.225   4.366 -0.1495 -0.4637  1.3454
 5147TIP3    H236857   0.283   6.082   4.318  2.7541 -0.0269  1.1082
 5148TIP3   OH236858   1.563   1.877   3.239 -0.2144  0.1635  0.3918
 5148TIP3    H136859   1.560   1.787   3.204 -1.0426 -0.5956  2.2829
 5148TIP3    H236860   1.645   1.913   3.205 -1.1286 -0.3031 -2.6585
 5149TIP3   OH236861   3.715   1.774  15.140 -0.6711  0.2621 -0.1770
 5149TIP3    H136862   3.692   1.863  15.167 -2.0251 -0.2878  0.6020
 5149TIP3    H236863   3.660   1.756  15.065 -0.5177  0.0226 -0.2334
 5150TIP3   OH236864   5.067   0.804   3.312 -0.2076 -0.4906 -0.1844
 5150TIP3    H136865   5.151   0.785   3.354 -0.2807 -0.4739 -0.0322
 5150TIP3    H236866   5.007   0.824   3.384  0.1646  1.5217 -0.3718
 5151TIP3   OH236867   0.787   0.459  16.996 -0.2768 -0.2902  0.0162
 5151TIP3    H136868   0.820   0.535  17.044  1.3594 -0.8122 -0.2223
 5151TIP3    H236869   0.719   0.495  16.939  0.8547  1.1142 -0.5111
 5152TIP3   OH236870   0.448   3.703   1.240  0.0130  0.1539  0.2847
 5152TIP3    H136871   0.514   3.729   1.306 -0.1977 -1.7251  1.3195
 5152TIP3    H236872   0.499   3.685   1.161  0.8022 -1.2268  1.0605
 5153TIP3   OH236873   1.405   6.230   4.685  0.4117  0.0043  0.3630
 5153TIP3    H136874   1.453   6.308   4.656  1.6909 -1.2055 -0.9410
 5153TIP3    H236875   1.338   6.264   4.744  1.6136  1.9763  0.6890
 5154TIP3   OH236876   6.167   6.082   1.997  0.5584 -0.2003 -0.5506
 5154TIP3    H136877   6.192   6.102   2.087  1.0956  1.1399 -0.9714
 5154TIP3    H236878   6.249   6.085   1.948  0.2124 -0.4762 -1.1613
 5155TIP3   OH236879   1.572   0.578   1.092 -0.1042  0.2116  0.0777
 5155TIP3    H136880   1.536   0.538   1.171  0.7141  0.1677  0.4347
 5155TIP3    H236881   1.622   0.653   1.123  0.5982 -0.0707 -0.3431
 5156TIP3   OH236882   6.219   2.542  10.575 -0.2407 -0.3796  0.0055
 5156TIP3    H136883   6.235   2.450  10.555 -0.3258 -0.4641  0.3241
 5156TIP3    H236884   6.292   2.567  10.633  0.5411  0.1224 -1.1447
 5157TIP3   OH236885   5.203   4.742  14.558  0.2347 -0.2093 -0.5448
 5157TIP3    H136886   5.187   4.722  14.466  0.8679 -0.7062 -0.5503
 5157TIP3    H236887   5.132   4.698  14.605  0.6744 -1.0988 -0.6914
 5158TIP3   OH236888   4.095   2.518   3.580  0.1687 -0.1159  0.1260
 5158TIP3    H136889   4.074   2.558   3.496  0.2282 -0.3667 -0.0080
 5158TIP3    H236890   4.167   2.570   3.614 -1.1512  1.2570  0.9557
 5159TIP3   OH236891   6.753   5.874   4.315 -0.3052 -0.5549  0.2444
 5159TIP3    H136892   6.832   5.841   4.357 -0.1507  0.6814  0.9577
 5159TIP3    H236893   6.703   5.914   4.386 -0.2647  1.1482 -0.6380
 5160TIP3   OH236894   3.082   0.827   4.892 -0.4999 -0.1985 -0.7123
 5160TIP3    H136895   3.166   0.870   4.876 -0.5059 -0.7496 -2.3583
 5160TIP3    H236896   3.042   0.819   4.806 -2.9384  1.3838  0.1903
 5161TIP3   OH236897   3.417   1.784   4.624  0.4065  0.1546 -0.3699
 5161TIP3    H136898   3.458   1.802   4.539  2.4715 -0.9185  0.3248
 5161TIP3    H236899   3.332   1.746   4.601  1.2988 -1.0178 -2.0317
 5162TIP3   OH236900   1.199   3.722  16.151  1.1406  0.5032  0.8120
 5162TIP3    H136901   1.278   3.775  16.142 -0.2587  2.4185 -1.1930
 5162TIP3    H236902   1.231   3.632  16.155  3.4439  1.2670  0.8499
 5163TIP3   OH236903   0.862   1.918  11.832  0.1206 -0.3535 -0.3324
 5163TIP3    H136904   0.902   1.832  11.825  0.3570 -0.4411  1.5853
 5163TIP3    H236905   0.902   1.957  11.910 -0.9461  0.9535 -0.4004
 5164TIP3   OH236906   2.339   1.751  13.211  0.2938 -0.6651  0.0033
 5164TIP3    H136907   2.367   1.662  13.190 -0.3788 -0.8427 -0.1945
 5164TIP3    H236908   2.418   1.803  13.205  1.0391 -1.5169  1.8120
 5165TIP3   OH236909   1.877   3.591  12.813 -0.4398 -0.2391 -0.1721
 5165TIP3    H136910   1.799   3.605  12.759  0.4851 -3.0132 -2.5102
 5165TIP3    H236911   1.857   3.511  12.862  0.3469 -0.0748  0.4317
 5166TIP3   OH236912   6.348   0.989   4.443 -0.7995 -0.5372  0.0039
 5166TIP3    H136913   6.414   1.035   4.496 -2.2795  0.8041  0.7431
 5166TIP3    H236914   6.324   1.053   4.375 -0.0295 -1.6929 -1.4088
 5167TIP3   OH236915   6.704   2.087   1.996  0.3137 -0.0224  0.1359
 5167TIP3    H136916   6.631   2.035   1.963 -0.2787  0.8482  0.0487
 5167TIP3    H236917   6.779   2.027   1.995  0.4109  0.0043 -3.0570
 5168TIP3   OH236918   3.454   5.177  14.360 -0.0923  0.3589  0.0321
 5168TIP3    H136919   3.410   5.134  14.433  0.6774 -0.5602 -0.0339
 5168TIP3    H236920   3.537   5.207  14.396 -0.3083  1.1605 -0.1146
 5169TIP3   OH236921   6.095   5.702   5.933  0.5115  0.0410  1.5384
 5169TIP3    H136922   6.113   5.615   5.968  2.5442  0.3247  1.3299
 5169TIP3    H236923   6.111   5.761   6.006  3.4461  0.5211  0.6772
 5170TIP3   OH236924   2.496   5.982   3.925 -0.2005 -0.1385 -0.3615
 5170TIP3    H136925   2.558   6.026   3.984  1.0586 -0.1796 -1.5960
 5170TIP3    H236926   2.477   6.047   3.858  1.3383 -1.2352 -1.9694
 5171TIP3   OH236927   3.246   5.809   2.719  0.4575 -0.5362 -0.5922
 5171TIP3    H136928   3.245   5.714   2.709  0.3362 -0.5254 -0.6877
 5171TIP3    H236929   3.220   5.842   2.633  1.1962 -0.4023 -0.7785
 5172TIP3   OH236930   2.453   1.499  13.166  0.6019 -0.5291 -0.2941
 5172TIP3    H136931   2.546   1.497  13.190  1.4177  3.4410 -2.2754
 5172TIP3    H236932   2.452   1.480  13.072 -0.3214  1.1195 -0.6473
 5173TIP3   OH236933   0.382   1.727  17.161 -0.4662  0.1751  0.0087
 5173TIP3    H136934   0.318   1.664  17.127 -0.6941  0.3480  0.1190
 5173TIP3    H236935   0.340   1.764  17.239 -0.0092 -0.1116  0.3988
 5174TIP3   OH236936   1.233   3.762  13.579  0.2833  0.4203 -0.4712
 5174TIP3    H136937   1.280   3.698  13.526 -0.1581 -0.2330 -0.0797
 5174TIP3    H236938   1.227   3.722  13.666 -1.2804  0.3385 -0.5913
 5175TIP3   OH236939   3.709   4.121   4.492 -0.3425  0.0904 -0.4802
 5175TIP3    H136940   3.723   4.216   4.488  0.1143 -0.0089 -2.2377
 5175TIP3    H236941   3.778   4.084   4.436  0.0307 -1.3622  0.8768
 5176TIP3   OH236942   3.211   3.748   5.218 -0.1761 -0.7214  0.2723
 5176TIP3    H136943   3.251   3.810   5.157  1.3496 -0.6981  1.2374
 5176TIP3    H236944   3.146   3.701   5.166  1.0648 -0.7097 -1.3638
 5177TIP3   OH236945   1.645   5.460  12.738  0.7547 -0.6022 -0.2298
 5177TIP3    H136946   1.658   5.422  12.651  2.4347  1.4724 -1.0015
 5177TIP3    H236947   1.588   5.535  12.723  1.1267 -0.1776  0.4319
 5178TIP3   OH236948   1.754   1.744   6.100 -0.2864  0.1658 -0.2650
 5178TIP3    H136949   1.754   1.762   6.006 -0.3178 -0.3931 -0.3765
 5178TIP3    H236950   1.794   1.821   6.140  1.2433 -0.2813 -0.8696
 5179TIP3   OH236951   3.045   3.509  13.985  0.0237 -0.2626  0.4894
 5179TIP3    H136952   3.036   3.452  14.061 -1.2153  1.3259  1.6106
 5179TIP3    H236953   2.958   3.508  13.944 -0.6999  2.3287  1.7388
 5180TIP3   OH236954   5.738   0.773   0.934  0.2254 -0.4726  0.4111
 5180TIP3    H136955   5.744   0.853   0.882 -1.0333 -0.4567  0.2635
 5180TIP3    H236956   5.722   0.703   0.871 -1.8003 -0.3883  0.7442
 5181TIP3   OH236957   4.195   3.099  11.835 -0.7520 -0.0841 -0.4398
 5181TIP3    H136958   4.183   3.125  11.743 -2.7316  2.0723  0.3225
 5181TIP3    H236959   4.256   3.163  11.870 -2.2438  0.9434  0.3942
 5182TIP3   OH236960   2.920   6.306   2.750 -0.1635 -0.0604  0.0684
 5182TIP3    H136961   2.885   6.395   2.741  0.5483  0.1598 -0.7368
 5182TIP3    H236962   2.863   6.252   2.696 -0.0608  0.0642 -0.1652
 5183TIP3   OH236963   4.572   5.638  14.091  0.1551  0.2355 -0.3772
 5183TIP3    H136964   4.617   5.705  14.142 -0.7519  0.7436 -0.2247
 5183TIP3    H236965   4.642   5.591  14.046  1.2345 -1.6609  2.9405
 5184TIP3   OH236966   1.273   0.117  10.868 -0.1237  0.2435  0.5299
 5184TIP3    H136967   1.351   0.143  10.917 -0.5741  0.9183  0.9042
 5184TIP3    H236968   1.287   0.153  10.780  0.8437 -1.2639  0.0226
 5185TIP3   OH236969   2.365   5.497  13.592  0.4445  0.8252 -0.4767
 5185TIP3    H136970   2.299   5.509  13.523  0.8749 -1.6541 -1.4437
 5185TIP3    H236971   2.414   5.578  13.593 -1.3752  2.0038 -1.0901
 5186TIP3   OH236972   1.859   1.245   3.113 -0.2169 -0.1142  0.2911
 5186TIP3    H136973   1.936   1.300   3.096  1.0163 -1.0639  2.3931
 5186TIP3    H236974   1.835   1.266   3.203 -1.1731 -1.3046  0.3337
 5187TIP3   OH236975   6.251   2.265   5.437 -0.3218  0.1800 -0.0475
 5187TIP3    H136976   6.229   2.345   5.389 -1.0260  0.6422  1.0140
 5187TIP3    H236977   6.202   2.272   5.519 -0.2060 -1.2299  0.1671
 5188TIP3   OH236978   1.253   5.730   5.829  0.0453  0.2014  0.0067
 5188TIP3    H136979   1.304   5.691   5.900 -0.2173 -1.2546 -0.5735
 5188TIP3    H236980   1.319   5.766   5.770  0.3426 -0.2929  0.0309
 5189TIP3   OH236981   0.039   4.223  14.445 -0.3202 -0.4338 -0.6523
 5189TIP3    H136982   0.046   4.267  14.530  0.1669 -0.0302 -0.8906
 5189TIP3    H236983   0.102   4.270  14.389  0.9078 -2.0344 -0.6694
 5190TIP3   OH236984   5.734   1.210  10.952  0.5010  0.2462 -0.1451
 5190TIP3    H136985   5.763   1.278  11.012 -0.1570  0.6329 -0.2498
 5190TIP3    H236986   5.778   1.230  10.869 -1.9587  2.3988 -1.0814
 5191TIP3   OH236987   4.895   5.767   3.194  0.1133 -0.0638  0.1442
 5191TIP3    H136988   4.879   5.810   3.278 -2.4067  1.0265 -0.7959
 5191TIP3    H236989   4.882   5.674   3.212  2.2060 -0.1744  1.4514
 5192TIP3   OH236990   1.798   1.429   1.923  0.0212  0.3062 -0.1595
 5192TIP3    H136991   1.782   1.417   1.830 -0.7941 -1.1901  0.1434
 5192TIP3    H236992   1.862   1.361   1.946 -0.8175 -0.2564  0.6123
 5193TIP3   OH236993   3.868   1.023  11.143 -0.3592  0.1003  0.2562
 5193TIP3    H136994   3.934   0.955  11.132 -0.5020 -0.1471  0.9027
 5193TIP3    H236995   3.857   1.031  11.238 -0.9898  0.3992  0.1647
 5194TIP3   OH236996   5.621   4.727   6.096 -0.1380  0.7083 -0.1661
 5194TIP3    H136997   5.529   4.716   6.120  0.0528  0.1906  0.3473
 5194TIP3    H236998   5.662   4.644   6.120  0.5000  1.0041 -0.2280
 5195TIP3   OH236999   2.705   2.405  15.798 -0.2662 -0.0450  0.6167
 5195TIP3    H137000   2.720   2.341  15.868 -0.2859 -2.3491 -1.3220
 5195TIP3    H237001   2.743   2.486  15.830  0.2622 -1.1569  3.0158
 5196TIP3   OH237002   0.159   5.758  12.450  0.3538  0.7794  0.5532
 5196TIP3    H137003   0.211   5.681  12.429  0.7594  1.6950 -2.1418
 5196TIP3    H237004   0.092   5.726  12.511  1.4241 -1.3295  0.7135
 5197TIP3   OH237005   1.746   6.050  16.279 -0.6513  0.6641  0.1670
 5197TIP3    H137006   1.681   5.980  16.277  0.0640 -0.0523  0.9217
 5197TIP3    H237007   1.762   6.066  16.372  1.2063 -0.1268  0.0304
 5198TIP3   OH237008   2.806   6.788   5.731  0.2200 -0.2482 -0.2598
 5198TIP3    H137009   2.821   6.867   5.784 -1.5900 -0.3381  0.4510
 5198TIP3    H237010   2.845   6.807   5.646 -0.7851  1.7065 -0.3236
 5199TIP3   OH237011   3.116   6.459   1.106 -0.3911 -0.2546 -0.6389
 5199TIP3    H137012   3.162   6.509   1.038  0.6154 -0.7151 -0.3141
 5199TIP3    H237013   3.041   6.514   1.129 -0.3754  0.2156 -1.6411
 5200TIP3   OH237014   5.497   5.237   6.297 -0.3216  0.5213 -0.0240
 5200TIP3    H137015   5.538   5.152   6.282 -0.7656  0.4399 -0.8004
 5200TIP3    H237016   5.409   5.229   6.260  0.1159  1.7653 -1.4555
 5201TIP3   OH237017   2.261   1.005  12.814 -0.1280  0.5282  0.7787
 5201TIP3    H137018   2.294   0.957  12.889  0.3245  0.6787  0.6788
 5201TIP3    H237019   2.329   0.995  12.747 -0.7516 -0.0422  0.2053
 5202TIP3   OH237020   5.496   5.490   0.403 -0.5925  0.2946 -0.5420
 5202TIP3    H137021   5.470   5.467   0.492 -0.2886 -0.6857 -0.6970
 5202TIP3    H237022   5.529   5.579   0.410 -1.4642  0.5833  0.1439
 5203TIP3   OH237023   6.636   1.068   4.018 -0.0827  0.2846 -0.0729
 5203TIP3    H137024   6.613   0.984   4.058 -0.0947 -0.2528 -1.1767
 5203TIP3    H237025   6.627   1.053   3.924  2.4764  0.7232 -0.4581
 5204TIP3   OH237026   3.110   5.849  16.729 -0.1040  0.2058  0.3003
 5204TIP3    H137027   3.052   5.779  16.700  0.3405 -0.7125  1.5730
 5204TIP3    H237028   3.190   5.837  16.678  0.1736 -0.5551  0.9087
 5205TIP3   OH237029   4.572   3.690  11.773  0.3273 -0.4370  0.0398
 5205TIP3    H137030   4.585   3.736  11.857  1.1547  1.7425 -1.2007
 5205TIP3    H237031   4.479   3.667  11.773  0.1828  0.0485  1.3123
 5206TIP3   OH237032   5.645   6.209   0.810  0.0586 -0.6011 -0.1128
 5206TIP3    H137033   5.583   6.224   0.738 -0.0234 -2.1742 -0.4140
 5206TIP3    H237034   5.731   6.221   0.771 -0.0173  0.3476 -0.0068
 5207TIP3   OH237035   2.360   0.299  14.098 -0.2647  0.7605 -0.3680
 5207TIP3    H137036   2.355   0.354  14.019  0.7797  0.4362 -0.6844
 5207TIP3    H237037   2.317   0.218  14.074 -0.2597  0.7932 -0.4883
 5208TIP3   OH237038   4.306   0.480  11.723  0.5320  0.6144 -0.7191
 5208TIP3    H137039   4.383   0.501  11.670  1.4620 -3.6625 -1.4106
 5208TIP3    H237040   4.270   0.401  11.683 -2.5325  0.7690  1.3806
 5209TIP3   OH237041   2.305   2.408  13.938  0.2809  0.2889  0.1989
 5209TIP3    H137042   2.267   2.358  13.866 -1.0521 -0.7038  1.5323
 5209TIP3    H237043   2.302   2.499  13.908 -2.0645  0.1242 -0.2985
 5210TIP3   OH237044   4.241   0.611   2.256 -0.2591  0.5534 -0.6808
 5210TIP3    H137045   4.178   0.657   2.311 -1.3340 -1.9175  0.3228
 5210TIP3    H237046   4.324   0.620   2.301 -1.0009 -0.8651  1.0862
 5211TIP3   OH237047   3.025   1.230  13.311  1.0023  0.2284  0.0798
 5211TIP3    H137048   3.039   1.207  13.219 -0.8894 -0.0377 -0.1829
 5211TIP3    H237049   2.950   1.176  13.338  1.1710  0.7205  1.6170
 5212TIP3   OH237050   3.804   3.089   4.548 -0.5313 -0.3563  0.1957
 5212TIP3    H137051   3.856   3.054   4.620  0.8521  1.3020  0.0531
 5212TIP3    H237052   3.823   3.183   4.548 -0.8490 -0.2455 -2.0550
 5213TIP3   OH237053   2.067   5.383   1.636  0.1745 -0.6301  0.8760
 5213TIP3    H137054   2.036   5.431   1.713 -0.9289 -0.7356  0.5235
 5213TIP3    H237055   2.020   5.424   1.563  3.2237  1.3889 -0.1880
 5214TIP3   OH237056   3.783   2.106  10.670 -0.3069  0.2782  0.3704
 5214TIP3    H137057   3.798   2.061  10.587 -2.1840  0.2852 -0.0263
 5214TIP3    H237058   3.761   2.196  10.645 -2.3041 -0.0633  0.7168
 5215TIP3   OH237059   3.113   6.790  13.262 -0.3593 -0.4374  0.1845
 5215TIP3    H137060   3.041   6.734  13.289 -0.5691 -0.1087  0.3044
 5215TIP3    H237061   3.143   6.753  13.179  1.0913 -2.2150  1.4210
 5216TIP3   OH237062   5.439   1.402  12.220 -0.4493 -0.2034  0.5126
 5216TIP3    H137063   5.345   1.410  12.204 -0.2071 -0.1580 -1.0516
 5216TIP3    H237064   5.457   1.309  12.209 -0.5418 -0.4786  2.3758
 5217TIP3   OH237065   5.349   1.898   3.771 -0.0875  0.0298  0.1956
 5217TIP3    H137066   5.374   1.875   3.860  0.4863 -0.9469 -0.1897
 5217TIP3    H237067   5.391   1.983   3.755  2.0224 -0.9711  0.0072
 5218TIP3   OH237068   0.530   3.993   2.673  0.3401 -0.3675 -0.0028
 5218TIP3    H137069   0.559   4.083   2.666  0.1890 -0.1308  1.9543
 5218TIP3    H237070   0.534   3.960   2.583  0.1147  1.6443 -0.8028
 5219TIP3   OH237071   5.223   2.126   2.406  0.3292 -0.4166  0.3232
 5219TIP3    H137072   5.151   2.190   2.404  0.2955 -0.3731 -3.1297
 5219TIP3    H237073   5.298   2.176   2.437 -0.4687  0.3528  1.0672
 5220TIP3   OH237074   0.042   6.283   1.639 -0.3550 -0.0616 -0.3094
 5220TIP3    H137075  -0.016   6.342   1.592 -0.9017  0.8511  1.4241
 5220TIP3    H237076   0.129   6.305   1.606 -0.4666  2.1855  0.7009
 5221TIP3   OH237077   4.068   4.923   1.646 -0.0823  0.1109  0.2515
 5221TIP3    H137078   4.145   4.906   1.700  0.2167  2.2855  0.5856
 5221TIP3    H237079   4.102   4.963   1.567 -0.7804 -0.1428 -0.1901
 5222TIP3   OH237080   0.428   6.668   4.037  0.7388  0.2632  0.1558
 5222TIP3    H137081   0.390   6.581   4.021  1.0580 -0.3841  2.5693
 5222TIP3    H237082   0.451   6.700   3.950 -0.7421 -1.4351 -0.9333
 5223TIP3   OH237083   4.887   1.326   3.562  0.2310  0.3699  0.2714
 5223TIP3    H137084   4.874   1.405   3.615  0.8195  0.2734  0.5655
 5223TIP3    H237085   4.981   1.326   3.542 -0.2334  1.3582 -2.2661
 5224TIP3   OH237086   6.236   4.417   2.498 -0.1093 -0.3721  0.1526
 5224TIP3    H137087   6.301   4.398   2.431  1.9340 -0.2694  1.9833
 5224TIP3    H237088   6.157   4.374   2.467  1.3085 -2.1041 -1.3226
 5225TIP3   OH237089   3.609   5.693  15.112 -0.0028  0.2810 -0.6084
 5225TIP3    H137090   3.651   5.645  15.183  0.3574 -1.8156 -2.1373
 5225TIP3    H237091   3.679   5.747  15.075  0.3244 -0.1348 -0.6078
 5226TIP3   OH237092   3.913   3.148   1.663 -0.4387 -0.7232  0.0011
 5226TIP3    H137093   3.869   3.097   1.595 -1.9750  1.4678 -0.7667
 5226TIP3    H237094   3.981   3.197   1.617 -0.0812 -0.8040  0.4325
 5227TIP3   OH237095   1.477   1.149  13.879 -0.2365 -0.1155 -0.1763
 5227TIP3    H137096   1.528   1.113  13.806 -1.3941  1.0702 -1.6444
 5227TIP3    H237097   1.542   1.185  13.938  0.8174 -2.2850  0.1033
 5228TIP3   OH237098   3.258   1.981   0.171 -0.5142 -0.1512 -0.2672
 5228TIP3    H137099   3.190   2.020   0.225 -1.5780 -0.9200 -0.9932
 5228TIP3    H237100   3.254   2.029   0.088 -2.5431 -2.3425 -1.5496
 5229TIP3   OH237101   4.514   2.176   4.848  0.3943  0.1209 -0.3084
 5229TIP3    H137102   4.428   2.180   4.890  0.1547  1.3080 -0.8775
 5229TIP3    H237103   4.548   2.089   4.872 -0.8250 -0.2511  0.1662
 5230TIP3   OH237104   5.951   4.409   5.167 -0.3611  0.4608  0.4211
 5230TIP3    H137105   6.043   4.425   5.146 -0.4339 -1.2740 -1.4995
 5230TIP3    H237106   5.944   4.314   5.172 -2.0012  0.5798  0.8388
 5231TIP3   OH237107   1.854   0.822  15.571 -0.1181 -0.5222  0.0592
 5231TIP3    H137108   1.777   0.784  15.614  0.4761 -1.8621 -0.0469
 5231TIP3    H237109   1.924   0.758  15.583  0.2664 -0.6434 -2.3169
 5232TIP3   OH237110   0.507   1.089   0.510  0.8274 -0.3944  0.2628
 5232TIP3    H137111   0.585   1.118   0.558  1.0814 -0.9849  0.2175
 5232TIP3    H237112   0.435   1.104   0.571  1.1085 -0.8330  0.7100
 5233TIP3   OH237113   5.495   0.861   5.630  0.2367 -0.0518  0.4462
 5233TIP3    H137114   5.581   0.901   5.623  0.7102 -1.2172 -0.7041
 5233TIP3    H237115   5.438   0.918   5.577  1.0693 -1.2658 -1.8730
 5234TIP3   OH237116   4.360   4.014  11.205  0.4039  0.2781  0.2310
 5234TIP3    H137117   4.406   4.021  11.288 -0.2486  0.8249  0.5586
 5234TIP3    H237118   4.389   3.931  11.168 -0.6950 -0.9054  1.8803
 5235TIP3   OH237119   4.314   6.222   2.522  0.1437  0.2175 -0.1694
 5235TIP3    H137120   4.395   6.272   2.529  0.3060 -0.3013  2.5020
 5235TIP3    H237121   4.258   6.255   2.593 -0.8625 -1.3875 -0.1507
 5236TIP3   OH237122   0.479   3.023  13.727 -0.1321 -0.4540  0.0236
 5236TIP3    H137123   0.439   3.085  13.788  0.1263  0.7108 -0.9497
 5236TIP3    H237124   0.448   3.051  13.641  1.5366 -0.4718 -0.6084
 5237TIP3   OH237125   5.121   4.344  17.103  0.5686 -0.4183 -0.0926
 5237TIP3    H137126   5.215   4.358  17.113  0.3447  1.4325 -0.2378
 5237TIP3    H237127   5.091   4.317  17.190  1.3670 -2.0581 -0.2958
 5238TIP3   OH237128   3.179   1.793  11.460 -0.5541 -0.1139  0.1291
 5238TIP3    H137129   3.255   1.850  11.443 -1.2285  0.6331 -0.4471
 5238TIP3    H237130   3.116   1.817  11.392 -1.8408  0.2318  1.4042
 5239TIP3   OH237131   5.650   2.454  16.441  0.0648 -0.0153 -0.7676
 5239TIP3    H137132   5.671   2.538  16.401 -3.1742  0.6500 -1.3827
 5239TIP3    H237133   5.698   2.390  16.389  0.7816  1.2681 -1.7666
 5240TIP3   OH237134   4.249   5.172  12.843 -0.1814  0.0020 -0.3882
 5240TIP3    H137135   4.228   5.253  12.796  0.3907  0.4615  0.1368
 5240TIP3    H237136   4.280   5.201  12.929  1.4270 -0.6894 -0.6915
 5241TIP3   OH237137   6.530   4.113   5.246  0.2442 -0.1460 -0.7434
 5241TIP3    H137138   6.533   4.045   5.314 -0.6470  0.4343 -0.1135
 5241TIP3    H237139   6.543   4.065   5.164  1.8501 -0.7944 -0.1509
 5242TIP3   OH237140   0.133   0.498   2.794 -0.4504 -0.1550 -0.1047
 5242TIP3    H137141   0.043   0.469   2.784 -0.5779 -0.3193  1.2469
 5242TIP3    H237142   0.184   0.417   2.802 -0.7534 -0.1603  3.2560
 5243TIP3   OH237143   2.349   0.953   2.932  0.6210 -0.5217 -0.2387
 5243TIP3    H137144   2.379   0.888   2.868  2.2297 -0.0841  0.0352
 5243TIP3    H237145   2.253   0.950   2.926  0.6974  0.0989 -3.2628
 5244TIP3   OH237146   0.586   4.322  13.596 -0.5171  0.3194 -0.2265
 5244TIP3    H137147   0.658   4.360  13.545 -0.4551  0.6676  0.1157
 5244TIP3    H237148   0.576   4.381  13.671 -1.2680  0.3670 -0.3554
 5245TIP3   OH237149   3.146   6.484   6.711  0.2251  0.4493 -1.0059
 5245TIP3    H137150   3.195   6.545   6.767 -1.7302  2.3364 -1.2155
 5245TIP3    H237151   3.154   6.520   6.623  0.9721 -0.9722 -1.5610
 5246TIP3   OH237152   6.456   3.870   5.030 -0.6712  0.2071  0.1399
 5246TIP3    H137153   6.452   3.810   5.105 -2.2296  0.4599  0.3013
 5246TIP3    H237154   6.384   3.842   4.973 -0.4371  0.9448 -0.5383
 5247TIP3   OH237155   0.103   2.918   1.793  0.0590  0.3239  0.5357
 5247TIP3    H137156   0.025   2.954   1.750 -0.4818 -0.4308  0.8595
 5247TIP3    H237157   0.122   2.979   1.864 -0.6563  0.1530  0.8856
 5248TIP3   OH237158   4.447   1.217   6.045 -0.2166  0.4370 -0.1078
 5248TIP3    H137159   4.392   1.144   6.074 -0.5127  0.6545 -0.1119
 5248TIP3    H237160   4.533   1.178   6.029 -0.5391 -0.0340 -0.7319
 5249TIP3   OH237161   1.466   4.021   2.886  0.2467 -0.0178  0.3577
 5249TIP3    H137162   1.380   4.005   2.848  0.0396 -0.0016  0.8017
 5249TIP3    H237163   1.447   4.056   2.973  0.7035 -0.1019  0.4951
 5250TIP3   OH237164   0.845   5.287  16.792  0.2055 -0.2280 -0.3134
 5250TIP3    H137165   0.770   5.344  16.808  1.9952  2.3128 -0.4243
 5250TIP3    H237166   0.808   5.211  16.747 -2.2525  0.9824 -0.4976
 5251TIP3   OH237167   0.387   1.900   0.383  0.5732  0.0707  0.0624
 5251TIP3    H137168   0.401   1.810   0.414 -0.3032  0.1466  0.7159
 5251TIP3    H237169   0.411   1.954   0.458 -2.2156  0.2398  0.9434
 5252TIP3   OH237170   3.797   6.443  15.634 -0.4120 -0.2554 -0.2264
 5252TIP3    H137171   3.824   6.467  15.546  0.4414  0.6135  0.2443
 5252TIP3    H237172   3.862   6.380  15.664  0.2668  0.7015  0.3651
 5253TIP3   OH237173   5.676   4.518   0.602 -0.0803  0.2753 -0.4359
 5253TIP3    H137174   5.689   4.610   0.578 -2.1720  1.1767  1.5112
 5253TIP3    H237175   5.628   4.522   0.684  0.3218 -2.6035  0.0275
 5254TIP3   OH237176   0.719   1.681   4.331 -0.2940 -0.6377  0.1166
 5254TIP3    H137177   0.688   1.676   4.422  0.7386 -0.6094  0.4942
 5254TIP3    H237178   0.806   1.641   4.334  0.2558  0.4646 -0.6160
 5255TIP3   OH237179   6.365   4.949  15.870 -0.1311 -0.5115 -0.2171
 5255TIP3    H137180   6.312   4.880  15.830 -0.9173 -0.3931  0.5983
 5255TIP3    H237181   6.380   5.012  15.800 -1.5510 -0.2714 -0.3245
 5256TIP3   OH237182   1.768   2.373  13.327 -0.5054 -0.7303 -0.3636
 5256TIP3    H137183   1.763   2.409  13.239 -1.0423  0.1504  0.0082
 5256TIP3    H237184   1.690   2.408  13.371 -1.8363 -3.4627 -0.3720
 5257TIP3   OH237185   1.055   3.370   2.887  0.2367 -0.1226  0.7187
 5257TIP3    H137186   1.098   3.285   2.897  0.7031  0.2896  2.4322
 5257TIP3    H237187   0.994   3.375   2.960  0.4189  1.1433  0.7989
 5258TIP3   OH237188   0.955   3.181  17.201 -0.0613 -0.6082 -0.2223
 5258TIP3    H137189   1.018   3.146  17.264 -1.5564  1.0890  2.3816
 5258TIP3    H237190   0.998   3.257  17.164  1.6876 -2.7790 -3.0817
 5259TIP3   OH237191   2.772   0.461   5.966 -0.1634 -0.3401 -0.2806
 5259TIP3    H137192   2.839   0.488   6.029  1.8252 -1.1285 -1.9483
 5259TIP3    H237193   2.806   0.380   5.928 -1.9219 -0.5753 -1.4484
 5260TIP3   OH237194   4.126   3.190  13.088 -0.2176 -0.1475  0.0590
 5260TIP3    H137195   4.042   3.145  13.086  0.6275 -2.1694  2.8397
 5260TIP3    H237196   4.167   3.159  13.169  2.8155  1.4667 -0.7153
 5261TIP3   OH237197   5.711   6.339   5.666 -0.1190  0.1472  0.0534
 5261TIP3    H137198   5.619   6.366   5.656 -0.2791  0.2933  1.6470
 5261TIP3    H237199   5.711   6.246   5.644 -0.1428  0.6931 -2.4734
 5262TIP3   OH237200   5.764   5.420   1.974  0.2098  0.6294  0.1660
 5262TIP3    H137201   5.859   5.407   1.965 -0.0895 -1.8494 -0.1280
 5262TIP3    H237202   5.738   5.460   1.891  0.9491  0.8965  0.0525
 5263TIP3   OH237203   4.645   3.776  13.367 -0.2228 -0.0232  0.1129
 5263TIP3    H137204   4.584   3.773  13.294  0.0307 -0.9839 -0.0720
 5263TIP3    H237205   4.594   3.812  13.439 -1.3234 -1.6861  0.2252
 5264TIP3   OH237206   5.929   5.008  11.199  0.3171  0.2691  0.3010
 5264TIP3    H137207   5.983   5.040  11.271  1.7614  0.6980 -0.8985
 5264TIP3    H237208   5.943   5.072  11.129 -1.0139 -0.1411 -0.3643
 5265TIP3   OH237209   4.081   6.009   0.096 -0.3481  0.2090 -0.3990
 5265TIP3    H137210   4.114   5.980   0.181 -0.0924 -1.0845 -0.9196
 5265TIP3    H237211   3.989   6.031   0.113  0.2177  2.0220  0.6432
 5266TIP3   OH237212   3.900   2.199  14.312  0.0395 -0.0434 -0.2134
 5266TIP3    H137213   3.951   2.121  14.291  2.4270  1.2979  0.1693
 5266TIP3    H237214   3.926   2.263  14.245  0.8113  1.4380  1.3896
 5267TIP3   OH237215   2.255   6.541   2.641 -0.3728 -0.7197  0.7199
 5267TIP3    H137216   2.256   6.576   2.731  2.8519  1.3974  0.0589
 5267TIP3    H237217   2.273   6.618   2.586  0.1481 -2.3607 -1.5157
 5268TIP3   OH237218   1.101   0.352   2.439 -0.2310 -0.8309  0.2737
 5268TIP3    H137219   1.036   0.322   2.375  0.0652 -0.3476 -0.2649
 5268TIP3    H237220   1.058   0.425   2.483 -0.3357 -0.9941  0.4419
 5269TIP3   OH237221   5.196   3.170   5.170 -0.0156 -0.0226  0.2362
 5269TIP3    H137222   5.273   3.226   5.176 -1.1390  1.5246  0.9256
 5269TIP3    H237223   5.208   3.104   5.238  0.2291  0.8334  1.0342
 5270TIP3   OH237224   6.363   5.339   5.197  0.1022 -0.6569 -0.1424
 5270TIP3    H137225   6.436   5.359   5.255  0.4899  0.0184 -0.8448
 5270TIP3    H237226   6.374   5.247   5.176  2.0638 -0.0825 -1.9786
 5271TIP3   OH237227   0.199   4.969  13.291 -0.2078  0.0836  0.0386
 5271TIP3    H137228   0.263   4.899  13.280 -0.1214  0.2429 -0.5294
 5271TIP3    H237229   0.246   5.048  13.265 -0.3699  0.3242  0.4727
 5272TIP3   OH237230   2.570   2.069  14.530 -0.4687 -0.2947  0.3464
 5272TIP3    H137231   2.489   2.117  14.512  0.3951  0.7126 -1.0727
 5272TIP3    H237232   2.620   2.128  14.586 -0.0543 -0.2235 -0.0984
 5273TIP3   OH237233   5.562   1.654  12.185 -0.2201 -0.5599  0.1971
 5273TIP3    H137234   5.541   1.565  12.211  1.6495 -0.5946  1.8229
 5273TIP3    H237235   5.495   1.677  12.120 -1.0493 -2.9277  0.1317
 5274TIP3   OH237236   1.368   4.541   1.091 -0.0509 -0.4053 -0.1147
 5274TIP3    H137237   1.434   4.596   1.048  0.2778 -0.0855  0.7802
 5274TIP3    H237238   1.365   4.461   1.038  0.9000 -0.3315 -0.2877
 5275TIP3   OH237239   5.030   4.883   4.844 -0.0389  0.7169 -0.1345
 5275TIP3    H137240   5.084   4.892   4.766 -0.1576  1.9488 -0.0912
 5275TIP3    H237241   4.940   4.901   4.814  0.2926  5.4767  0.8993
 5276TIP3   OH237242   0.153   1.449  11.081  0.6203 -0.0470  0.2917
 5276TIP3    H137243   0.123   1.456  11.171  1.0414  1.0004  0.3709
 5276TIP3    H237244   0.152   1.539  11.048  0.2904 -0.4295 -0.8150
 5277TIP3   OH237245   2.991   1.506  13.221 -0.1584 -0.0925  0.0790
 5277TIP3    H137246   2.988   1.510  13.125 -1.8620 -1.2428  0.0357
 5277TIP3    H237247   3.035   1.423  13.240 -1.6792 -0.9083  0.2152
 5278TIP3   OH237248   5.818   4.006   5.743  0.0250 -0.1359 -0.1945
 5278TIP3    H137249   5.909   4.035   5.734 -0.3064  1.5991  1.3808
 5278TIP3    H237250   5.824   3.921   5.786  0.9201  0.7917  1.6579
 5279TIP3   OH237251   2.873   6.551   4.838 -0.1851  0.7632  0.2947
 5279TIP3    H137252   2.921   6.626   4.802  0.3305  0.9707  1.3843
 5279TIP3    H237253   2.913   6.535   4.923 -1.7820  0.6838  1.0660
 5280TIP3   OH237254   3.914   3.701  15.351 -0.2976 -0.3405 -0.0301
 5280TIP3    H137255   3.826   3.711  15.389 -0.1425 -0.8834  0.4967
 5280TIP3    H237256   3.941   3.613  15.378  0.5967 -0.0009  0.2040
 5281TIP3   OH237257   5.263   1.368   2.532 -0.3364  0.0901  0.3106
 5281TIP3    H137258   5.310   1.314   2.596  0.6775  1.7239  1.0080
 5281TIP3    H237259   5.179   1.323   2.521 -0.6030 -0.2324  2.8657
 5282TIP3   OH237260   2.117   3.642  13.079 -0.3595  0.2238  0.5296
 5282TIP3    H137261   2.033   3.652  13.124 -0.0915  1.1326  0.8509
 5282TIP3    H237262   2.183   3.653  13.147  0.0390  0.7840  0.0612
 5283TIP3   OH237263   3.077   1.165  13.010  0.5676  0.0470  0.5411
 5283TIP3    H137264   3.136   1.194  12.941  1.7421  0.0863  1.5243
 5283TIP3    H237265   3.111   1.079  13.035 -1.2584 -1.0457 -0.5101
 5284TIP3   OH237266   0.770   2.807  14.138 -0.1470  0.1204 -0.1804
 5284TIP3    H137267   0.684   2.848  14.147  0.3647  1.0922  0.3913
 5284TIP3    H237268   0.825   2.853  14.201  0.6697 -0.8515 -0.1638
 5285TIP3   OH237269   1.345   5.395  12.719 -0.3677 -0.3240  0.3775
 5285TIP3    H137270   1.440   5.401  12.730 -0.3418  1.8539 -0.4427
 5285TIP3    H237271   1.327   5.446  12.639 -2.1909 -1.0077  0.3014
 5286TIP3   OH237272   4.037   6.364   5.440 -0.3370 -0.0159 -0.2785
 5286TIP3    H137273   4.015   6.277   5.406  0.8912 -0.6517  0.5008
 5286TIP3    H237274   4.061   6.349   5.531  1.1456  0.9290 -0.4775
 5287TIP3   OH237275   6.263   3.414   0.195 -0.4239  0.3176 -0.3073
 5287TIP3    H137276   6.252   3.478   0.266  0.9311  2.3010 -1.7439
 5287TIP3    H237277   6.358   3.411   0.182 -0.4940 -1.7484 -0.5631
 5288TIP3   OH237278   4.887   5.439  15.355 -0.0363  0.1043  0.5005
 5288TIP3    H137279   4.877   5.501  15.427 -0.9819 -1.0703  1.4287
 5288TIP3    H237280   4.919   5.359  15.397 -2.6326 -1.2971  0.0168
 5289TIP3   OH237281   3.560   4.200   5.893 -0.0746 -0.1199 -0.0467
 5289TIP3    H137282   3.592   4.215   5.982 -0.1498  1.9747 -0.3275
 5289TIP3    H237283   3.539   4.106   5.890  1.8868 -0.6778  1.4872
 5290TIP3   OH237284   6.757   1.674  13.884 -0.6816  0.2136  0.3494
 5290TIP3    H137285   6.848   1.701  13.896 -0.6812  0.3738 -0.0012
 5290TIP3    H237286   6.715   1.749  13.843 -0.5912 -0.4361 -1.0014
 5291TIP3   OH237287   5.548   6.394  10.949 -0.3401 -0.4778 -0.2097
 5291TIP3    H137288   5.488   6.342  10.896  0.1945 -0.2801 -1.0354
 5291TIP3    H237289   5.618   6.419  10.888 -0.4827  1.0338  0.2165
 5292TIP3   OH237290   4.802   2.421  12.924 -0.3482  0.6572  0.0458
 5292TIP3    H137291   4.836   2.336  12.950  1.3338  0.7956 -1.4586
 5292TIP3    H237292   4.763   2.406  12.838 -2.4847  0.9183  0.9017
 5293TIP3   OH237293   5.955   0.970  11.358 -0.6973 -0.3893 -0.2514
 5293TIP3    H137294   6.019   1.013  11.415 -2.3762  3.5128 -1.0199
 5293TIP3    H237295   6.001   0.958  11.275 -0.7285  1.9707 -0.6625
 5294TIP3   OH237296   2.558   4.132  11.890  0.3232  0.0419 -0.2522
 5294TIP3    H137297   2.468   4.110  11.867  0.0408  1.9639 -1.1693
 5294TIP3    H237298   2.551   4.171  11.977 -0.0671  1.9890 -1.1011
 5295TIP3   OH237299   3.910   2.534  12.962  0.1437  0.4143 -0.0840
 5295TIP3    H137300   3.962   2.460  12.994  0.3948  0.9273  0.7090
 5295TIP3    H237301   3.846   2.550  13.030 -0.7291  0.1289 -0.8252
 5296TIP3   OH237302   1.209   1.496  11.886 -0.2422 -0.1437  0.0517
 5296TIP3    H137303   1.257   1.560  11.834  0.7142  1.6599  2.9339
 5296TIP3    H237304   1.243   1.411  11.856 -0.2365  0.6963 -2.6036
 5297TIP3   OH237305   2.436   6.102  15.616  0.3177  0.4566  0.5978
 5297TIP3    H137306   2.351   6.060  15.601  0.0733  0.9999  0.4624
 5297TIP3    H237307   2.497   6.053  15.560  0.3743 -0.8348  1.7348
 5298TIP3   OH237308   4.975   3.517  15.584  0.0671  0.2530  0.3240
 5298TIP3    H137309   5.000   3.600  15.545  1.1913  0.2107  0.9079
 5298TIP3    H237310   5.049   3.493  15.640  0.0642 -1.4801 -0.3587
 5299TIP3   OH237311   3.557   6.763  15.974  0.3088 -1.2408  0.1418
 5299TIP3    H137312   3.591   6.695  16.031 -0.9753 -3.7916 -1.9259
 5299TIP3    H237313   3.568   6.728  15.885  0.6530  1.7809 -1.1395
 5300TIP3   OH237314   5.048   2.273  15.546 -0.2542 -0.2706 -0.0842
 5300TIP3    H137315   5.120   2.288  15.608 -0.0311  1.9289 -0.7911
 5300TIP3    H237316   4.970   2.301  15.593 -0.2139  0.4391 -0.4322
 5301TIP3   OH237317   5.729   1.154   5.221  0.3165 -0.3870 -0.6465
 5301TIP3    H137318   5.787   1.230   5.220  1.3424 -1.1350 -2.3750
 5301TIP3    H237319   5.699   1.148   5.312  2.3383  0.4745  0.1327
 5302TIP3   OH237320   0.601   2.221   4.649 -0.3782 -0.2328 -0.3899
 5302TIP3    H137321   0.585   2.177   4.565 -2.3539  0.5207 -0.4660
 5302TIP3    H237322   0.560   2.307   4.640  2.6601  1.3964  0.0626
 5303TIP3   OH237323   4.657   1.157   2.000  0.1866 -0.2236 -0.6628
 5303TIP3    H137324   4.587   1.140   1.937 -0.1150  0.1613 -0.4361
 5303TIP3    H237325   4.623   1.124   2.083  0.0152  0.5128 -0.4275
 5304TIP3   OH237326   1.253   3.110  11.279  0.1632 -0.6591 -0.2148
 5304TIP3    H137327   1.279   3.187  11.228  1.7067 -0.3001  1.0527
 5304TIP3    H237328   1.160   3.125  11.298  0.2124  0.4323 -0.7427
 5305TIP3   OH237329   4.262   1.117  16.417  0.1589 -0.0418  0.0203
 5305TIP3    H137330   4.261   1.048  16.350  0.3549 -1.7231  1.6619
 5305TIP3    H237331   4.184   1.169  16.399 -1.3290 -2.1213  0.0635
 5306TIP3   OH237332   4.158   0.052   3.989  0.1675  0.4184  0.3560
 5306TIP3    H137333   4.191   0.020   4.073  1.1894  1.5121  0.4030
 5306TIP3    H237334   4.080  -0.001   3.972  1.6924 -2.0148  0.4369
 5307TIP3   OH237335   5.240   5.380   4.122  0.3336  0.8856  0.2524
 5307TIP3    H137336   5.147   5.377   4.143  0.3586 -0.9832  0.2671
 5307TIP3    H237337   5.281   5.322   4.186  1.3894  0.9652 -0.3219
 5308TIP3   OH237338   3.547   1.468  16.768 -0.3649  0.3415 -0.2317
 5308TIP3    H137339   3.524   1.377  16.753 -0.7934  0.7502 -2.3431
 5308TIP3    H237340   3.643   1.468  16.776 -0.4958 -0.5231  1.9885
 5309TIP3   OH237341   3.877   6.446   2.372  0.7697 -0.4415  0.0229
 5309TIP3    H137342   3.938   6.501   2.421  1.3461  0.0275 -1.1839
 5309TIP3    H237343   3.797   6.445   2.425  0.9822  0.9971  0.4127
 5310TIP3   OH237344   5.405   6.034  11.524  0.0370  0.1038 -0.2704
 5310TIP3    H137345   5.450   6.001  11.602  1.3163 -1.9053 -1.7611
 5310TIP3    H237346   5.446   6.120  11.508  0.7456 -0.0780  0.4901
 5311TIP3   OH237347   1.610   0.744   2.999 -0.7850 -0.3500 -0.1992
 5311TIP3    H137348   1.671   0.675   2.972 -1.1153 -0.5263 -0.5143
 5311TIP3    H237349   1.660   0.825   2.993 -0.8080 -0.3976 -1.2362
 5312TIP3   OH237350   1.489   1.743  16.951 -0.2206 -0.2480  0.1778
 5312TIP3    H137351   1.394   1.728  16.951 -0.1207 -0.9179 -0.2113
 5312TIP3    H237352   1.525   1.666  16.906  0.6448 -0.8806  1.8574
 5313TIP3   OH237353   3.144   3.491  15.817 -0.2660  0.1825  0.7498
 5313TIP3    H137354   3.132   3.479  15.723  0.7844  0.1806  0.6074
 5313TIP3    H237355   3.171   3.583  15.826  1.9517 -0.4259  0.7935
 5314TIP3   OH237356   3.744   1.113  14.500  0.1227 -0.0964  0.1570
 5314TIP3    H137357   3.776   1.199  14.472  0.2837 -0.7151 -1.6779
 5314TIP3    H237358   3.823   1.060  14.510 -0.0795 -0.6976 -1.1705
 5315TIP3   OH237359   0.810   2.222  14.504 -0.1103 -0.0026  0.1819
 5315TIP3    H137360   0.756   2.233  14.426 -1.6024 -0.5081  1.1010
 5315TIP3    H237361   0.781   2.291  14.564  2.6072  1.8649 -0.4764
 5316TIP3   OH237362   2.538   2.835  13.218 -0.1295  0.1929 -0.6168
 5316TIP3    H137363   2.543   2.749  13.259  0.1514 -0.1223 -1.2976
 5316TIP3    H237364   2.546   2.897  13.291 -2.9581 -0.3060  0.2258
 5317TIP3   OH237365   5.592   3.403  13.163 -0.4203  0.0869  0.6850
 5317TIP3    H137366   5.569   3.478  13.217 -1.1044 -0.4054  1.0831
 5317TIP3    H237367   5.682   3.382  13.189  0.2873  1.5794 -0.3805
 5318TIP3   OH237368   3.490   1.438   1.384 -0.0958  0.1769  0.7937
 5318TIP3    H137369   3.424   1.470   1.445 -0.3668 -1.3204  1.3386
 5318TIP3    H237370   3.467   1.346   1.369  0.2194  0.3779 -1.2556
 5319TIP3   OH237371   1.519   2.598  10.650  0.8150  0.3120  0.1381
 5319TIP3    H137372   1.542   2.646  10.571 -1.5065  1.3557  0.0120
 5319TIP3    H237373   1.553   2.651  10.722  2.7487 -0.5352 -0.1114
 5320TIP3   OH237374   4.516   3.677   6.012 -0.0495  0.6646  0.4213
 5320TIP3    H137375   4.459   3.645   6.082  1.0365  0.7639  1.3953
 5320TIP3    H237376   4.591   3.714   6.058  0.9065  0.3432 -0.8207
 5321TIP3   OH237377   3.147   1.123  13.840 -0.2993 -0.5965  0.2240
 5321TIP3    H137378   3.147   1.118  13.935 -1.7020 -2.1252  0.1853
 5321TIP3    H237379   3.098   1.202  13.819  2.2349  1.2318  0.7352
 5322TIP3   OH237380   1.596   5.571   1.739 -0.1334 -0.0544 -0.5392
 5322TIP3    H137381   1.535   5.566   1.666 -1.8146 -0.2484  0.8179
 5322TIP3    H237382   1.544   5.550   1.816  1.7731 -0.7380  0.6479
 5323TIP3   OH237383   5.754   2.941   3.716  0.0978  0.5068  0.3265
 5323TIP3    H137384   5.745   2.893   3.798 -0.7495  1.4059  0.7973
 5323TIP3    H237385   5.847   2.959   3.708  0.2998 -0.3830  0.6207
 5324TIP3   OH237386   4.430   2.507  11.422  0.1807 -0.2899  0.5097
 5324TIP3    H137387   4.485   2.478  11.349 -0.8429  3.4952 -2.0943
 5324TIP3    H237388   4.488   2.504  11.498  2.6501 -0.6245 -1.2507
 5325TIP3   OH237389   5.337   4.452   0.182  0.3615 -0.2599  0.2171
 5325TIP3    H137390   5.260   4.508   0.186  0.3508  0.0121 -2.1005
 5325TIP3    H237391   5.401   4.494   0.240 -0.7676  0.2416  1.1383
 5326TIP3   OH237392   6.039   5.543  10.557 -0.0777 -0.5351 -0.5177
 5326TIP3    H137393   6.048   5.465  10.504  0.1441 -1.0667  0.2886
 5326TIP3    H237394   6.005   5.610  10.497  2.4135 -0.4335 -1.9126
 5327TIP3   OH237395   5.036   2.290  10.672 -0.0302 -0.2257  0.0725
 5327TIP3    H137396   5.031   2.242  10.589  1.2088  0.9643 -0.7288
 5327TIP3    H237397   5.121   2.267  10.709 -0.4784 -0.5666  0.9261
 5328TIP3   OH237398   2.469   2.506  15.635 -0.3044  0.3163  0.4308
 5328TIP3    H137399   2.443   2.587  15.680  0.0777  0.2290  0.8169
 5328TIP3    H237400   2.538   2.469  15.691  1.6765  1.2585 -1.2679
 5329TIP3   OH237401   3.560   5.538   4.734 -0.2506 -0.6815 -0.0724
 5329TIP3    H137402   3.613   5.476   4.785 -1.1068 -0.1956  1.4622
 5329TIP3    H237403   3.563   5.503   4.645 -1.0061 -3.1753  0.7870
 5330TIP3   OH237404   0.319   2.991  15.074  0.3542  0.8852 -0.8568
 5330TIP3    H137405   0.254   3.001  15.143  0.4392  0.6142 -0.7381
 5330TIP3    H237406   0.273   2.942  15.005  1.0543 -1.2185  0.0959
 5331TIP3   OH237407   6.132   4.474   0.807 -0.1415  0.3858  0.7962
 5331TIP3    H137408   6.157   4.529   0.732 -0.2510 -0.7074 -0.0665
 5331TIP3    H237409   6.186   4.506   0.879  1.8567 -0.1885 -0.3702
 5332TIP3   OH237410   0.496   3.030   1.926 -0.0804 -0.6724 -0.7050
 5332TIP3    H137411   0.514   3.012   2.018  2.3770  0.0527 -0.9723
 5332TIP3    H237412   0.413   3.077   1.927  0.6438  0.6944  1.3210
 5333TIP3   OH237413   2.664   1.137   5.061  0.2123  0.0101 -0.5195
 5333TIP3    H137414   2.604   1.064   5.074  0.4872 -0.2609 -0.7394
 5333TIP3    H237415   2.748   1.105   5.093  0.4306  0.0730 -1.0229
 5334TIP3   OH237416   0.810   6.294  16.111 -0.0532 -0.4592  0.1749
 5334TIP3    H137417   0.833   6.305  16.019  0.0194 -0.5230  0.1852
 5334TIP3    H237418   0.761   6.211  16.113  0.4405 -0.7526  0.2828
 5335TIP3   OH237419   2.862   0.691  11.868 -0.1746 -0.6368 -0.2194
 5335TIP3    H137420   2.952   0.700  11.836  0.4340 -1.4877  1.1090
 5335TIP3    H237421   2.854   0.758  11.936 -0.6917 -0.2751 -0.6401
 5336TIP3   OH237422   2.797   6.123  16.845  0.2564 -0.2546 -0.1335
 5336TIP3    H137423   2.751   6.039  16.838  1.3784 -1.0022  0.8756
 5336TIP3    H237424   2.760   6.165  16.922  1.6938 -1.2059  1.1475
 5337TIP3   OH237425   5.270   1.333  13.432 -0.1172 -0.3734  0.4972
 5337TIP3    H137426   5.347   1.368  13.388  0.1036 -1.0089  0.3697
 5337TIP3    H237427   5.302   1.303  13.517 -0.5416  0.8446  1.1103
 5338TIP3   OH237428   3.964   3.646  14.207  0.7723  0.2115 -0.2541
 5338TIP3    H137429   3.909   3.569  14.189  0.3407 -0.1177  2.1052
 5338TIP3    H237430   3.936   3.711  14.142 -2.3895  0.0111  0.7355
 5339TIP3   OH237431   0.857   2.208  16.096 -0.2080  0.1456  0.0232
 5339TIP3    H137432   0.810   2.286  16.065  0.3038  0.5517  0.2505
 5339TIP3    H237433   0.788   2.149  16.126 -0.8760 -0.8796 -3.1442
 5340TIP3   OH237434   3.891   1.791   4.038  0.3718 -0.0247 -0.0990
 5340TIP3    H137435   3.922   1.881   4.029  0.2153  0.0646  0.2649
 5340TIP3    H237436   3.809   1.789   3.989 -0.9427  0.6945  1.9461
 5341TIP3   OH237437   3.436   0.114  17.139 -0.2739 -0.1762  0.0340
 5341TIP3    H137438   3.385   0.112  17.220  1.0736 -0.9129  0.8989
 5341TIP3    H237439   3.527   0.118  17.169  0.2439 -0.4469 -1.4524
 5342TIP3   OH237440   4.117   6.324  16.997 -0.2357  0.0231 -0.4585
 5342TIP3    H137441   4.145   6.340  17.088  0.0447 -0.7035 -0.4150
 5342TIP3    H237442   4.092   6.232  16.995  1.1568 -0.3559 -1.4722
 5343TIP3   OH237443   5.358   3.237   4.543 -0.3145  0.1503  0.3163
 5343TIP3    H137444   5.385   3.265   4.631 -1.4247 -0.2582  0.8020
 5343TIP3    H237445   5.334   3.145   4.553 -0.1699  0.0167 -0.4879
 5344TIP3   OH237446   1.499   4.482   5.039 -0.2008  0.3388  0.7573
 5344TIP3    H137447   1.549   4.419   4.985  1.2010  0.0126  2.3486
 5344TIP3    H237448   1.409   4.471   5.010  0.4810  0.2478 -1.5712
 5345TIP3   OH237449   3.809   1.390  16.744 -0.5097  0.4201 -0.0108
 5345TIP3    H137450   3.784   1.297  16.736  1.3034 -0.0087 -1.5371
 5345TIP3    H237451   3.864   1.393  16.822 -0.0571  0.0537 -0.3050
 5346TIP3   OH237452   1.497   0.521   6.216  0.0106  0.3176  0.4457
 5346TIP3    H137453   1.590   0.516   6.191  0.1352 -0.1200  0.9572
 5346TIP3    H237454   1.489   0.604   6.263  0.2656  0.1113  0.8593
 5347TIP3   OH237455   4.386   1.295   1.343  0.2151  0.5575 -0.1427
 5347TIP3    H137456   4.326   1.241   1.395  0.6087  1.5146  1.3738
 5347TIP3    H237457   4.350   1.383   1.350 -0.5641  0.5341 -2.8033
 5348TIP3   OH237458   1.666   5.208   3.762  0.2663  0.2576 -0.3118
 5348TIP3    H137459   1.749   5.242   3.795  0.3694 -1.1202  0.9452
 5348TIP3    H237460   1.600   5.269   3.795  0.6342  0.5015 -0.0214
 5349TIP3   OH237461   4.969   0.601   1.061  0.8404 -0.4694  0.7177
 5349TIP3    H137462   4.956   0.580   1.153  1.0502  0.2439  0.9182
 5349TIP3    H237463   4.903   0.667   1.042  0.1850 -1.2884  0.1030
 5350TIP3   OH237464   3.184   6.008   6.127  0.0860  0.6054 -0.6299
 5350TIP3    H137465   3.140   5.968   6.202  1.0870  1.8199  0.6711
 5350TIP3    H237466   3.113   6.048   6.077 -0.7498 -1.3217 -1.0905
 5351TIP3   OH237467   3.998   6.139   0.663  0.7937 -0.0678 -0.2820
 5351TIP3    H137468   4.001   6.226   0.623 -0.7427 -0.7087 -1.9952
 5351TIP3    H237469   4.088   6.107   0.659  0.9920  0.5787 -1.7575
 5352TIP3   OH237470   3.343   1.453  16.548 -0.5751 -0.3249  0.4453
 5352TIP3    H137471   3.362   1.405  16.468 -1.3069  0.9149 -0.5145
 5352TIP3    H237472   3.416   1.432  16.607  0.1641 -0.9663 -0.6714
 5353TIP3   OH237473   3.176   3.325   3.592 -0.4645  0.1083  0.3115
 5353TIP3    H137474   3.116   3.337   3.518 -0.4318 -0.2851  0.2200
 5353TIP3    H237475   3.138   3.378   3.662 -1.0565 -0.3306  0.3307
 5354TIP3   OH237476   5.011   6.026   4.715 -0.5590  0.0030  0.3108
 5354TIP3    H137477   5.092   6.022   4.664 -0.8878 -0.1988 -0.2091
 5354TIP3    H237478   4.993   5.935   4.739 -0.6116  0.0523  0.4607
 5355TIP3   OH237479   5.526   5.141  14.258  0.1339  0.6813  0.3576
 5355TIP3    H137480   5.471   5.076  14.302  0.3254  0.1962 -0.1078
 5355TIP3    H237481   5.535   5.108  14.168  0.0218  1.4870  0.0442
 5356TIP3   OH237482   2.860   2.594   3.564  0.7382 -0.6611 -0.3089
 5356TIP3    H137483   2.767   2.577   3.579  0.5614 -1.7192 -2.2555
 5356TIP3    H237484   2.861   2.665   3.500  1.2201 -1.4704 -1.2199
 5357TIP3   OH237485   1.566   0.541   2.659  0.1590  0.1128  0.2502
 5357TIP3    H137486   1.597   0.465   2.610  0.1758 -0.0216  0.4673
 5357TIP3    H237487   1.572   0.614   2.597 -1.7085 -0.3924 -0.5953
 5358TIP3   OH237488   3.446   1.125   4.610 -0.8797 -0.4199  0.5547
 5358TIP3    H137489   3.509   1.125   4.683 -1.2593 -1.3523  0.8970
 5358TIP3    H237490   3.477   1.055   4.553 -0.8083  0.0554  0.0048
 5359TIP3   OH237491   2.934   2.824  16.900  0.4449  0.0546  0.2803
 5359TIP3    H137492   2.855   2.833  16.847  0.0112  0.9400  1.0441
 5359TIP3    H237493   2.901   2.806  16.989  1.1007  0.3243  0.5816
 5360TIP3   OH237494   3.295   4.275  11.718  0.2393  0.0581 -0.0303
 5360TIP3    H137495   3.302   4.180  11.725 -0.1337 -0.0257 -0.6741
 5360TIP3    H237496   3.358   4.299  11.650 -0.6611  0.0897 -0.8937
 5361TIP3   OH237497   0.172   0.107   0.473 -0.2426 -0.4493  0.0462
 5361TIP3    H137498   0.157   0.078   0.563  0.6430 -0.2469  0.2662
 5361TIP3    H237499   0.093   0.156   0.451  0.4289  1.4038  1.5003
 5362TIP3   OH237500   5.988   2.030  13.682 -0.4695 -0.4804 -0.1091
 5362TIP3    H137501   6.034   2.052  13.763 -1.9809 -2.5566  1.4137
 5362TIP3    H237502   6.006   1.937  13.669 -1.0727 -0.4120 -1.6332
 5363TIP3   OH237503   5.910   2.092  12.205 -0.5317  0.3377  0.0916
 5363TIP3    H137504   5.849   2.061  12.138  1.0859 -0.3759 -1.1242
 5363TIP3    H237505   5.979   2.137  12.156  0.4636  0.2013  1.3094
 5364TIP3   OH237506   4.629   1.931   4.904  0.1284 -0.0500  0.3143
 5364TIP3    H137507   4.715   1.918   4.945  0.5358  1.1441 -0.1190
 5364TIP3    H237508   4.640   1.900   4.814  0.6104  1.5809 -0.2233
 5365TIP3   OH237509   3.182   3.005   6.145  0.1909 -0.6129  0.0021
 5365TIP3    H137510   3.102   2.980   6.099  0.5078 -1.9522  0.1387
 5365TIP3    H237511   3.253   2.974   6.088  0.5898 -2.5475  1.4271
 5366TIP3   OH237512   2.290   4.073  13.829  0.4461 -0.5517  0.3351
 5366TIP3    H137513   2.304   4.009  13.899  0.1543  0.1936  1.0904
 5366TIP3    H237514   2.322   4.030  13.750  2.0129 -0.9394  1.1311
 5367TIP3   OH237515   3.540   2.507  16.504 -0.6278 -0.0333 -0.5072
 5367TIP3    H137516   3.512   2.532  16.416 -2.4325 -2.0830 -0.5931
 5367TIP3    H237517   3.488   2.561  16.563 -2.0191 -1.1151 -0.7088
 5368TIP3   OH237518   4.976   0.782  12.259  0.1850 -0.5096 -0.4906
 5368TIP3    H137519   4.950   0.843  12.190 -0.8306 -0.5496 -0.1641
 5368TIP3    H237520   4.931   0.700  12.237  0.0982 -0.6108  0.0473
 5369TIP3   OH237521   3.023   4.180   4.642 -0.4533 -0.5660  0.0097
 5369TIP3    H137522   2.941   4.222   4.669 -0.1585 -0.0376  0.1087
 5369TIP3    H237523   3.086   4.253   4.636  0.2819 -1.0965  0.9578
 5370TIP3   OH237524   3.912   1.145  13.274  0.1456  0.5350  0.0044
 5370TIP3    H137525   4.002   1.156  13.243  0.6817 -0.8964  0.9780
 5370TIP3    H237526   3.920   1.127  13.367 -0.9499 -1.8094 -0.2781
 5371TIP3   OH237527   5.961   4.044  13.331 -0.2678 -0.2496 -0.2649
 5371TIP3    H137528   5.949   4.022  13.238 -1.2234  0.8116 -0.4207
 5371TIP3    H237529   5.968   4.140  13.332  1.5069 -0.3443  0.5945
 5372TIP3   OH237530   4.280   6.143  11.570  0.0469  0.4054  0.2046
 5372TIP3    H137531   4.375   6.155  11.570  0.7597 -3.6992  1.2096
 5372TIP3    H237532   4.266   6.064  11.518 -3.1376  1.9896 -1.6552
 5373TIP3   OH237533   0.301   1.757  11.968 -0.0792  0.1975  0.5119
 5373TIP3    H137534   0.275   1.717  11.885 -1.9568 -0.4307  1.3495
 5373TIP3    H237535   0.239   1.829  11.981  1.8154  2.0067  0.1581
 5374TIP3   OH237536   3.790   5.492  12.293  0.9044  0.0487 -0.3904
 5374TIP3    H137537   3.735   5.431  12.244  1.3845 -2.5971  2.0950
 5374TIP3    H237538   3.729   5.543  12.346  0.6525 -1.0280  0.3888
 5375TIP3   OH237539   2.467   3.815  15.529 -0.1024 -0.2261 -0.2981
 5375TIP3    H137540   2.513   3.848  15.452  2.5174  0.5587  1.4686
 5375TIP3    H237541   2.483   3.720  15.527 -0.9616 -0.3746 -1.2223
 5376TIP3   OH237542   4.712   1.266   0.129 -0.0606  0.2690  0.2516
 5376TIP3    H137543   4.677   1.325   0.062  0.4910  1.1654  0.7401
 5376TIP3    H237544   4.650   1.273   0.202  1.5595  2.6448  1.5268
 5377TIP3   OH237545   2.934   4.808  12.114  0.4488 -0.1068 -0.0367
 5377TIP3    H137546   3.028   4.790  12.113  0.6214  0.5293 -2.7909
 5377TIP3    H237547   2.926   4.899  12.087 -0.9693 -0.4660 -0.9534
 5378TIP3   OH237548   5.051   6.018   2.730  0.8421  0.2116  0.1300
 5378TIP3    H137549   4.984   5.959   2.767  2.2144 -0.3819  1.7800
 5378TIP3    H237550   5.133   5.989   2.770  1.9959  1.3997 -1.2839
 5379TIP3   OH237551   2.010   4.603   3.010  0.4278 -0.6342  0.0855
 5379TIP3    H137552   1.986   4.565   2.926  0.8161 -2.8782  0.9120
 5379TIP3    H237553   2.087   4.656   2.992  1.7832 -2.7339 -0.7156
 5380TIP3   OH237554   4.589   3.460   3.016  0.3661  0.6545 -0.2744
 5380TIP3    H137555   4.577   3.365   3.007  0.3242  0.6706 -0.3911
 5380TIP3    H237556   4.582   3.476   3.110  1.9921  0.3179 -0.0641
 5381TIP3   OH237557   4.710   4.522   0.064 -0.3797 -0.0823 -0.3347
 5381TIP3    H137558   4.700   4.553   0.154 -2.8411 -1.1870 -0.1410
 5381TIP3    H237559   4.756   4.439   0.072 -1.0780 -0.4456 -0.0220
 5382TIP3   OH237560   5.913   1.393  10.868  0.3885 -0.6983  0.0400
 5382TIP3    H137561   5.899   1.485  10.845  2.4808  0.1490  1.8759
 5382TIP3    H237562   5.966   1.358  10.796  0.5657 -0.1548 -0.0967
 5383TIP3   OH237563   4.055   1.099   2.885  0.0937  0.3847 -0.7317
 5383TIP3    H137564   4.138   1.132   2.921 -0.0914  0.7911 -0.6688
 5383TIP3    H237565   3.997   1.095   2.961  0.6517 -1.9149 -0.3636
 5384TIP3   OH237566   0.329   6.211  17.118 -0.2465  0.0718  0.0738
 5384TIP3    H137567   0.358   6.266  17.191 -0.2842 -1.4214  1.2578
 5384TIP3    H237568   0.410   6.180  17.078 -0.1525 -1.4915  1.3707
 5385TIP3   OH237569   6.548   1.198  16.476  1.2127  0.0678  0.3701
 5385TIP3    H137570   6.545   1.103  16.464  0.8624 -0.2199  2.4116
 5385TIP3    H237571   6.483   1.231  16.414 -0.7077 -1.2819  1.5441
 5386TIP3   OH237572   2.093   6.306  15.018 -0.2531  0.2929  0.1831
 5386TIP3    H137573   2.015   6.258  15.047 -0.1576 -0.1607 -0.2809
 5386TIP3    H237574   2.149   6.309  15.095 -1.0008  1.1977  0.7040
 5387TIP3   OH237575   4.358   4.166   4.762  0.1918  0.1342  0.3917
 5387TIP3    H137576   4.301   4.093   4.738  1.7404 -1.0554  0.1848
 5387TIP3    H237577   4.434   4.125   4.803  0.4040  1.7478  1.7306
 5388TIP3   OH237578   4.615   6.580   0.975 -0.5579 -0.1900 -0.1677
 5388TIP3    H137579   4.628   6.485   0.968  2.4889 -0.0620  1.8419
 5388TIP3    H237580   4.586   6.593   1.065 -0.8260  0.7893 -0.3911
 5389TIP3   OH237581   5.021   2.559   2.107  0.2003 -0.2935  0.2088
 5389TIP3    H137582   5.070   2.489   2.065 -0.1722 -0.6723  0.3905
 5389TIP3    H237583   5.087   2.613   2.150  0.6592  0.5547 -1.4916
 5390TIP3   OH237584   2.692   3.152   4.906 -0.2369 -0.2308 -0.5562
 5390TIP3    H137585   2.742   3.185   4.832  1.2326  1.6188  1.1302
 5390TIP3    H237586   2.605   3.193   4.897 -0.6834 -1.4444 -2.1390
 5391TIP3   OH237587   3.464   4.449   4.850 -0.2828  0.3138  0.0871
 5391TIP3    H137588   3.475   4.508   4.925 -0.0646 -0.2076  0.4718
 5391TIP3    H237589   3.390   4.394   4.875 -0.0002 -0.0789  0.0685
 5392TIP3   OH237590   5.856   6.525  16.985 -0.2727 -0.4158  0.6012
 5392TIP3    H137591   5.812   6.505  17.068  1.4165 -0.8404  1.4449
 5392TIP3    H237592   5.937   6.474  16.988  0.0495 -0.0658 -1.1155
 5393TIP3   OH237593   1.249   1.944  15.325  0.2932 -0.3389  0.2962
 5393TIP3    H137594   1.334   1.901  15.326  1.9754  2.5162 -2.0870
 5393TIP3    H237595   1.211   1.920  15.240 -1.6117 -1.9157  1.4899
 5394TIP3   OH237596   6.049   4.969   3.840 -1.4570  0.2542  0.4964
 5394TIP3    H137597   5.987   5.039   3.862 -2.3696 -0.1325 -0.7131
 5394TIP3    H237598   6.110   5.010   3.779 -0.4646  0.6450  1.7154
 5395TIP3   OH237599   5.286   6.479  16.275  0.3434  0.6960  0.0444
 5395TIP3    H137600   5.353   6.423  16.315 -1.3109 -1.5783 -0.1643
 5395TIP3    H237601   5.312   6.484  16.183 -0.0364 -0.6797 -0.1655
 5396TIP3   OH237602   0.152   3.652   3.642  0.1923  0.3179 -0.4631
 5396TIP3    H137603   0.117   3.691   3.562  0.7579  1.4920 -0.1590
 5396TIP3    H237604   0.087   3.672   3.710 -0.4354 -0.9379 -0.6606
 5397TIP3   OH237605   6.193   1.099   2.735  0.5382  0.1098  0.1688
 5397TIP3    H137606   6.108   1.134   2.761  0.0359  0.7105 -2.0079
 5397TIP3    H237607   6.183   1.004   2.737 -1.7027  0.0279 -4.0059
 5398TIP3   OH237608   3.819   4.235  13.772 -1.0550  0.5183 -0.1136
 5398TIP3    H137609   3.733   4.247  13.733 -0.9510 -0.4509 -0.6705
 5398TIP3    H237610   3.858   4.162  13.724 -0.5464 -0.0996  1.1779
 5399TIP3   OH237611   3.713   3.642   0.844 -0.3465 -0.6504 -0.3973
 5399TIP3    H137612   3.622   3.613   0.838 -1.1949  1.5186  0.7984
 5399TIP3    H237613   3.749   3.591   0.916 -1.4054  0.2029  0.7896
 5400TIP3   OH237614   2.084   3.378  13.015 -0.0190 -0.0123  0.4498
 5400TIP3    H137615   1.991   3.356  13.004  0.0571 -2.3589  3.3149
 5400TIP3    H237616   2.086   3.474  13.014 -2.3136  0.0897 -0.5135
 5401TIP3   OH237617   4.842   3.714  11.675 -0.0061 -0.5632 -0.7229
 5401TIP3    H137618   4.756   3.699  11.714  0.6200 -0.4900  0.7431
 5401TIP3    H237619   4.903   3.665  11.730  1.3105  2.1581  0.4445
 5402TIP3   OH237620   4.921   4.545   5.419 -0.3049 -0.0118 -0.1045
 5402TIP3    H137621   4.924   4.546   5.514  0.7606 -4.1074  0.0838
 5402TIP3    H237622   4.828   4.532   5.398 -0.5897  1.2434  0.2991
 5403TIP3   OH237623   3.718   1.442   4.710  0.1364 -0.3595 -0.0543
 5403TIP3    H137624   3.641   1.461   4.657  1.6462  1.5543 -1.7552
 5403TIP3    H237625   3.784   1.412   4.646  1.5963  0.6488  0.9179
 5404TIP3   OH237626   2.627   5.874   0.568 -0.2445 -0.2025  0.2774
 5404TIP3    H137627   2.704   5.833   0.530 -1.8028 -2.9504 -0.1254
 5404TIP3    H237628   2.646   5.879   0.661  0.4310 -0.8450  0.1812
 5405TIP3   OH237629   0.629   0.783   3.716  0.6220  0.3557  0.2205
 5405TIP3    H137630   0.666   0.768   3.803  1.2433  1.1991  0.1020
 5405TIP3    H237631   0.537   0.759   3.726  0.3135  1.9148  1.5315
 5406TIP3   OH237632   2.673   6.135   3.183  0.2208 -0.1161  0.1346
 5406TIP3    H137633   2.592   6.121   3.232 -0.9531  0.7227 -1.4694
 5406TIP3    H237634   2.721   6.199   3.234 -1.6586  1.8944 -0.4562
 5407TIP3   OH237635   2.215   0.102  11.607 -0.0873 -0.2740 -0.1875
 5407TIP3    H137636   2.288   0.073  11.662 -0.8576  0.0466  1.0413
 5407TIP3    H237637   2.142   0.046  11.633 -1.1166  1.4857  0.9084
 5408TIP3   OH237638   3.856   0.264   5.092  0.2416 -0.0572  0.1286
 5408TIP3    H137639   3.856   0.219   5.176  0.0593 -0.4245 -0.0652
 5408TIP3    H237640   3.908   0.209   5.035  0.1038  0.0286 -0.0843
 5409TIP3   OH237641   4.077   5.494  14.868 -0.8557  0.1952 -0.4439
 5409TIP3    H137642   4.001   5.444  14.897 -0.4946  0.0817  0.3484
 5409TIP3    H237643   4.119   5.440  14.802 -0.7107 -0.3544  0.0930
 5410TIP3   OH237644   5.644   6.530  15.931  1.0100 -0.2913  0.0826
 5410TIP3    H137645   5.715   6.481  15.890  1.2389 -0.5029  0.7203
 5410TIP3    H237646   5.682   6.562  16.014  0.3580 -0.4295  0.4371
 5411TIP3   OH237647   0.261   2.801   2.094 -0.3922  0.1190 -0.3399
 5411TIP3    H137648   0.350   2.793   2.060 -0.3812 -0.5551 -0.1636
 5411TIP3    H237649   0.238   2.893   2.078 -0.4067 -0.1572 -2.2202
 5412TIP3   OH237650   0.425   2.090   5.658  1.2208 -0.4225 -0.0698
 5412TIP3    H137651   0.375   2.098   5.576  0.8222  1.1107  0.2829
 5412TIP3    H237652   0.450   2.180   5.679  3.7444 -1.0785  0.0382
 5413TIP3   OH237653   2.196   4.796  13.457  0.0549 -0.1229  0.0404
 5413TIP3    H137654   2.214   4.841  13.374  1.1945  0.5248  0.6112
 5413TIP3    H237655   2.125   4.736  13.437  0.4624 -0.1398 -1.4758
 5414TIP3   OH237656   6.461   0.592  11.350 -0.4968 -0.2952  0.3353
 5414TIP3    H137657   6.384   0.603  11.294 -0.1191 -1.2815 -0.4147
 5414TIP3    H237658   6.516   0.668  11.331 -0.7349 -0.2187 -0.0502
 5415TIP3   OH237659   0.215   2.296  11.465 -0.2918  0.0379 -0.3206
 5415TIP3    H137660   0.119   2.297  11.470 -0.6285 -2.2520 -3.3238
 5415TIP3    H237661   0.238   2.204  11.472  1.6385  0.4767 -0.4545
 5416TIP3   OH237662   3.361   3.482  10.814 -0.4556 -0.2014 -0.2458
 5416TIP3    H137663   3.320   3.484  10.728 -0.4866 -0.0964 -0.2282
 5416TIP3    H237664   3.378   3.574  10.835 -1.1077 -0.1729  0.1809
 5417TIP3   OH237665   1.618   3.839  12.164  0.3117  0.1026 -0.1756
 5417TIP3    H137666   1.568   3.760  12.184  0.5840 -0.1997 -0.6488
 5417TIP3    H237667   1.574   3.878  12.089 -0.1877  0.7484  0.4383
 5418TIP3   OH237668   5.849   0.384   5.737  0.3939 -0.2053 -0.4962
 5418TIP3    H137669   5.850   0.289   5.726  0.8927 -0.1465 -0.9723
 5418TIP3    H237670   5.817   0.397   5.827  1.1627 -0.8418 -0.1165
 5419TIP3   OH237671   1.759   2.115   5.353 -0.3857  0.1030 -0.0083
 5419TIP3    H137672   1.759   2.019   5.359 -1.6037  0.0644 -0.3056
 5419TIP3    H237673   1.739   2.144   5.442  2.2175  0.1841  0.6253
 5420TIP3   OH237674   4.661   4.762  12.034  0.1394 -0.4366 -0.6096
 5420TIP3    H137675   4.596   4.719  12.090 -0.0065 -0.4725 -0.8040
 5420TIP3    H237676   4.687   4.695  11.971 -0.3011 -0.1632 -1.0935
 5421TIP3   OH237677   3.881   2.769   3.402  0.5112  0.1335  0.1250
 5421TIP3    H137678   3.945   2.709   3.362  1.7889  0.9905  0.8144
 5421TIP3    H237679   3.809   2.773   3.340  2.3530  1.3161 -2.0669
 5422TIP3   OH237680   0.926   2.126  14.195 -0.1823  0.2837 -0.5624
 5422TIP3    H137681   0.964   2.158  14.277 -1.1598 -0.0684  0.0525
 5422TIP3    H237682   0.995   2.073  14.155  0.2583  0.3405  0.1089
 5423TIP3   OH237683   1.596   5.539  12.185 -0.1688 -0.1026 -0.3724
 5423TIP3    H137684   1.502   5.541  12.204  0.0078  1.1534  0.4479
 5423TIP3    H237685   1.631   5.617  12.228  1.2263 -0.4537 -0.8309
 5424TIP3   OH237686   6.255   0.074  11.360 -0.0358 -0.4215  0.1633
 5424TIP3    H137687   6.337   0.119  11.339  0.9164 -2.4705 -0.7266
 5424TIP3    H237688   6.224   0.040  11.277 -1.7782  0.2175  0.5049
 5425TIP3   OH237689   2.919   0.752   5.605  0.9297 -0.1444 -0.0555
 5425TIP3    H137690   2.978   0.816   5.564  0.7802  0.1050  0.1193
 5425TIP3    H237691   2.831   0.782   5.581  0.8374  0.0641  0.5432
 5426TIP3   OH237692   0.795   1.127  15.322  0.3342 -0.1541  0.4751
 5426TIP3    H137693   0.832   1.148  15.236 -0.1630 -0.5159  0.1689
 5426TIP3    H237694   0.868   1.087  15.370  0.1587 -1.5771 -0.3862
 5427TIP3   OH237695   3.247   2.047  14.590  0.2769 -0.3459 -0.0890
 5427TIP3    H137696   3.238   1.971  14.646  3.8819 -1.3862 -0.6390
 5427TIP3    H237697   3.223   2.016  14.503  1.9335 -1.0166 -0.3487
 5428TIP3   OH237698   3.471   2.833   2.210 -0.0305 -0.1080 -0.2551
 5428TIP3    H137699   3.512   2.852   2.294  0.7627 -1.3082 -0.3401
 5428TIP3    H237700   3.381   2.807   2.233  0.6028 -1.8670  0.4040
 5429TIP3   OH237701   6.229   3.398  11.119 -0.2556  0.2860 -0.3183
 5429TIP3    H137702   6.222   3.489  11.088 -1.3981  0.4266  0.2910
 5429TIP3    H237703   6.295   3.359  11.063  0.7238  1.6705 -0.1822
 5430TIP3   OH237704   6.654   4.768  16.466  0.1536 -0.1531 -0.4403
 5430TIP3    H137705   6.673   4.829  16.395 -0.3462  0.2288 -0.2505
 5430TIP3    H237706   6.684   4.813  16.545 -1.8487  0.6497 -0.0804
 5431TIP3   OH237707   3.422   5.119  11.999 -0.1792 -0.1508 -0.0493
 5431TIP3    H137708   3.465   5.200  11.972 -1.9029  0.9067  0.2352
 5431TIP3    H237709   3.369   5.143  12.075 -0.7611 -1.5415  0.0244
 5432TIP3   OH237710   2.073   2.285  12.407  0.8650 -0.2726  0.1348
 5432TIP3    H137711   2.155   2.325  12.437  0.6598 -0.6161  1.1896
 5432TIP3    H237712   2.056   2.214  12.469 -0.7120  0.3728  0.5042
 5433TIP3   OH237713   3.560   2.336  11.226  0.2833 -0.1026  0.1585
 5433TIP3    H137714   3.471   2.307  11.208 -0.3465  1.5570  0.4082
 5433TIP3    H237715   3.574   2.317  11.318 -0.8947  2.1749  0.8686
 5434TIP3   OH237716   6.159   6.500  11.731 -0.0714 -0.1080  0.8238
 5434TIP3    H137717   6.179   6.517  11.639 -1.0548 -1.5675  0.3063
 5434TIP3    H237718   6.183   6.581  11.776  2.5713 -0.1311 -0.3670
 5435TIP3   OH237719   4.087   5.087  14.975  0.0841  0.0547 -0.0505
 5435TIP3    H137720   4.001   5.049  14.996  0.2315  0.0836  0.6084
 5435TIP3    H237721   4.070   5.181  14.965 -0.1413 -0.0656 -0.9375
 5436TIP3   OH237722   5.798   4.774   0.204 -0.0031  0.1686 -0.0451
 5436TIP3    H137723   5.704   4.791   0.214  0.0569  1.6013 -1.5442
 5436TIP3    H237724   5.802   4.683   0.173 -0.8330 -0.1932  0.8530
 5437TIP3   OH237725   1.667   6.213   6.745 -0.5550 -0.3594 -0.8576
 5437TIP3    H137726   1.672   6.135   6.800 -0.1824 -0.7746 -1.4561
 5437TIP3    H237727   1.578   6.212   6.710 -0.7188 -0.2218 -0.4467
 5438TIP3   OH237728   3.488   1.397  16.178  0.1913  0.1801  0.2066
 5438TIP3    H137729   3.495   1.374  16.086  1.1615 -1.1493  0.5848
 5438TIP3    H237730   3.395   1.386  16.198  0.0750 -0.1308 -0.4787
 5439TIP3   OH237731   6.356   3.883  16.354  0.5688 -0.1460 -0.3941
 5439TIP3    H137732   6.264   3.864  16.371  0.6970  0.2944  0.8887
 5439TIP3    H237733   6.356   3.968  16.310  0.4245  0.5448  0.8987
 5440TIP3   OH237734   4.618   3.332  14.247  0.1239  1.6103 -0.6539
 5440TIP3    H137735   4.645   3.390  14.176  0.9175  1.5524 -0.4096
 5440TIP3    H237736   4.700   3.296  14.282 -0.2506  1.5977  0.2525
 5441TIP3   OH237737   1.170   2.985  16.309 -0.2113 -0.1167 -0.2211
 5441TIP3    H137738   1.237   2.930  16.269  0.7368  2.1779 -2.0670
 5441TIP3    H237739   1.195   2.991  16.401  0.9003 -1.0097 -0.4451
 5442TIP3   OH237740   0.184   0.326   0.746  0.0942 -0.3285  0.6524
 5442TIP3    H137741   0.208   0.405   0.795  0.0673  2.9869 -3.9765
 5442TIP3    H237742   0.088   0.329   0.741  0.1558  1.3682 -1.9964
 5443TIP3   OH237743   1.910   2.188   5.135 -0.5989  0.3872 -0.1227
 5443TIP3    H137744   1.971   2.258   5.159 -1.0846  0.0704  2.3101
 5443TIP3    H237745   1.863   2.169   5.216  0.0126 -3.2919 -0.4749
 5444TIP3   OH237746   0.112   6.765  15.332  0.5503 -0.3530  0.2171
 5444TIP3    H137747   0.140   6.828  15.266  6.6557 -2.1511  0.4714
 5444TIP3    H237748   0.079   6.819  15.404  0.0710  2.0383 -1.6493
 5445TIP3   OH237749   0.816   4.669   5.480 -0.1734  0.1802  0.3365
 5445TIP3    H137750   0.779   4.750   5.517  0.8331  1.6064 -1.6086
 5445TIP3    H237751   0.875   4.637   5.548 -1.7925  0.1491  1.7998
 5446TIP3   OH237752   3.460   1.981   0.474 -0.3260  0.4820  0.3893
 5446TIP3    H137753   3.378   2.032   0.476 -0.8742 -0.3889  0.5671
 5446TIP3    H237754   3.509   2.019   0.401 -1.8735 -0.4533 -1.2036
 5447TIP3   OH237755   4.810   4.214  17.081 -0.4620 -0.3474 -0.1022
 5447TIP3    H137756   4.840   4.125  17.064  4.1976  1.0827 -0.7344
 5447TIP3    H237757   4.759   4.237  17.004 -0.1058 -1.8649 -0.8416
 5448TIP3   OH237758   0.609   4.037   4.672  0.1396 -0.3349 -0.0429
 5448TIP3    H137759   0.642   4.112   4.623 -0.6013 -0.5000 -0.8122
 5448TIP3    H237760   0.687   4.000   4.713  0.5451  0.7081  0.1550
 5449TIP3   OH237761   0.074   2.410   2.245 -0.2343 -0.1411  0.1568
 5449TIP3    H137762   0.090   2.465   2.168 -1.2839 -0.2775 -0.1708
 5449TIP3    H237763   0.104   2.323   2.218  0.6631  0.0834  0.3899
 5450TIP3   OH237764   4.762   4.892   1.492 -0.1210  0.3280 -0.1211
 5450TIP3    H137765   4.769   4.890   1.588  0.8490 -2.4669 -0.1629
 5450TIP3    H237766   4.795   4.979   1.468 -1.1588  1.4194  2.0858
 5451TIP3   OH237767   3.706   5.599   1.233 -0.4528  0.1407  0.1673
 5451TIP3    H137768   3.712   5.503   1.223 -1.8170  0.0899 -0.3869
 5451TIP3    H237769   3.768   5.620   1.303 -0.9883 -1.2897  1.1067
 5452TIP3   OH237770   1.774   4.478   4.460 -0.6213  0.2328  0.1423
 5452TIP3    H137771   1.815   4.565   4.463  0.6068 -0.1925 -2.0020
 5452TIP3    H237772   1.820   4.428   4.527 -0.1232  0.7646  0.2073
 5453TIP3   OH237773   3.872   4.883   5.746  0.3647  0.2779 -0.2219
 5453TIP3    H137774   3.828   4.859   5.828 -2.2757 -1.3046 -1.9480
 5453TIP3    H237775   3.938   4.815   5.733  3.4690  2.5426  2.2790
 5454TIP3   OH237776   5.470   0.616   5.263 -0.1693  0.2849 -0.2214
 5454TIP3    H137777   5.452   0.534   5.218  2.1514  0.0235 -0.8080
 5454TIP3    H237778   5.431   0.684   5.207 -0.2104 -0.2713 -0.8749
 5455TIP3   OH237779   3.416   4.623   0.882 -0.3294 -0.2026  0.0098
 5455TIP3    H137780   3.387   4.550   0.828 -0.8492 -0.4874  0.6597
 5455TIP3    H237781   3.384   4.602   0.970 -1.0841  1.1270  0.0795
 5456TIP3   OH237782   3.852   0.395  11.976  0.1113 -0.4661 -0.1630
 5456TIP3    H137783   3.880   0.327  11.915 -1.1800  0.0758 -1.4072
 5456TIP3    H237784   3.757   0.387  11.980 -0.0501  1.0561 -0.1005
 5457TIP3   OH237785   4.933   6.707  12.359  1.0426  0.2170  0.1929
 5457TIP3    H137786   4.899   6.795  12.342 -0.5099 -0.6297 -1.3001
 5457TIP3    H237787   4.879   6.674  12.432  1.4465  0.3900  0.5745
 5458TIP3   OH237788   3.733   4.010   6.198 -0.2761  0.2430  0.5339
 5458TIP3    H137789   3.671   4.082   6.185  0.3058  0.8838  1.2415
 5458TIP3    H237790   3.819   4.051   6.191  0.1059 -0.7001 -0.8018
 5459TIP3   OH237791   5.711   3.155   5.407 -0.5430  0.0941 -0.0860
 5459TIP3    H137792   5.719   3.086   5.473  0.5402 -0.8106 -1.1267
 5459TIP3    H237793   5.738   3.235   5.453  2.2335 -0.8236  0.1077
 5460TIP3   OH237794   1.774   1.134   1.524 -0.1757  0.2103 -0.1880
 5460TIP3    H137795   1.741   1.147   1.435 -1.1885  1.7010  0.3534
 5460TIP3    H237796   1.841   1.067   1.516 -2.7851 -2.4338 -1.5208
 5461TIP3   OH237797   5.772   4.957   6.689 -0.4751  0.6003  0.0220
 5461TIP3    H137798   5.790   4.944   6.782 -1.7682  0.5659  0.2919
 5461TIP3    H237799   5.779   4.870   6.651 -3.0310  0.0176  0.6969
 5462TIP3   OH237800   4.798   2.272   4.800 -0.2024  0.2564 -0.2701
 5462TIP3    H137801   4.710   2.236   4.808 -0.1577  0.4793  2.0119
 5462TIP3    H237802   4.784   2.365   4.784 -0.3776  0.2383 -0.2275
 5463TIP3   OH237803   0.487   3.520  15.191  0.2348  0.3179  0.0034
 5463TIP3    H137804   0.522   3.550  15.108 -2.5996  0.8389 -1.1256
 5463TIP3    H237805   0.487   3.424  15.185 -1.0152  0.3587 -1.1539
 5464TIP3   OH237806   0.336   6.276  14.994 -0.2314  0.4550 -0.2279
 5464TIP3    H137807   0.427   6.279  15.024 -0.4457 -0.2632  0.5094
 5464TIP3    H237808   0.283   6.280  15.074 -0.8320 -0.1062 -0.5867
 5465TIP3   OH237809   2.654   0.927  14.974 -0.6502 -0.3091  0.2989
 5465TIP3    H137810   2.712   0.988  15.020 -1.8909 -0.2605  1.9003
 5465TIP3    H237811   2.660   0.846  15.024 -1.8735 -0.3272  0.4351
 5466TIP3   OH237812   5.820   2.810  15.145  0.3602 -0.4513  0.1963
 5466TIP3    H137813   5.868   2.736  15.107 -0.0771 -1.1700  1.0026
 5466TIP3    H237814   5.885   2.880  15.151  1.0087 -1.0336  0.1905
 5467TIP3   OH237815   5.801   0.449  16.236 -0.6171  0.0632  0.6594
 5467TIP3    H137816   5.719   0.406  16.209 -1.2683  0.7108  1.5806
 5467TIP3    H237817   5.849   0.460  16.154 -1.4425 -0.3370  0.1023
 5468TIP3   OH237818   5.746   2.095   0.128 -0.0480  0.0270  0.3390
 5468TIP3    H137819   5.833   2.135   0.132 -0.7461  1.5460  2.0350
 5468TIP3    H237820   5.686   2.167   0.147 -1.5431 -1.4148  1.3421
 5469TIP3   OH237821   1.212   4.392   1.272 -0.2988 -0.2350 -0.1982
 5469TIP3    H137822   1.283   4.447   1.240  2.0381 -0.8416  3.3708
 5469TIP3    H237823   1.244   4.303   1.262 -1.7041 -0.6863 -0.8810
 5470TIP3   OH237824   0.839   5.566   2.253  0.2601 -0.0667 -0.2853
 5470TIP3    H137825   0.781   5.626   2.300  1.9909  1.1949  0.3536
 5470TIP3    H237826   0.806   5.568   2.163  0.4707  2.2290 -0.3833
 5471TIP3   OH237827   6.248   5.034   5.764 -0.0820  0.4295 -0.4652
 5471TIP3    H137828   6.243   5.037   5.860 -0.1560  2.7592 -0.4849
 5471TIP3    H237829   6.157   5.032   5.735 -0.0542 -0.7568 -0.5034
 5472TIP3   OH237830   4.639   1.438   4.787 -0.1502  0.1702 -0.3499
 5472TIP3    H137831   4.663   1.406   4.873 -0.4797 -0.0532 -0.3371
 5472TIP3    H237832   4.568   1.500   4.803 -1.3466 -1.0921 -0.5751
 5473TIP3   OH237833   6.554   2.503   5.229 -0.5609  0.1313 -0.2380
 5473TIP3    H137834   6.617   2.447   5.184  0.7313  2.1992 -1.1492
 5473TIP3    H237835   6.599   2.529   5.310 -1.6570 -1.1053  0.8110
 5474TIP3   OH237836   3.179   3.311  16.022  0.1597 -0.3729 -0.7586
 5474TIP3    H137837   3.213   3.369  15.954  0.1994 -0.6576 -0.9843
 5474TIP3    H237838   3.256   3.266  16.055  0.0417 -0.8111 -1.0725
 5475TIP3   OH237839   2.570   1.921  15.961  0.7396  0.4180  0.2622
 5475TIP3    H137840   2.647   1.867  15.946  1.2557  0.9097  1.0870
 5475TIP3    H237841   2.605   2.010  15.967  0.0049  0.7470 -0.2277
 5476TIP3   OH237842   2.919   5.681  11.825 -0.0585 -0.3795  0.2486
 5476TIP3    H137843   2.841   5.712  11.779 -0.9981 -0.2078  1.8612
 5476TIP3    H237844   2.907   5.712  11.915  2.2649  0.3293  0.3670
 5477TIP3   OH237845   4.841   5.499  12.140  0.3461 -0.0041 -0.4517
 5477TIP3    H137846   4.903   5.533  12.077  1.3009  1.5899  1.2486
 5477TIP3    H237847   4.843   5.404  12.128  2.2410  0.1020 -1.2166
 5478TIP3   OH237848   2.468   5.697  16.565  0.0801  0.2384  0.0925
 5478TIP3    H137849   2.482   5.616  16.614  1.9660 -0.0529 -0.8123
 5478TIP3    H237850   2.387   5.732  16.600  1.1417 -0.0619  3.2433
 5479TIP3   OH237851   1.930   6.679  13.611 -0.0617  0.3208 -0.2037
 5479TIP3    H137852   1.899   6.765  13.585 -0.2541 -0.2032 -1.8132
 5479TIP3    H237853   2.013   6.669  13.565 -0.8576 -1.0004 -1.4588
 5480TIP3   OH237854   4.070   0.815   3.825  0.4885  0.3372 -0.1575
 5480TIP3    H137855   3.989   0.811   3.774 -0.2246  2.0844  0.7864
 5480TIP3    H237856   4.120   0.739   3.794 -0.3167  0.7295 -2.7364
 5481TIP3   OH237857   0.663   2.991   3.483  0.1119 -0.4123  0.4530
 5481TIP3    H137858   0.722   3.066   3.472 -0.2506 -0.0449  0.9628
 5481TIP3    H237859   0.719   2.923   3.522  0.8956 -1.0501 -1.6446
 5482TIP3   OH237860   1.878   1.757  11.947  0.3423  0.1875 -0.1268
 5482TIP3    H137861   1.800   1.804  11.919  0.3025 -0.1361 -0.5563
 5482TIP3    H237862   1.858   1.665  11.932  0.3758  0.0159  0.8264
 5483TIP3   OH237863   4.855   6.784   3.588  0.0330  0.5654  0.3234
 5483TIP3    H137864   4.910   6.857   3.614  1.4729 -0.6517  0.8802
 5483TIP3    H237865   4.834   6.738   3.669 -1.7068  0.9050  0.1018
 5484TIP3   OH237866   2.830   2.167   2.272 -0.2183 -0.4604  0.3899
 5484TIP3    H137867   2.862   2.255   2.252  0.5888 -0.8257  0.0036
 5484TIP3    H237868   2.899   2.109   2.239  0.4852 -1.1632  2.9338
 5485TIP3   OH237869   5.702   0.639  16.398 -0.6133  0.2511 -0.3192
 5485TIP3    H137870   5.735   0.700  16.332  2.2483  0.7115  1.3819
 5485TIP3    H237871   5.748   0.557  16.380  0.0523  0.3306  0.9317
 5486TIP3   OH237872   1.482   4.048   5.812 -0.0934  0.3377 -0.3384
 5486TIP3    H137873   1.562   4.087   5.846 -0.3894 -1.1445  2.2944
 5486TIP3    H237874   1.416   4.117   5.821  0.5172  1.0222 -0.9886
 5487TIP3   OH237875   0.038   0.576   1.782 -0.0564  0.4854 -0.2158
 5487TIP3    H137876  -0.049   0.539   1.796  0.7415 -1.5548 -0.3119
 5487TIP3    H237877   0.043   0.650   1.842 -0.0445 -2.4396  3.8031
 5488TIP3   OH237878   3.901   5.071   5.134  0.1851  0.1624 -0.3212
 5488TIP3    H137879   3.873   5.028   5.215  2.2033 -1.6761 -0.4981
 5488TIP3    H237880   3.908   5.164   5.158 -2.1654  0.1379  0.7097
 5489TIP3   OH237881   3.780   1.380   2.020  0.1798  0.0707  0.3596
 5489TIP3    H137882   3.731   1.406   1.941  1.7035  0.3307 -0.5458
 5489TIP3    H237883   3.764   1.450   2.082  1.1998  1.3378 -0.7372
 5490TIP3   OH237884   0.864   5.890   5.334 -0.2909 -0.3565  0.4157
 5490TIP3    H137885   0.849   5.880   5.240  0.3052 -1.4520  0.4244
 5490TIP3    H237886   0.796   5.950   5.363  1.4989  2.7288 -1.2930
 5491TIP3   OH237887   4.937   5.753   0.559 -0.6431  0.8050  0.0812
 5491TIP3    H137888   4.858   5.738   0.506 -0.7118  0.1078  0.3709
 5491TIP3    H237889   4.952   5.670   0.604  0.0637  1.0410  0.2954
 5492TIP3   OH237890   0.453   3.134  14.850  0.2522  0.5143 -0.1848
 5492TIP3    H137891   0.389   3.135  14.921  0.7050  3.2672  0.2933
 5492TIP3    H237892   0.504   3.055  14.865 -1.0411 -0.0894  1.2743
 5493TIP3   OH237893   0.626   5.019  13.212  0.2093  0.2612 -0.5698
 5493TIP3    H137894   0.667   5.062  13.137  2.7839  0.3879  0.8227
 5493TIP3    H237895   0.671   5.054  13.288 -0.2602 -2.0390  0.8711
 5494TIP3   OH237896   2.781   1.101  16.501  0.3798 -0.0397 -0.6314
 5494TIP3    H137897   2.707   1.160  16.486 -1.3357 -1.9585 -0.2147
 5494TIP3    H237898   2.837   1.147  16.563 -0.8928  1.1532 -0.3202
 5495TIP3   OH237899   1.680   2.782  13.189 -0.1148 -0.6674  0.4651
 5495TIP3    H137900   1.607   2.767  13.249 -0.1139 -1.1710  0.3459
 5495TIP3    H237901   1.758   2.765  13.241 -0.0899 -0.3872  0.5203
 5496TIP3   OH237902   1.556   3.453  11.997  0.3157 -0.6594 -0.2669
 5496TIP3    H137903   1.595   3.389  12.057 -1.8825 -1.8111  0.0789
 5496TIP3    H237904   1.580   3.422  11.910  2.2626  0.1494 -0.0502
 5497TIP3   OH237905   5.630   3.158   0.089 -0.0213  0.3557  0.0995
 5497TIP3    H137906   5.596   3.070   0.073 -0.5023  0.3278  1.1719
 5497TIP3    H237907   5.673   3.183   0.007  1.0195 -1.2774  0.0989
 5498TIP3   OH237908   3.955   4.608  14.915 -0.2639 -0.0839  0.3854
 5498TIP3    H137909   3.918   4.637  14.998  0.0025 -0.0147  0.4802
 5498TIP3    H237910   4.020   4.675  14.893 -0.2740 -0.1457  0.1641
 5499TIP3   OH237911   5.508   6.206   0.559 -0.5258  0.0997  0.1670
 5499TIP3    H137912   5.436   6.155   0.520 -0.9229  0.5930  0.2419
 5499TIP3    H237913   5.571   6.216   0.488 -0.4824 -0.4240  0.1267
 5500TIP3   OH237914   4.277   6.701  13.630 -0.3665 -0.5780  0.5037
 5500TIP3    H137915   4.295   6.792  13.654 -1.1628 -0.3185  0.1784
 5500TIP3    H237916   4.198   6.678  13.679 -1.1149 -0.5439 -0.6374
 5501TIP3   OH237917   4.843   2.189   0.696 -0.3776  1.2877 -0.2543
 5501TIP3    H137918   4.923   2.205   0.746 -1.3028  0.7593  1.4901
 5501TIP3    H237919   4.848   2.249   0.622  0.9407  2.3163  0.6277
 5502TIP3   OH237920   0.358   1.638  14.192 -0.4720 -0.0462  0.1316
 5502TIP3    H137921   0.426   1.677  14.247 -1.9396 -1.4801  3.2485
 5502TIP3    H237922   0.295   1.709  14.178 -0.3313  0.2223  0.8070
 5503TIP3   OH237923   4.253   0.156   0.966  0.4744 -0.0566 -0.4148
 5503TIP3    H137924   4.246   0.078   0.910  2.0876 -0.4158 -0.1518
 5503TIP3    H237925   4.214   0.226   0.914 -0.8483 -0.9736 -0.7352
 5504TIP3   OH237926   4.085   2.085   3.706 -0.0697 -0.4761 -0.9746
 5504TIP3    H137927   4.172   2.045   3.702 -0.5458 -1.8618  1.0265
 5504TIP3    H237928   4.100   2.172   3.744  0.5905 -0.0899 -2.0888
 5505TIP3   OH237929   2.479   2.698   0.622 -0.6743 -0.4427  0.5462
 5505TIP3    H137930   2.553   2.696   0.684 -1.3880 -1.1310  1.4120
 5505TIP3    H237931   2.484   2.614   0.577  0.1202  0.2454 -0.7115
 5506TIP3   OH237932   1.125   4.110  15.443  0.4163 -0.2312  0.0453
 5506TIP3    H137933   1.033   4.137  15.446  0.3786 -0.1897 -1.1220
 5506TIP3    H237934   1.173   4.183  15.482  0.0258  0.1184 -0.1205
 5507TIP3   OH237935   1.842   0.314   4.881 -0.1912 -0.2794  0.0760
 5507TIP3    H137936   1.848   0.234   4.934  1.7384 -1.1852 -1.3645
 5507TIP3    H237937   1.930   0.325   4.845 -0.6024  2.1208 -0.3620
 5508TIP3   OH237938   1.925   6.056  14.342 -0.1483 -0.1290  0.6416
 5508TIP3    H137939   1.870   6.082  14.268  0.0414  0.0503  0.5617
 5508TIP3    H237940   1.881   5.980  14.379  0.7717 -1.4427 -0.8367
 5509TIP3   OH237941   3.753   4.255  12.399 -0.6094  0.0227  0.0010
 5509TIP3    H137942   3.770   4.163  12.420 -2.8390 -0.3379  0.4525
 5509TIP3    H237943   3.659   4.259  12.383 -0.4752  2.1426 -0.5246
 5510TIP3   OH237944   2.858   5.491   2.073  0.4115  0.1046  0.8601
 5510TIP3    H137945   2.913   5.417   2.047 -0.6385 -0.2935 -0.2913
 5510TIP3    H237946   2.768   5.458   2.068  0.0034  0.9884  1.8971
 5511TIP3   OH237947   1.639   4.023  14.971  0.2071 -0.3634 -0.6462
 5511TIP3    H137948   1.614   3.986  15.056  0.6886 -1.5994 -1.0332
 5511TIP3    H237949   1.699   4.095  14.993  0.7210 -0.9954  0.0446
 5512TIP3   OH237950   4.004   1.311  11.001 -0.3318 -0.0023 -0.7247
 5512TIP3    H137951   4.075   1.314  10.937 -0.5222  0.4821 -0.9268
 5512TIP3    H237952   3.975   1.220  11.001 -0.1357 -0.0695 -1.1182
 5513TIP3   OH237953   4.082   1.819  12.592  0.4996 -0.4268  0.2693
 5513TIP3    H137954   3.997   1.786  12.562 -0.3824  0.4742  1.6107
 5513TIP3    H237955   4.064   1.910  12.617  1.4558 -0.6848  2.0853
 5514TIP3   OH237956   1.153   2.413   1.756 -0.2685  0.0708 -0.2038
 5514TIP3    H137957   1.073   2.437   1.709 -0.7328  1.0050  1.0156
 5514TIP3    H237958   1.223   2.451   1.705 -0.4558 -1.7437 -1.9426
 5515TIP3   OH237959   5.628   6.466   2.930 -0.5225 -0.3956  0.1286
 5515TIP3    H137960   5.599   6.380   2.958  0.6888 -1.1322 -0.7943
 5515TIP3    H237961   5.691   6.494   2.997  0.1611 -0.8750 -0.2966
 5516TIP3   OH237962   3.559   2.040  15.011  0.0051  0.0047  0.7180
 5516TIP3    H137963   3.511   1.962  14.984 -0.7736  1.1341 -1.3986
 5516TIP3    H237964   3.571   2.030  15.106 -0.6188 -2.3393  0.6032
 5517TIP3   OH237965   6.360   3.656  13.565  0.2042  0.2553  0.1991
 5517TIP3    H137966   6.281   3.709  13.557  0.4186  0.3272 -2.5307
 5517TIP3    H237967   6.328   3.570  13.592 -0.8830  0.2106 -1.1083
 5518TIP3   OH237968   2.779   2.703   2.451  0.0748  0.0656 -0.0285
 5518TIP3    H137969   2.787   2.613   2.483  0.4138 -0.0690 -0.4891
 5518TIP3    H237970   2.684   2.717   2.445  0.0146 -0.0632  0.5884
 5519TIP3   OH237971   3.997   2.709  15.345  0.0519 -0.7120  0.2510
 5519TIP3    H137972   4.092   2.701  15.347 -0.0392 -1.8143  1.5078
 5519TIP3    H237973   3.965   2.620  15.361 -1.1984 -0.4411 -0.6046
 5520TIP3   OH237974   6.037   2.982   5.998 -0.5206 -0.7486 -0.4025
 5520TIP3    H137975   6.008   3.040   6.068 -1.3344 -0.5896 -0.8581
 5520TIP3    H237976   5.987   2.901   6.011  0.1863 -1.1530 -0.1134
 5521TIP3   OH237977   0.625   3.656   6.377  0.0762 -0.5303  0.2549
 5521TIP3    H137978   0.553   3.615   6.329 -0.2972 -0.6526  0.9110
 5521TIP3    H237979   0.690   3.676   6.310  1.1167 -3.8675  0.0551
 5522TIP3   OH237980   2.141   1.399  16.314 -0.8671 -0.2253  0.0716
 5522TIP3    H137981   2.145   1.445  16.398 -1.5094  1.2389 -0.6673
 5522TIP3    H237982   2.047   1.389  16.297 -0.7613  0.3377 -0.9093
 5523TIP3   OH237983   4.138   4.442  11.292  0.0778 -0.3568 -0.1019
 5523TIP3    H137984   4.157   4.530  11.261  3.1201 -0.6980  0.4238
 5523TIP3    H237985   4.110   4.454  11.383  2.1620  0.0744  0.5513
 5524TIP3   OH237986   1.497   2.380  12.949 -0.4943 -0.2739  0.3757
 5524TIP3    H137987   1.525   2.374  12.858  2.3354 -1.1435  1.1903
 5524TIP3    H237988   1.525   2.468  12.976 -2.3005  0.4033  0.1774
 5525TIP3   OH237989   6.048   0.255  13.314  0.6147  0.2843  0.0216
 5525TIP3    H137990   6.001   0.312  13.253  1.5677  1.3007  0.2189
 5525TIP3    H237991   6.086   0.314  13.378  1.4955 -0.5839  0.3221
 5526TIP3   OH237992   0.431   3.468  14.664 -0.3796 -0.2589  0.3193
 5526TIP3    H137993   0.512   3.519  14.672 -0.5556 -0.2264  2.2848
 5526TIP3    H237994   0.361   3.534  14.669 -0.5703 -0.3100 -1.1664
 5527TIP3   OH237995   0.812   6.642   1.765 -0.0189 -0.0678  0.2530
 5527TIP3    H137996   0.787   6.590   1.688 -0.4778 -0.3188  0.5653
 5527TIP3    H237997   0.818   6.579   1.836  0.1333  0.2035  0.4847
 5528TIP3   OH237998   6.130   0.275  14.321  0.3336 -0.4996  0.1705
 5528TIP3    H137999   6.119   0.369  14.334  0.3645 -0.2172 -1.6136
 5528TIP3    H238000   6.196   0.250  14.385  1.6316  1.0528 -0.4727
 5529TIP3   OH238001   2.919   3.077  10.516  0.2133 -0.2040  0.4959
 5529TIP3    H138002   2.887   3.135  10.446  2.5710 -0.7992 -1.2165
 5529TIP3    H238003   2.857   3.090  10.588 -1.6989  1.3126 -1.2763
 5530TIP3   OH238004   2.807   1.194   1.754 -0.5758  0.4405 -0.2550
 5530TIP3    H138005   2.805   1.262   1.687 -0.1450  0.7881  0.0752
 5530TIP3    H238006   2.891   1.207   1.798 -0.6073 -0.1384 -0.0132
 5531TIP3   OH238007   0.678   6.452   5.585  0.6933  0.5682 -0.3697
 5531TIP3    H138008   0.636   6.425   5.666  0.5279 -0.1770 -0.6985
 5531TIP3    H238009   0.729   6.529   5.609 -1.6569  2.1415 -0.1882
 5532TIP3   OH238010   3.736   6.281   3.565  0.5664 -0.6314 -0.2551
 5532TIP3    H138011   3.723   6.224   3.489 -1.8541  0.4426 -0.7346
 5532TIP3    H238012   3.660   6.266   3.620  0.5376  1.1478  0.2451
 5533TIP3   OH238013   3.398   4.239   0.324 -0.6609 -0.7776  0.2220
 5533TIP3    H138014   3.304   4.229   0.339 -1.2497  2.5219 -0.5387
 5533TIP3    H238015   3.437   4.162   0.365 -3.7159 -2.6901 -0.1413
 5534TIP3   OH238016   4.316   5.814  12.186  0.3226 -0.1800 -0.2616
 5534TIP3    H138017   4.368   5.881  12.142  0.0927 -0.5396 -1.1264
 5534TIP3    H238018   4.279   5.763  12.114  0.9091 -1.5545  0.3677
 5535TIP3   OH238019   5.907   4.427  15.252  0.5769  0.4752  0.3216
 5535TIP3    H138020   5.872   4.500  15.202  0.5045  0.8145  0.8618
 5535TIP3    H238021   5.974   4.389  15.195  0.5466  0.8984 -0.0025
 5536TIP3   OH238022   1.501   5.439  15.945 -0.6497  0.0879  0.4852
 5536TIP3    H138023   1.584   5.393  15.939 -0.7454  0.0078 -0.2246
 5536TIP3    H238024   1.451   5.411  15.869 -0.8555  1.0682  0.2403
 5537TIP3   OH238025   5.132   2.332   3.581  0.0722  0.3381 -0.5732
 5537TIP3    H138026   5.089   2.377   3.509 -0.2381  0.0217 -0.5849
 5537TIP3    H238027   5.087   2.364   3.660  1.0424  1.4262 -0.4214
 5538TIP3   OH238028   5.726   0.420  11.594  0.0400 -0.0117 -0.3032
 5538TIP3    H138029   5.784   0.398  11.667 -0.6173 -0.3602  0.1171
 5538TIP3    H238030   5.730   0.516  11.589 -0.6780  0.0982  0.8412
 5539TIP3   OH238031   1.746   4.218   5.858 -0.3431 -0.0209  0.1584
 5539TIP3    H138032   1.809   4.154   5.891  0.0476 -0.3768 -1.1855
 5539TIP3    H238033   1.683   4.229   5.929 -1.3417 -3.1203 -0.1229
 5540TIP3   OH238034   6.242   4.960  13.373 -0.3453  0.0749  0.2164
 5540TIP3    H138035   6.253   4.891  13.309 -2.3115 -0.6973  0.6363
 5540TIP3    H238036   6.331   4.984  13.399  0.4720  0.0699 -2.3824
 5541TIP3   OH238037   1.038   4.365  12.411 -0.3749 -0.2748  0.3945
 5541TIP3    H138038   1.049   4.427  12.484 -1.9565  0.0771  0.3606
 5541TIP3    H238039   1.117   4.311  12.414  0.2759  0.6887  1.4503
 5542TIP3   OH238040   6.686   1.500   2.443  0.2330  0.0492 -0.2755
 5542TIP3    H138041   6.676   1.495   2.538  0.3815  1.1061 -0.1869
 5542TIP3    H238042   6.744   1.428   2.421  0.2336 -0.1777  0.4419
 5543TIP3   OH238043   0.300   3.525  11.806 -0.1106  0.1076  0.8882
 5543TIP3    H138044   0.391   3.524  11.777 -0.7939 -0.8210 -1.4591
 5543TIP3    H238045   0.251   3.556  11.730 -2.0112 -2.0761  1.1029
 5544TIP3   OH238046   3.770   5.260  13.333  0.0922 -0.5473  0.3601
 5544TIP3    H138047   3.736   5.220  13.253 -0.2068  0.0065  0.2066
 5544TIP3    H238048   3.696   5.309  13.369  0.5537  0.1781  0.3393
 5545TIP3   OH238049   4.055   1.323  11.867  0.1566 -0.6350 -0.0708
 5545TIP3    H138050   4.025   1.295  11.781 -0.5744 -0.7989  0.2321
 5545TIP3    H238051   3.980   1.310  11.924  0.1130  0.9373  0.2887
 5546TIP3   OH238052   3.369   3.827   1.120  0.2737  0.8825 -0.1153
 5546TIP3    H138053   3.355   3.768   1.046 -1.7881  3.5030 -1.9821
 5546TIP3    H238054   3.460   3.813   1.145  0.0933 -2.5659 -0.7965
 5547TIP3   OH238055   5.563   2.281  15.388 -0.8834  0.4876 -0.6711
 5547TIP3    H138056   5.620   2.212  15.422 -0.3087  1.0494 -0.4589
 5547TIP3    H238057   5.587   2.288  15.296 -1.1281  0.2277 -0.7553
 5548TIP3   OH238058   6.044   4.614   0.411  0.4355  0.7710  0.1903
 5548TIP3    H138059   6.126   4.601   0.457  0.9227 -0.7027 -1.0051
 5548TIP3    H238060   6.042   4.544   0.346 -1.7189  0.8351  0.1210
 5549TIP3   OH238061   2.918   2.192  15.016 -0.4627  0.2703 -0.0643
 5549TIP3    H138062   2.944   2.148  15.097 -1.7469  0.2689  0.3677
 5549TIP3    H238063   2.934   2.285  15.034 -1.5692  0.3604  0.5347
 5550TIP3   OH238064   3.900   5.118  13.657 -0.7759  0.8046  0.3752
 5550TIP3    H138065   3.975   5.171  13.630 -0.0614 -0.5763 -0.5237
 5550TIP3    H238066   3.935   5.060  13.724 -0.9941  0.1044 -0.0986
 5551TIP3   OH238067   1.140   6.058  16.314  0.1592 -0.7541 -0.1639
 5551TIP3    H138068   1.158   5.996  16.243  2.6144 -1.8168  1.2436
 5551TIP3    H238069   1.225   6.070  16.357 -0.3912  2.9192  0.2408
 5552TIP3   OH238070   2.491   2.609   2.801  0.3278  0.1424 -0.3988
 5552TIP3    H138071   2.571   2.574   2.762  0.8363  0.9127 -0.0617
 5552TIP3    H238072   2.493   2.580   2.892  0.0463 -0.1177 -0.4707
 5553TIP3   OH238073   3.753   2.841   4.029 -0.0380 -0.1468 -0.0502
 5553TIP3    H138074   3.714   2.922   4.062 -0.0441 -0.1821  0.0314
 5553TIP3    H238075   3.731   2.839   3.936 -2.0954 -1.2106  0.3871
 5554TIP3   OH238076   1.819   1.969   4.341 -0.3135 -0.3561  0.2430
 5554TIP3    H138077   1.813   2.059   4.374  0.5586  0.0178 -0.5873
 5554TIP3    H238078   1.883   1.973   4.271 -0.7963 -1.5014 -0.2884
 5555TIP3   OH238079   5.624   2.822   0.104 -0.0894 -1.1803 -0.0315
 5555TIP3    H138080   5.614   2.728   0.093 -0.9451 -0.9616 -1.3903
 5555TIP3    H238081   5.658   2.853   0.020 -1.5446 -0.0785 -0.2758
 5556TIP3   OH238082   4.838   2.272  15.259  0.0715  0.3255 -0.1628
 5556TIP3    H138083   4.854   2.354  15.305 -0.5251 -0.0910  0.8109
 5556TIP3    H238084   4.743   2.258  15.267  0.2912 -0.9335  0.5002
 5557TIP3   OH238085   0.246   4.028  14.123 -0.3688  0.3841 -0.0980
 5557TIP3    H138086   0.257   3.967  14.049 -0.3507 -0.1393  0.3293
 5557TIP3    H238087   0.264   4.114  14.085 -1.0527  0.2042 -0.8738
 5558TIP3   OH238088   6.041   5.645  13.962  0.2697 -0.8043  0.1277
 5558TIP3    H138089   6.011   5.732  13.936  0.4600 -0.2999  1.5253
 5558TIP3    H238090   6.064   5.602  13.880  0.2653  0.4892 -0.5720
 5559TIP3   OH238091   5.053   2.496  14.697 -0.0335 -0.4687  0.1968
 5559TIP3    H138092   4.993   2.527  14.764  0.8307  0.6356  0.4814
 5559TIP3    H238093   5.017   2.530  14.615  0.6890  1.0250  0.4648
 5560TIP3   OH238094   1.359   5.957  12.680 -0.4417  0.3747  0.6398
 5560TIP3    H138095   1.394   6.004  12.604 -0.5679 -1.0010 -0.3020
 5560TIP3    H238096   1.264   5.973  12.677 -0.3689  0.8732  0.9086
 5561TIP3   OH238097   4.306   4.556  13.512 -0.0545  0.2847  0.1275
 5561TIP3    H138098   4.331   4.585  13.599  1.8620 -2.4012  0.6238
 5561TIP3    H238099   4.219   4.518  13.523  0.3039 -0.3263  0.9919
 5562TIP3   OH238100   1.994   0.343  11.852  0.3151 -0.8940 -0.0605
 5562TIP3    H138101   2.085   0.333  11.878  0.8348  1.3270 -0.8270
 5562TIP3    H238102   1.989   0.307  11.764  0.3267 -1.4307  0.1538
 5563TIP3   OH238103   0.806   1.636   0.965  0.3330  0.1369  0.1950
 5563TIP3    H138104   0.724   1.588   0.978  0.4155  0.3554  1.6938
 5563TIP3    H238105   0.816   1.689   1.044  1.6387  0.5434 -0.2132
 5564TIP3   OH238106   3.472   4.844   2.477 -0.2750 -0.4636 -0.3373
 5564TIP3    H138107   3.428   4.906   2.418  0.3049  1.1127  0.8301
 5564TIP3    H238108   3.489   4.768   2.422 -1.1441  0.3366 -1.7950
 5565TIP3   OH238109   5.043   2.275  12.373 -0.4752  0.6775  0.3572
 5565TIP3    H138110   5.064   2.368  12.364 -0.5027  0.7330  0.8562
 5565TIP3    H238111   5.127   2.230  12.362 -0.4231  0.7762  0.3514
 5566TIP3   OH238112   2.806   1.564  13.490  0.1735 -0.1560 -0.4255
 5566TIP3    H138113   2.780   1.486  13.540 -0.8350  0.5875  0.2418
 5566TIP3    H238114   2.809   1.534  13.399  2.0610 -1.5513  0.0164
 5567TIP3   OH238115   0.521   0.805  11.936 -0.2864 -0.3541  0.6255
 5567TIP3    H138116   0.615   0.801  11.951  0.1007  1.0827 -1.0824
 5567TIP3    H238117   0.494   0.889  11.972 -0.4675  0.2769 -0.9006
 5568TIP3   OH238118   2.816   4.479  15.614 -0.8075 -0.1045  0.1002
 5568TIP3    H138119   2.848   4.391  15.636  0.4892 -0.1433 -1.7119
 5568TIP3    H238120   2.888   4.520  15.567 -1.4487  1.9104  0.7587
 5569TIP3   OH238121   2.976   1.034   4.140  0.2347  0.0153  0.0738
 5569TIP3    H138122   3.000   1.039   4.047 -2.8834  0.7871 -0.8377
 5569TIP3    H238123   2.970   1.125   4.168  1.4460 -0.2167  1.1725
 5570TIP3   OH238124   6.375   6.648  16.069 -0.0157 -0.2795  0.2999
 5570TIP3    H138125   6.394   6.583  16.002  2.8724  0.6896  0.0288
 5570TIP3    H238126   6.427   6.620  16.145 -0.0158  0.7911  0.7153
 5571TIP3   OH238127   2.564   4.890  11.730 -0.5788  0.9040  0.3061
 5571TIP3    H138128   2.533   4.826  11.665  1.1997  1.0498 -0.7572
 5571TIP3    H238129   2.650   4.917  11.697  0.1591  1.3724  2.4892
 5572TIP3   OH238130   6.388   0.198   2.913 -0.1236 -0.9922  0.2270
 5572TIP3    H138131   6.447   0.136   2.954 -0.4960 -2.8679 -1.8869
 5572TIP3    H238132   6.380   0.168   2.823 -1.9435  0.9585 -0.3516
 5573TIP3   OH238133   1.215   6.411   6.214 -0.4395  0.3467 -0.1836
 5573TIP3    H138134   1.126   6.382   6.235 -0.7037 -0.0337 -1.6798
 5573TIP3    H238135   1.212   6.506   6.225 -0.8862  0.2825  0.2817
 5574TIP3   OH238136   1.284   5.307   2.586 -0.0139 -0.6705 -0.1439
 5574TIP3    H138137   1.327   5.341   2.508 -4.1565  0.4191 -2.2035
 5574TIP3    H238138   1.325   5.222   2.600  1.2216 -0.7181 -3.2236
 5575TIP3   OH238139   1.247   0.007   0.928  0.0340 -0.3422  0.7682
 5575TIP3    H138140   1.246  -0.072   0.981  0.7889  0.1266  1.5091
 5575TIP3    H238141   1.157   0.016   0.896  0.0420 -1.7335  0.2928
 5576TIP3   OH238142   6.184   3.533  13.727  0.1208 -0.3996 -0.1393
 5576TIP3    H138143   6.233   3.582  13.793 -1.1601  0.2512  0.3756
 5576TIP3    H238144   6.184   3.443  13.758 -0.5069 -0.0919  0.8003
 5577TIP3   OH238145   1.178   3.899  14.566 -0.2278  0.1670  0.2115
 5577TIP3    H138146   1.245   3.853  14.515 -1.3896 -0.6944 -0.5859
 5577TIP3    H238147   1.200   3.991  14.558  1.0530 -0.1109  0.2534
 5578TIP3   OH238148   0.469   5.568   3.025 -0.2798 -0.7973  0.2688
 5578TIP3    H138149   0.423   5.490   2.995 -1.5209 -0.9716  2.4328
 5578TIP3    H238150   0.548   5.571   2.971 -0.3453 -3.3685 -0.1031
 5579TIP3   OH238151   0.459   6.062   0.196  0.1169  0.4251  0.1752
 5579TIP3    H138152   0.381   6.008   0.205  0.0854  0.6713  1.5157
 5579TIP3    H238153   0.511   6.017   0.128  0.3606 -1.6353  1.6340
 5580TIP3   OH238154   1.020   5.507  12.198 -0.2752 -0.0854  0.5597
 5580TIP3    H138155   1.061   5.425  12.226  0.9919 -0.2593 -1.6045
 5580TIP3    H238156   0.973   5.484  12.117 -1.2021  1.0137  0.7567
 5581TIP3   OH238157   2.190   3.819   1.802 -0.0069  0.3514 -0.0299
 5581TIP3    H138158   2.273   3.827   1.850 -0.2017  2.1599  0.0851
 5581TIP3    H238159   2.126   3.793   1.869  0.3540 -0.4990 -0.0083
 5582TIP3   OH238160   3.529   6.501  14.632 -0.1997 -0.4334 -0.1893
 5582TIP3    H138161   3.444   6.534  14.604  0.3679 -0.2580 -1.8439
 5582TIP3    H238162   3.545   6.544  14.716 -0.7179  1.3733 -0.9601
 5583TIP3   OH238163   1.448   5.040  13.502  0.3706 -0.0099  0.5016
 5583TIP3    H138164   1.357   5.031  13.530  0.4475 -2.3150  0.2189
 5583TIP3    H238165   1.499   4.998  13.571  0.8984 -1.7682 -0.8647
 5584TIP3   OH238166   3.649   4.245   2.537 -0.2709 -0.0485 -0.0501
 5584TIP3    H138167   3.652   4.293   2.620 -1.4905 -1.7004  1.0225
 5584TIP3    H238168   3.562   4.263   2.501 -0.9715 -1.7745  0.6446
 5585TIP3   OH238169   0.835   3.535   4.277 -0.9668  0.2581  0.4577
 5585TIP3    H138170   0.897   3.547   4.206  0.0075  0.9883  1.4062
 5585TIP3    H238171   0.749   3.548   4.236 -0.6568 -2.1634 -1.1832
 5586TIP3   OH238172   3.386   1.331   6.090 -0.1938  0.6317 -0.3377
 5586TIP3    H138173   3.410   1.240   6.074 -3.9924 -0.2584 -2.0373
 5586TIP3    H238174   3.354   1.332   6.180  0.5218  0.5111 -0.0701
 5587TIP3   OH238175   5.834   0.028  15.362 -0.5163  0.3980  0.4261
 5587TIP3    H138176   5.898   0.032  15.291 -1.6940  0.5880 -0.6446
 5587TIP3    H238177   5.831  -0.065  15.385  0.9905  0.5278  1.3200
 5588TIP3   OH238178   4.724   4.312   5.669 -0.4349  0.1166  0.0094
 5588TIP3    H138179   4.648   4.256   5.681 -0.7072  0.5172  0.1876
 5588TIP3    H238180   4.799   4.256   5.685 -0.6437 -0.6014 -1.3351
 5589TIP3   OH238181   4.680   3.049  11.867  0.1561  0.1423 -0.0849
 5589TIP3    H138182   4.708   2.972  11.917 -0.3751 -0.2525 -0.3871
 5589TIP3    H238183   4.612   3.016  11.808  0.5287  0.6714 -0.8223
 5590TIP3   OH238184   0.300   4.812  12.538 -0.1558  1.0444  0.0900
 5590TIP3    H138185   0.312   4.775  12.451  1.7581  1.7568 -0.0131
 5590TIP3    H238186   0.315   4.739  12.598 -0.7912  0.7017 -0.1671
 5591TIP3   OH238187   0.033   6.189  12.169  0.4747 -0.2503  0.0542
 5591TIP3    H138188   0.019   6.274  12.127  0.0649 -0.5833 -0.4935
 5591TIP3    H238189   0.118   6.160  12.135 -0.4216 -1.1115 -1.6259
 5592TIP3   OH238190   5.595   5.797  16.465  0.1016 -0.0492 -0.7834
 5592TIP3    H138191   5.609   5.721  16.522  1.7957 -0.9403 -2.2919
 5592TIP3    H238192   5.514   5.837  16.498  0.2695 -1.3075  1.3418
 5593TIP3   OH238193   4.153   6.483  12.740  0.1321 -0.0559 -0.2396
 5593TIP3    H138194   4.174   6.464  12.648  0.0013 -0.4865 -0.1799
 5593TIP3    H238195   4.237   6.473  12.785 -0.1793 -1.8593  0.0112
 5594TIP3   OH238196   1.812   2.630   3.726 -0.3105 -0.2279 -0.3753
 5594TIP3    H138197   1.758   2.558   3.758  0.1839  0.4168  2.2058
 5594TIP3    H238198   1.861   2.659   3.804 -0.0348  2.4627 -1.4422
 5595TIP3   OH238199   4.126   1.780  13.733  0.2394 -0.6175  0.1491
 5595TIP3    H138200   4.195   1.831  13.690 -0.4181  0.5104  0.3856
 5595TIP3    H238201   4.055   1.843  13.747 -0.8129 -1.7234 -0.0043
 5596TIP3   OH238202   0.116   4.921   2.390  0.0584  0.3329 -0.1276
 5596TIP3    H138203   0.058   4.864   2.441  0.7564  1.7089  2.3998
 5596TIP3    H238204   0.129   4.875   2.307 -0.1561 -2.7104  1.3942
 5597TIP3   OH238205   3.521   1.597  13.842 -0.1386  0.5317 -0.5476
 5597TIP3    H138206   3.504   1.584  13.935 -0.0915 -3.9790 -0.9501
 5597TIP3    H238207   3.435   1.613  13.803 -0.2314  1.8160  0.1613
 5598TIP3   OH238208   5.602   3.647   1.342 -0.2237 -0.2519 -0.1297
 5598TIP3    H138209   5.654   3.591   1.285 -0.4111 -1.2304  0.6266
 5598TIP3    H238210   5.590   3.728   1.292  2.5933  0.3140 -0.0762
 5599TIP3   OH238211   4.183   1.491  13.631  0.4960 -0.4070  0.3179
 5599TIP3    H138212   4.129   1.563  13.665 -0.0091 -1.2864  1.4403
 5599TIP3    H238213   4.180   1.502  13.536 -0.6512  0.2969  0.4148
 5600TIP3   OH238214   3.697   0.172  11.030  0.1716  0.0034 -0.0301
 5600TIP3    H138215   3.653   0.133  11.105 -0.6090  0.0913 -0.4402
 5600TIP3    H238216   3.627   0.207  10.975  0.6434 -0.9450 -1.3008
 5601TIP3   OH238217   4.762   1.484   1.188 -0.4999  0.0408  0.3912
 5601TIP3    H138218   4.700   1.412   1.185 -0.7143  0.2783 -1.9100
 5601TIP3    H238219   4.837   1.449   1.237 -0.2537 -2.0733 -1.3651
 5602TIP3   OH238220   0.367   2.498  14.491  0.5102 -0.1058  0.0675
 5602TIP3    H138221   0.406   2.411  14.498 -0.8384 -0.6898  0.7076
 5602TIP3    H238222   0.414   2.540  14.419  0.0142 -2.0040 -1.4476
 5603TIP3   OH238223   4.555   2.953   5.585  0.5089 -0.3087  0.2731
 5603TIP3    H138224   4.482   2.923   5.640 -0.5768 -2.8683 -2.3266
 5603TIP3    H238225   4.619   2.882   5.587  1.5361  0.5741  0.0665
 5604TIP3   OH238226   2.179   2.081  15.078  0.2498  0.1359 -0.0237
 5604TIP3    H138227   2.269   2.088  15.110  2.0958 -0.4427 -4.3289
 5604TIP3    H238228   2.155   2.170  15.054 -0.3451  0.2885  1.1169
 5605TIP3   OH238229   4.014   4.258   0.089 -0.1487  0.5497  0.2481
 5605TIP3    H138230   4.009   4.167   0.120 -1.4656  0.2942 -0.6466
 5605TIP3    H238231   4.006   4.311   0.169  0.0512 -0.1057  0.7120
 5606TIP3   OH238232   5.765   3.840   3.285 -0.2634 -0.3944 -0.3566
 5606TIP3    H138233   5.701   3.877   3.224 -1.2896  1.2211  1.5745
 5606TIP3    H238234   5.720   3.841   3.370  1.8827 -0.3777  0.8552
 5607TIP3   OH238235   6.151   6.315  10.428  0.3612 -0.1250 -0.2054
 5607TIP3    H138236   6.241   6.284  10.421  0.8100 -0.1182  3.4800
 5607TIP3    H238237   6.100   6.236  10.447 -0.2045  0.0578 -0.9137
 5608TIP3   OH238238   3.184   6.156  16.563 -0.2481  0.3538  0.6965
 5608TIP3    H138239   3.095   6.189  16.552 -0.1868  0.2372 -0.2422
 5608TIP3    H238240   3.187   6.077  16.509  0.0733 -0.3286  1.6840
 5609TIP3   OH238241   1.360   5.780  12.970 -0.4315  0.1940  0.3304
 5609TIP3    H138242   1.421   5.726  13.019 -0.8209  0.2721  0.9143
 5609TIP3    H238243   1.383   5.870  12.993  2.3384  0.5650 -3.0888
 5610TIP3   OH238244   3.248   3.355  11.971 -0.1366 -0.0368  0.1237
 5610TIP3    H138245   3.191   3.378  11.898  0.6314 -0.8614 -0.7639
 5610TIP3    H238246   3.236   3.260  11.982 -2.0078  0.3920  2.6344
 5611TIP3   OH238247   1.226   0.786  11.499  0.6779  0.4032 -0.3073
 5611TIP3    H138248   1.217   0.877  11.473  0.1752  0.6095  0.5299
 5611TIP3    H238249   1.317   0.777  11.527  1.0534  0.3303 -1.5308
 5612TIP3   OH238250   3.637   0.106  12.572 -0.1829  0.9491 -0.5533
 5612TIP3    H138251   3.702   0.098  12.502 -0.9226  2.5505 -1.4485
 5612TIP3    H238252   3.663   0.184  12.621  0.1137  0.0578  0.7891
 5613TIP3   OH238253   4.776   5.747   1.214 -0.2097 -0.4606  0.4558
 5613TIP3    H138254   4.756   5.653   1.215 -0.2306 -0.4611  0.0254
 5613TIP3    H238255   4.749   5.778   1.300 -0.6824 -0.7524  0.4143
 5614TIP3   OH238256   1.941   1.911   3.824 -0.2866  0.0201 -0.1833
 5614TIP3    H138257   1.921   2.004   3.836 -0.6031  0.1091 -1.2897
 5614TIP3    H238258   1.996   1.909   3.746 -1.1249 -0.8083 -0.7661
 5615TIP3   OH238259   1.971   2.039   4.125 -0.7867 -0.2812 -0.6419
 5615TIP3    H138260   1.886   2.079   4.108  0.3620  2.1612 -1.0017
 5615TIP3    H238261   2.033   2.090   4.073  1.2072 -0.4151  1.4465
 5616TIP3   OH238262   3.889   1.319   4.221 -0.2555 -0.1030 -0.8770
 5616TIP3    H138263   3.869   1.270   4.141 -1.9984  2.1115 -1.9067
 5616TIP3    H238264   3.984   1.331   4.218 -0.1917 -0.7392 -2.1920
 5617TIP3   OH238265   5.332   5.931  13.149  0.0607  0.1233 -0.0741
 5617TIP3    H138266   5.267   5.963  13.212 -0.0397 -1.9953  0.9718
 5617TIP3    H238267   5.414   5.970  13.178 -0.4671  1.6619 -0.5426
 5618TIP3   OH238268   3.072   4.688   3.536 -0.0920 -0.4948 -0.1980
 5618TIP3    H138269   2.989   4.714   3.576  1.4913  0.2718  2.9409
 5618TIP3    H238270   3.102   4.767   3.490 -1.0175 -0.7665 -1.3205
 5619TIP3   OH238271   6.475   0.288   3.791 -0.1414 -0.6655  0.5147
 5619TIP3    H138272   6.407   0.350   3.764 -0.2784 -1.2275 -0.5095
 5619TIP3    H238273   6.549   0.306   3.733 -0.6172 -2.2312 -0.6774
 5620TIP3   OH238274   3.921   5.255   5.762 -0.3656  0.3780 -0.1821
 5620TIP3    H138275   3.976   5.179   5.741  0.0429  0.2954  1.1346
 5620TIP3    H238276   3.880   5.232   5.846 -2.4318  0.4296 -1.1035
 5621TIP3   OH238277   5.515   2.624  10.935 -0.1743  0.2729 -0.3397
 5621TIP3    H138278   5.588   2.646  10.878  2.2529 -1.1318  1.9631
 5621TIP3    H238279   5.509   2.698  10.996 -2.0967  1.3129 -1.7021
 5622TIP3   OH238280   5.892   6.582   2.673  0.0738  0.0899 -0.1522
 5622TIP3    H138281   5.834   6.601   2.747  1.1381  0.3344  0.6529
 5622TIP3    H238282   5.876   6.653   2.611 -0.2229  0.3548  0.2233
 5623TIP3   OH238283   6.431   5.681  14.274  0.4664  0.2465 -0.3547
 5623TIP3    H138284   6.406   5.645  14.358  0.9239  2.4511  0.7969
 5623TIP3    H238285   6.375   5.758  14.263  2.7412  1.9903 -0.3784
 5624TIP3   OH238286   6.045   2.625   2.328  0.2257 -0.1561  0.4492
 5624TIP3    H138287   6.069   2.646   2.418  0.5868 -0.3267  0.3930
 5624TIP3    H238288   6.091   2.689   2.275  1.9871 -1.5258  0.2165
 5625TIP3   OH238289   6.349   3.599   5.759  0.4780 -0.2115  0.0059
 5625TIP3    H138290   6.395   3.601   5.843  1.3285 -0.6731 -0.4298
 5625TIP3    H238291   6.400   3.539   5.705 -0.8065 -0.9600 -0.4245
 5626TIP3   OH238292   2.576   0.135   2.400 -0.1061  0.4329 -0.3515
 5626TIP3    H138293   2.491   0.164   2.434 -0.0632 -1.0693  1.1571
 5626TIP3    H238294   2.639   0.198   2.434 -0.1204 -0.7979  2.1298
 5627TIP3   OH238295   6.330   0.220   2.635  0.6695 -0.1540 -0.4831
 5627TIP3    H138296   6.307   0.218   2.542  0.3379  0.4468 -0.4220
 5627TIP3    H238297   6.308   0.309   2.663 -1.8148 -1.0834  0.8317
 5628TIP3   OH238298   1.674   2.057  12.612 -0.0474 -0.1605 -0.7180
 5628TIP3    H138299   1.692   1.987  12.550 -2.1274 -0.7506 -0.7295
 5628TIP3    H238300   1.665   2.013  12.696  1.2593  0.4526 -0.2333
 5629TIP3   OH238301   2.099   2.250   6.548 -0.2257 -0.1639  0.9776
 5629TIP3    H138302   2.023   2.220   6.498  1.0776 -2.2987  0.1134
 5629TIP3    H238303   2.081   2.225   6.638 -0.2324 -1.3999  0.6470
 5630TIP3   OH238304   3.454   6.540   2.778 -0.2739 -0.7637 -0.5364
 5630TIP3    H138305   3.394   6.480   2.734 -0.2566  0.3057 -2.1225
 5630TIP3    H238306   3.403   6.579   2.849 -0.8382 -1.3238 -0.6318
 5631TIP3   OH238307   0.049   1.852  11.575  0.5246  0.5716  0.3007
 5631TIP3    H138308   0.107   1.901  11.633  0.6866 -0.0240  0.6507
 5631TIP3    H238309   0.102   1.778  11.545  0.0305  0.1601  0.4239
 5632TIP3   OH238310   5.843   5.883   1.770  0.2457 -0.1018 -0.4320
 5632TIP3    H138311   5.825   5.822   1.699  3.0010 -2.5335  0.7354
 5632TIP3    H238312   5.883   5.959   1.727 -1.1915 -0.0265 -1.7150
 5633TIP3   OH238313   4.913   2.979  12.449  0.3296  0.2966  0.1886
 5633TIP3    H138314   4.944   2.971  12.539 -1.8657 -1.2358  0.8901
 5633TIP3    H238315   4.900   3.073  12.436  1.0748  0.5715  1.3000
 5634TIP3   OH238316   4.665   6.479   0.149 -0.0965 -0.8151  0.2357
 5634TIP3    H138317   4.586   6.429   0.172 -0.8518  0.0543 -0.3844
 5634TIP3    H238318   4.634   6.545   0.087  0.9738  0.1053  0.6540
 5635TIP3   OH238319   2.670   5.261  13.121 -0.7321  0.3417 -0.3249
 5635TIP3    H138320   2.758   5.226  13.136 -1.1920 -0.2818  1.1733
 5635TIP3    H238321   2.625   5.193  13.070 -0.1045  1.0476 -1.8563
 5636TIP3   OH238322   6.343   6.630  10.757  0.4161  0.2102  0.7927
 5636TIP3    H138323   6.370   6.704  10.812 -1.4110 -0.4386  2.6613
 5636TIP3    H238324   6.390   6.644  10.675  1.6031  2.3960  1.7479
 5637TIP3   OH238325   5.778   5.543  14.860 -0.9304  0.4162 -0.3520
 5637TIP3    H138326   5.809   5.578  14.776  0.2207  0.6195  0.1388
 5637TIP3    H238327   5.781   5.448  14.849 -0.7438  0.4413 -0.5219
 5638TIP3   OH238328   6.220   1.694  10.908  0.3482 -0.5136 -0.1216
 5638TIP3    H138329   6.198   1.643  10.986  2.0972 -0.0417  0.7368
 5638TIP3    H238330   6.185   1.781  10.927  2.3551  0.1065  1.0269
 5639TIP3   OH238331   2.958   2.145   4.605  0.6436  0.5230 -0.2813
 5639TIP3    H138332   2.927   2.174   4.520 -1.1153 -0.4616 -0.0047
 5639TIP3    H238333   3.030   2.085   4.586  0.1693  0.1999 -1.0838
 5640TIP3   OH238334   5.252   5.137   1.560 -0.0652 -0.4926 -0.8221
 5640TIP3    H138335   5.281   5.072   1.624 -1.1170 -0.4445 -0.2804
 5640TIP3    H238336   5.232   5.215   1.611  1.0975  0.2540 -1.4627
 5641TIP3   OH238337   2.765   0.932  13.172  0.3477 -0.0561 -0.2395
 5641TIP3    H138338   2.742   0.985  13.249 -1.3181 -1.0856  0.0385
 5641TIP3    H238339   2.784   0.845  13.208  0.7494 -0.2385 -0.8885
 5642TIP3   OH238340   6.133   3.662   3.004 -0.6629 -0.2351  0.5505
 5642TIP3    H138341   6.148   3.752   2.976  0.5171  0.4090  2.9883
 5642TIP3    H238342   6.038   3.651   2.999 -0.8277  1.1166  0.1675
 5643TIP3   OH238343   1.687   3.689   5.018  0.2735 -0.0685  0.4946
 5643TIP3    H138344   1.689   3.685   5.113 -2.2439 -0.6765  0.5858
 5643TIP3    H238345   1.712   3.779   4.996  1.1556 -0.0067  1.6910
 5644TIP3   OH238346   4.453   2.049  12.349 -0.6061 -0.0620 -0.1046
 5644TIP3    H138347   4.362   2.080  12.354 -1.4509 -2.2216 -0.9901
 5644TIP3    H238348   4.466   2.027  12.257  1.4109  1.7296 -0.3074
 5645TIP3   OH238349   1.546   6.531   5.670  0.2446 -0.4123  0.5291
 5645TIP3    H138350   1.457   6.497   5.667 -0.0088  0.3084 -0.9715
 5645TIP3    H238351   1.570   6.526   5.763 -1.3435 -0.5985  0.9675
 5646TIP3   OH238352   5.058   2.285  15.926 -0.0147 -0.2845  0.3624
 5646TIP3    H138353   5.036   2.373  15.898 -1.0800  0.5898  3.5122
 5646TIP3    H238354   5.020   2.228  15.859 -0.4993  1.5837 -1.0269
 5647TIP3   OH238355   6.185   5.400  16.364 -0.3659  0.6550 -0.2788
 5647TIP3    H138356   6.222   5.488  16.374  0.2574  0.3502  0.1707
 5647TIP3    H238357   6.121   5.393  16.435  1.2798 -0.0861  1.2545
 5648TIP3   OH238358   4.103   5.877  15.456 -0.7170 -0.4012 -0.3800
 5648TIP3    H138359   4.140   5.952  15.410  0.0008 -0.3075  0.3286
 5648TIP3    H238360   4.179   5.826  15.484 -0.8117  1.4508  3.9539
 5649TIP3   OH238361   6.343   4.112  11.231 -0.3471  0.3172 -0.3378
 5649TIP3    H138362   6.401   4.044  11.195 -0.6619 -1.5785  2.3895
 5649TIP3    H238363   6.361   4.189  11.177  1.3026 -1.4234 -2.5291
 5650TIP3   OH238364   5.672   5.853   2.008  0.0405 -0.2927  0.7927
 5650TIP3    H138365   5.750   5.890   2.051 -0.8022  1.1620  1.1409
 5650TIP3    H238366   5.701   5.835   1.919  0.9731 -0.4371  1.1107
 5651TIP3   OH238367   4.007   4.718  16.900  0.3407  0.3882 -0.3528
 5651TIP3    H138368   4.025   4.677  16.815 -0.2913  0.8903 -0.7456
 5651TIP3    H238369   4.045   4.806  16.892 -0.7636  0.8597 -0.5689
 5652TIP3   OH238370   6.635   0.070  13.746  0.1002  0.0420 -0.2693
 5652TIP3    H138371   6.605   0.161  13.747  0.9865  0.3589 -0.9210
 5652TIP3    H238372   6.555   0.018  13.741 -0.4153  0.7897  0.0995
 5653TIP3   OH238373   0.080   1.802   0.587  0.2692  0.0846  0.2443
 5653TIP3    H138374   0.003   1.797   0.644  0.8894  1.1583  1.2318
 5653TIP3    H238375   0.072   1.886   0.542  0.0741 -0.5059 -0.8644
 5654TIP3   OH238376   1.755   1.492  11.910 -0.0055  0.5647 -0.2086
 5654TIP3    H138377   1.695   1.507  11.984  0.3800 -0.1249  0.2657
 5654TIP3    H238378   1.822   1.433  11.946 -0.0831 -0.1901 -1.2479
 5655TIP3   OH238379   2.770   1.317  15.263  0.0907 -0.2737  0.4646
 5655TIP3    H138380   2.684   1.338  15.299 -0.9955 -1.1992 -1.4444
 5655TIP3    H238381   2.787   1.227  15.289 -0.6230 -0.8896 -1.0846
 5656TIP3   OH238382   0.550   1.207  16.008  0.2262 -0.0625 -0.3669
 5656TIP3    H138383   0.551   1.296  16.044  1.9377  0.1428 -0.8280
 5656TIP3    H238384   0.569   1.219  15.915  1.3601 -0.9506 -0.2702
 5657TIP3   OH238385   5.220   4.603  13.044 -0.4735  0.2396  0.1949
 5657TIP3    H138386   5.147   4.626  13.102 -1.3430  0.0848 -0.7963
 5657TIP3    H238387   5.297   4.640  13.086 -1.4610  2.7477 -0.0513
 5658TIP3   OH238388   2.014   0.768  14.805 -0.1522 -0.9226 -0.4115
 5658TIP3    H138389   1.943   0.815  14.849 -1.1328 -0.9333 -1.9174
 5658TIP3    H238390   2.070   0.837  14.769 -0.5668 -0.8820 -1.0077
 5659TIP3   OH238391   0.426   0.499  11.498  0.1262 -0.4031 -0.3999
 5659TIP3    H138392   0.332   0.483  11.500 -0.3007  1.0876 -3.0759
 5659TIP3    H238393   0.463   0.423  11.452  0.4825 -1.5931  1.7218
 5660TIP3   OH238394   2.877   6.741   3.157  0.6487 -0.1401  0.5723
 5660TIP3    H138395   2.939   6.765   3.088 -1.0904 -0.2021 -1.0867
 5660TIP3    H238396   2.856   6.649   3.140 -4.2122  1.1758 -2.7050
 5661TIP3   OH238397   4.867   3.381   4.793 -0.2541  0.0835  0.4743
 5661TIP3    H138398   4.772   3.370   4.797 -0.2442 -0.1548  0.0540
 5661TIP3    H238399   4.897   3.312   4.733  0.2370 -0.1813  1.0084
 5662TIP3   OH238400   2.126   2.329   5.182 -0.0929  0.0604 -0.5972
 5662TIP3    H138401   2.177   2.385   5.123  1.3795  0.4931  1.0001
 5662TIP3    H238402   2.188   2.306   5.252 -1.7230 -0.5649  0.7000
 5663TIP3   OH238403   2.711   6.027  10.847  0.2592 -0.7046  0.4576
 5663TIP3    H138404   2.739   6.079  10.923  1.0391 -1.1543  0.4924
 5663TIP3    H238405   2.792   6.008  10.800  0.0274 -2.0538  0.5552
 5664TIP3   OH238406   4.611   5.122   2.516 -0.2483  0.3338 -0.5099
 5664TIP3    H138407   4.594   5.169   2.597  2.2868 -1.4968  1.2680
 5664TIP3    H238408   4.673   5.177   2.468  0.0605  0.3791 -0.0645
 5665TIP3   OH238409   4.856   3.200  14.359 -0.6330  0.2032  0.4965
 5665TIP3    H138410   4.819   3.136  14.418  0.5792 -0.5212  0.5092
 5665TIP3    H238411   4.859   3.281  14.410 -2.3575  0.3572  0.4122
 5666TIP3   OH238412   3.069   1.653  14.686 -0.1854 -0.0994 -0.1921
 5666TIP3    H138413   3.137   1.624  14.625 -0.2946 -1.8310  0.4585
 5666TIP3    H238414   3.036   1.572  14.726 -1.6188  0.8211  0.5762
 5667TIP3   OH238415   3.695   6.279   2.030 -0.2458  0.0896 -0.1743
 5667TIP3    H138416   3.600   6.286   2.016  0.0762 -0.7095 -3.5507
 5667TIP3    H238417   3.719   6.194   1.994  1.8912  0.6506 -0.2154
 5668TIP3   OH238418   3.023   3.331  12.541  0.4181  0.2637  0.0261
 5668TIP3    H138419   3.044   3.273  12.468 -1.5031  0.4323 -0.7238
 5668TIP3    H238420   3.036   3.276  12.619 -0.5346 -0.9424 -0.6233
 5669TIP3   OH238421   5.718   1.343   0.871 -0.0667  0.0666  0.0677
 5669TIP3    H138422   5.776   1.268   0.859  0.4708  0.7232 -1.7423
 5669TIP3    H238423   5.757   1.391   0.944  0.8817 -0.2373 -0.2176
 5670TIP3   OH238424   6.059   2.224  11.993  0.0308 -0.1551  1.0663
 5670TIP3    H138425   6.114   2.258  12.064  1.4973 -0.1981  0.0026
 5670TIP3    H238426   6.009   2.299  11.963  3.4397  1.3739 -1.4613
 5671TIP3   OH238427   1.934   1.741  14.394  0.0365  0.2185 -0.1806
 5671TIP3    H138428   2.030   1.750  14.394 -0.0046  0.9145  1.2963
 5671TIP3    H238429   1.903   1.820  14.437 -1.1094 -0.8756  1.0849
 5672TIP3   OH238430   3.734   3.073   1.924  0.3263  0.1043  0.5559
 5672TIP3    H138431   3.771   3.051   2.010  1.5125  0.6036  0.1886
 5672TIP3    H238432   3.803   3.122   1.880 -0.8548  1.2291 -0.0922
 5673TIP3   OH238433   1.905   2.336   1.268 -0.4046  0.3676 -0.3131
 5673TIP3    H138434   1.993   2.360   1.239  0.4313 -2.1794 -0.1620
 5673TIP3    H238435   1.901   2.363   1.360  0.4341  0.0027 -0.1673
 5674TIP3   OH238436   3.404   6.122  16.178  0.2697 -0.5582 -0.5698
 5674TIP3    H138437   3.342   6.195  16.188  0.9016 -0.1167  0.3047
 5674TIP3    H238438   3.378   6.060  16.245  1.7480  0.3695  0.9381
 5675TIP3   OH238439   4.006   6.360   1.308  0.6560 -0.1958 -0.4378
 5675TIP3    H138440   3.942   6.309   1.259 -0.2034  0.1064  0.3347
 5675TIP3    H238441   3.975   6.450   1.302  0.1633 -0.2154  1.1296
 5676TIP3   OH238442   5.483   2.693  11.947 -0.4638  0.0490 -0.2556
 5676TIP3    H138443   5.499   2.614  11.998 -1.2229  0.1486  0.1365
 5676TIP3    H238444   5.403   2.730  11.983 -0.1357  0.9867 -0.4510
 5677TIP3   OH238445   6.739   0.076   0.957  1.0089 -0.0787  0.3154
 5677TIP3    H138446   6.656   0.101   0.998  1.2687  0.7723  0.3352
 5677TIP3    H238447   6.803   0.077   1.029  0.8666 -1.7121  0.5039
 5678TIP3   OH238448   2.669   0.493   2.709 -0.4148  0.0398 -0.3565
 5678TIP3    H138449   2.739   0.541   2.664  0.3156 -1.2695 -0.6502
 5678TIP3    H238450   2.590   0.543   2.689  0.3319  1.1705 -0.5864
 5679TIP3   OH238451   5.134   2.343   0.141 -0.1402  0.4543  0.7815
 5679TIP3    H138452   5.186   2.331   0.062 -0.3451 -0.2682  0.7513
 5679TIP3    H238453   5.077   2.417   0.121 -0.3934  0.0987  0.1400
 5680TIP3   OH238454   3.357   3.537  11.474 -0.3436 -0.1709 -0.0853
 5680TIP3    H138455   3.277   3.516  11.522  0.2366 -2.1610  0.1169
 5680TIP3    H238456   3.328   3.596  11.404 -1.5180  1.2718  1.5230
 5681TIP3   OH238457   2.319   6.459  14.056  0.4436  0.6708  0.7875
 5681TIP3    H138458   2.326   6.385  13.995  2.7776  2.5637 -1.5005
 5681TIP3    H238459   2.375   6.435  14.129  0.3329 -0.2594  0.5813
 5682TIP3   OH238460   5.015   2.238  16.816  0.3161  0.0456 -0.5155
 5682TIP3    H138461   5.083   2.263  16.880 -0.7187 -0.8163  0.9952
 5682TIP3    H238462   5.036   2.147  16.794 -0.0409 -0.0516 -0.4558
 5683TIP3   OH238463   6.434   5.814  10.691  0.7264  0.4229 -0.3624
 5683TIP3    H138464   6.526   5.790  10.680  0.4292 -1.4718  0.7467
 5683TIP3    H238465   6.435   5.910  10.695  2.6904  0.4499 -0.0928
 5684TIP3   OH238466   4.385   4.628   3.564 -0.2827 -0.0331  0.2376
 5684TIP3    H138467   4.358   4.718   3.544  0.1855  0.3168  1.0994
 5684TIP3    H238468   4.438   4.602   3.489 -0.5395  0.3634 -0.0860
 5685TIP3   OH238469   0.201   1.742  16.563 -0.0404  0.1980  0.4193
 5685TIP3    H138470   0.181   1.732  16.656  0.1355 -1.9073  0.2879
 5685TIP3    H238471   0.290   1.778  16.562  0.3836 -0.7461  1.1193
 5686TIP3   OH238472   4.509   3.146  10.950  0.2326  0.5755  0.5605
 5686TIP3    H138473   4.431   3.197  10.972 -0.4937 -0.7595  1.1997
 5686TIP3    H238474   4.581   3.190  10.996 -0.4487  0.7587  1.4713
 5687TIP3   OH238475   5.296   4.481   6.697  0.1730  0.2948 -0.5899
 5687TIP3    H138476   5.334   4.395   6.681 -0.8311 -1.0009  3.0023
 5687TIP3    H238477   5.366   4.532   6.736 -0.0405  0.0467  0.1295
 5688TIP3   OH238478   2.644   0.941  14.690  0.5678 -0.0802  0.2156
 5688TIP3    H138479   2.627   0.960  14.782  1.5767  0.8239  0.2378
 5688TIP3    H238480   2.587   0.867  14.669 -0.2654  0.2287  1.3436
 5689TIP3   OH238481   1.229   3.664  13.823  0.5874  0.0640 -0.5155
 5689TIP3    H138482   1.240   3.710  13.906 -1.3786  1.4235 -0.9242
 5689TIP3    H238483   1.298   3.598  13.822  2.3223  1.7460  0.9934
 5690TIP3   OH238484   2.730   6.760   3.718 -0.2003  1.0089 -0.8537
 5690TIP3    H138485   2.672   6.833   3.697  0.3797  1.8857  0.4716
 5690TIP3    H238486   2.671   6.693   3.754 -0.5286  1.5267 -0.4014
 5691TIP3   OH238487   6.162   1.794  16.731  0.3852 -0.0215 -0.0327
 5691TIP3    H138488   6.098   1.725  16.748 -1.5959  1.3170 -1.5168
 5691TIP3    H238489   6.199   1.772  16.646  1.8092 -0.6776  0.7290
 5692TIP3   OH238490   6.068   4.604  16.198  0.5973  0.3404  0.2750
 5692TIP3    H138491   6.117   4.531  16.161  0.4355  0.3656  0.0093
 5692TIP3    H238492   6.085   4.677  16.138 -1.5990 -0.2177 -1.1555
 5693TIP3   OH238493   4.277   0.238  16.220  0.1998 -0.4870 -0.1619
 5693TIP3    H138494   4.225   0.163  16.190 -0.7785 -0.3214  1.0824
 5693TIP3    H238495   4.291   0.223  16.313 -0.6476  1.2428  0.2814
 5694TIP3   OH238496   4.090   6.007   4.492  0.3420  0.6473 -0.2604
 5694TIP3    H138497   4.070   6.048   4.408 -5.3291 -0.8346 -0.0442
 5694TIP3    H238498   4.084   6.078   4.556  0.5412  1.0895 -0.7249
 5695TIP3   OH238499   5.979   0.725   2.643  0.2859  0.4246  0.3385
 5695TIP3    H138500   5.895   0.692   2.676  0.5414 -0.1898  0.3941
 5695TIP3    H238501   5.966   0.734   2.549 -0.2678  1.6398  0.5163
 5696TIP3   OH238502   4.055   0.892   0.932  0.4639  0.3586 -0.1875
 5696TIP3    H138503   3.997   0.871   1.005  0.4485  2.1244  0.3356
 5696TIP3    H238504   4.002   0.877   0.854  0.7726 -2.4753  0.0466
 5697TIP3   OH238505   0.518   3.917   2.394 -0.0490 -0.1385 -0.5078
 5697TIP3    H138506   0.545   4.000   2.355 -0.7912  0.0445 -0.6528
 5697TIP3    H238507   0.553   3.849   2.336  1.7208  0.0032  0.3257
 5698TIP3   OH238508   1.107   2.111   6.074  0.5766 -0.1276 -0.2632
 5698TIP3    H138509   1.122   2.019   6.094 -1.2047 -0.2934  0.5769
 5698TIP3    H238510   1.122   2.156   6.158  1.6409  0.3866 -0.7165
 5699TIP3   OH238511   3.600   0.824   0.888  0.1909  0.6774 -0.2937
 5699TIP3    H138512   3.650   0.823   0.969  0.1615  2.6528 -0.1866
 5699TIP3    H238513   3.619   0.910   0.850 -0.6472  0.2159 -1.8393
 5700TIP3   OH238514   5.727   1.038   2.157 -0.2483  0.2227 -0.1724
 5700TIP3    H138515   5.717   1.032   2.252 -1.3318  2.6837 -0.0494
 5700TIP3    H238516   5.687   0.957   2.124 -0.2584 -0.4733  1.4295
 5701TIP3   OH238517   5.585   4.799   4.317 -0.4002  0.2351  0.1132
 5701TIP3    H138518   5.574   4.768   4.407  0.8510  2.3126  1.0569
 5701TIP3    H238519   5.496   4.816   4.286 -0.8153  0.0323  1.1673
 5702TIP3   OH238520   4.521   6.232   5.509 -0.3623  0.0353  0.2151
 5702TIP3    H138521   4.542   6.148   5.468  0.0050  0.2261  0.0160
 5702TIP3    H238522   4.431   6.251   5.480  0.3353  0.7947 -1.5508
 5703TIP3   OH238523   6.149   0.705  10.783 -0.1569 -0.2236  0.0777
 5703TIP3    H138524   6.192   0.620  10.772 -0.2374 -0.1764 -0.6407
 5703TIP3    H238525   6.063   0.684  10.818 -0.0930 -0.4213  0.1174
 5704TIP3   OH238526   4.407   4.399   2.411  0.0836 -0.3017  0.3801
 5704TIP3    H138527   4.474   4.421   2.346 -0.5030  1.2592  0.2655
 5704TIP3    H238528   4.431   4.450   2.488 -1.0948  0.4897  0.2501
 5705TIP3   OH238529   0.426   4.314   4.340  0.6205 -0.3294 -0.4457
 5705TIP3    H138530   0.381   4.298   4.258 -1.0681 -0.1304  0.4021
 5705TIP3    H238531   0.496   4.249   4.343 -0.1261 -1.1997 -1.4265
 5706TIP3   OH238532   4.314   3.963  14.681  0.5217 -0.3278 -0.4857
 5706TIP3    H138533   4.287   3.975  14.772 -1.3809 -0.2313 -1.0079
 5706TIP3    H238534   4.407   3.945  14.685 -0.0512 -3.5444  1.7442
 5707TIP3   OH238535   2.089   2.670  14.038 -0.8450 -0.3981 -0.4175
 5707TIP3    H138536   2.105   2.764  14.037 -1.5747 -0.2646 -0.1261
 5707TIP3    H238537   2.177   2.630  14.042 -0.4530  0.2211 -2.0195
 5708TIP3   OH238538   1.940   2.120  15.597  0.9212  0.8596  0.4311
 5708TIP3    H138539   1.863   2.169  15.627  1.4650  2.9735 -1.3943
 5708TIP3    H238540   1.925   2.030  15.629 -0.3073  2.0378  3.5712
 5709TIP3   OH238541   4.383   1.293   5.145 -0.3657  0.1014 -0.3037
 5709TIP3    H138542   4.379   1.198   5.140  0.6947 -0.0428  0.8684
 5709TIP3    H238543   4.351   1.314   5.233  0.0695  0.7523 -0.2868
 5710TIP3   OH238544   3.148   4.524  14.536 -0.3213  0.0147  0.5139
 5710TIP3    H138545   3.084   4.481  14.480 -0.0893  0.4453 -0.0832
 5710TIP3    H238546   3.172   4.604  14.489 -0.7941  0.8438  1.6366
 5711TIP3   OH238547   2.594   2.949   0.079  0.0345 -0.5098 -0.3702
 5711TIP3    H138548   2.537   3.019   0.111  0.5891  0.2729 -1.0675
 5711TIP3    H238549   2.568   2.872   0.131 -0.5271  0.2150  0.4597
 5712TIP3   OH238550   0.684   0.749   5.612  0.1427 -0.1001  0.1833
 5712TIP3    H138551   0.611   0.741   5.552  0.4692 -2.2617 -0.0195
 5712TIP3    H238552   0.695   0.843   5.625 -0.5429  0.4124 -2.3729
 5713TIP3   OH238553   1.745   6.018   2.237  0.1929  0.0434 -0.0920
 5713TIP3    H138554   1.682   6.030   2.166 -0.8670 -2.1805  0.3881
 5713TIP3    H238555   1.700   6.052   2.315  1.2417  2.2144 -0.3733
 5714TIP3   OH238556   3.542   2.994   0.924 -0.0082 -0.4160  0.4557
 5714TIP3    H138557   3.547   3.088   0.907 -0.3564 -0.5207 -0.2641
 5714TIP3    H238558   3.495   2.988   1.007  1.3007  0.0914  1.2665
 5715TIP3   OH238559   4.052   1.496   5.599  0.1631  0.1349 -0.2505
 5715TIP3    H138560   4.059   1.590   5.611  1.4926 -0.1208  1.4999
 5715TIP3    H238561   3.979   1.484   5.539 -0.6751  2.2244  0.2846
 5716TIP3   OH238562   2.590   5.333  12.750 -0.1402 -0.2001  0.2416
 5716TIP3    H138563   2.546   5.373  12.825 -0.0208  0.7963 -0.2036
 5716TIP3    H238564   2.523   5.329  12.682  0.0429 -0.0981  0.0541
 5717TIP3   OH238565   1.723   2.699  15.923  0.5247 -0.0751 -0.0040
 5717TIP3    H138566   1.694   2.683  15.834 -0.0654  1.0242 -0.0163
 5717TIP3    H238567   1.810   2.738  15.914 -0.0162  1.1331 -0.1606
 5718TIP3   OH238568   2.348   5.818  13.825 -0.1974  0.0480  0.2893
 5718TIP3    H138569   2.295   5.766  13.885  0.3253 -2.2862 -1.1491
 5718TIP3    H238570   2.438   5.806  13.855 -0.1248  0.8897  0.4542
 5719TIP3   OH238571   3.411   0.835  11.632 -0.4788 -0.0323 -0.7934
 5719TIP3    H138572   3.408   0.919  11.679 -3.1585 -0.2516 -0.3685
 5719TIP3    H238573   3.342   0.844  11.565 -0.4983 -1.7458 -1.0311
 5720TIP3   OH238574   3.697   3.307   4.269  0.4223  0.1846 -0.1683
 5720TIP3    H138575   3.615   3.352   4.290  0.0919 -0.2646 -0.4852
 5720TIP3    H238576   3.760   3.342   4.332  0.0357  0.6747 -0.0442
 5721TIP3   OH238577   4.876   1.062   0.228  0.4119  0.0887  0.2634
 5721TIP3    H138578   4.843   1.090   0.313  0.5597  0.4141  0.2160
 5721TIP3    H238579   4.840   1.125   0.166  1.6702  0.8789  0.2942
 5722TIP3   OH238580   4.605   3.149   5.319  0.2025  0.2351  0.4279
 5722TIP3    H138581   4.565   3.095   5.251  0.1336  1.6187 -0.6953
 5722TIP3    H238582   4.630   3.088   5.387  0.0453 -1.1814 -0.7334
 5723TIP3   OH238583   0.257   6.446   4.053 -0.1784  1.0546 -0.0567
 5723TIP3    H138584   0.237   6.413   4.140  0.3881 -0.3433 -0.4305
 5723TIP3    H238585   0.315   6.380   4.014 -0.6824  1.4678 -1.6076
 5724TIP3   OH238586   5.710   4.449   3.053 -0.2070 -0.0797  0.3155
 5724TIP3    H138587   5.651   4.521   3.032  0.3632  0.2702 -0.1207
 5724TIP3    H238588   5.787   4.490   3.090  0.1587 -0.4523 -0.0133
 5725TIP3   OH238589   0.786   1.364  12.788 -0.3054  0.3662 -0.0287
 5725TIP3    H138590   0.777   1.301  12.860  0.3693 -1.2662 -1.3293
 5725TIP3    H238591   0.765   1.449  12.829 -2.8659 -0.8215  1.4275
 5726TIP3   OH238592   0.838   3.487   1.709  0.2721 -0.7228  0.6202
 5726TIP3    H138593   0.818   3.575   1.742  2.2132 -0.0741  0.2102
 5726TIP3    H238594   0.762   3.434   1.734 -2.1411  1.5608 -1.2204
 5727TIP3   OH238595   2.192   5.540   5.240  0.0080 -0.2462  0.5509
 5727TIP3    H138596   2.114   5.590   5.215  0.3316 -0.3940 -0.8039
 5727TIP3    H238597   2.265   5.590   5.205  0.3299 -1.7815 -1.1500
 5728TIP3   OH238598   2.467   0.318   1.726 -0.5458 -0.2325  0.3802
 5728TIP3    H138599   2.465   0.404   1.769  0.4415  0.1454 -0.2943
 5728TIP3    H238600   2.531   0.268   1.776  0.0750 -0.0297 -0.2039
 5729TIP3   OH238601   5.799   1.481  13.990 -0.3406 -0.2218  0.0051
 5729TIP3    H138602   5.795   1.533  14.071  0.2480 -0.1956  0.0210
 5729TIP3    H238603   5.891   1.456  13.982 -0.1162  0.9270 -1.3850
 5730TIP3   OH238604   2.131   2.673   3.863 -0.7922 -0.9686  0.5364
 5730TIP3    H138605   2.136   2.652   3.956 -0.2953 -1.0812  0.4860
 5730TIP3    H238606   2.193   2.613   3.821  1.5182  1.3048  0.5114
 5731TIP3   OH238607   0.794   1.426   1.254  0.5560 -0.4244  0.7444
 5731TIP3    H138608   0.728   1.479   1.209  0.5817 -0.3361  0.8089
 5731TIP3    H238609   0.869   1.425   1.195  0.3460 -0.8810  0.4807
 5732TIP3   OH238610   5.474   4.706  16.811 -0.0088  0.3564 -0.4270
 5732TIP3    H138611   5.488   4.676  16.901 -0.8543  0.0358 -0.3929
 5732TIP3    H238612   5.555   4.683  16.765  0.6463  1.0162  0.3746
 5733TIP3   OH238613   3.669   0.730  11.694 -0.0759  0.3656  0.5237
 5733TIP3    H138614   3.661   0.756  11.786 -1.1262 -0.7561  0.7804
 5733TIP3    H238615   3.583   0.749  11.656 -0.9805 -2.6328  0.7626
 5734TIP3   OH238616   3.589   5.687   5.935 -0.4482 -0.0461 -0.5053
 5734TIP3    H138617   3.627   5.609   5.976 -0.6754  0.2903  0.3776
 5734TIP3    H238618   3.543   5.732   6.007 -0.7002  0.6643 -1.0949
 5735TIP3   OH238619   4.264   1.682  12.415  0.0079  0.1450 -0.2220
 5735TIP3    H138620   4.346   1.721  12.444  0.3000 -1.3826  1.1227
 5735TIP3    H238621   4.196   1.741  12.449  0.4917  1.1554 -0.9378
 5736TIP3   OH238622   2.072   3.653   5.678  0.0848 -0.0174 -0.0229
 5736TIP3    H138623   2.082   3.743   5.647  0.0493 -0.2830 -0.8266
 5736TIP3    H238624   2.101   3.656   5.770  1.1571  0.5751 -0.3657
 5737TIP3   OH238625   2.145   5.950   4.207 -0.3853 -0.3736 -0.0902
 5737TIP3    H138626   2.077   5.932   4.142 -0.1147 -1.4886 -0.0863
 5737TIP3    H238627   2.099   5.950   4.291 -1.0847  2.9642 -0.3553
 5738TIP3   OH238628   6.630   0.841   5.446 -0.0336  0.2280  0.7022
 5738TIP3    H138629   6.593   0.820   5.531 -0.5309 -1.8061  0.0401
 5738TIP3    H238630   6.557   0.834   5.385  0.5874  0.2736 -0.0717
 5739TIP3   OH238631   6.527   1.107  11.767 -0.1768  1.0148 -0.2674
 5739TIP3    H138632   6.579   1.178  11.804  1.2259 -0.3955  0.5519
 5739TIP3    H238633   6.491   1.061  11.843  0.7413 -0.4616 -0.7009
 5740TIP3   OH238634   4.323   3.820  16.705  0.0202  0.2361 -0.3033
 5740TIP3    H138635   4.389   3.750  16.701  0.0313  0.2111  0.2404
 5740TIP3    H238636   4.248   3.779  16.749  0.1591  0.6622  0.3501
 5741TIP3   OH238637   1.993   0.447   5.926  0.2393  0.2032  0.4130
 5741TIP3    H138638   1.994   0.496   6.008  0.2262 -0.0220  0.5483
 5741TIP3    H238639   2.082   0.457   5.891 -0.1884  1.5890 -0.3211
 5742TIP3   OH238640   0.423   1.098  11.404 -0.1167  0.3178  0.2042
 5742TIP3    H138641   0.369   1.171  11.433 -1.0824 -0.4937  0.4881
 5742TIP3    H238642   0.431   1.042  11.481 -0.9457 -0.8017 -0.4915
 5743TIP3   OH238643   5.676   1.373   4.039 -0.5944 -0.4912 -0.0563
 5743TIP3    H138644   5.603   1.420   4.079  0.9037  2.5920 -0.6290
 5743TIP3    H238645   5.695   1.301   4.100 -1.6152  0.9905  2.1259
 5744TIP3   OH238646   1.931   2.532  12.109 -0.1368  0.4284 -0.0755
 5744TIP3    H138647   1.962   2.590  12.040 -0.1117  0.3853 -0.1002
 5744TIP3    H238648   2.008   2.514  12.162  0.0059 -0.1117 -0.4476
 5745TIP3   OH238649   2.024   4.715  11.710  0.1967 -0.3016 -0.5260
 5745TIP3    H138650   1.937   4.755  11.717  0.5817  0.6935 -1.1427
 5745TIP3    H238651   2.067   4.763  11.639  1.8284  0.3684  0.8128
 5746TIP3   OH238652   2.531   0.813  11.319  0.3644  0.2846  0.4244
 5746TIP3    H138653   2.526   0.765  11.237  0.7401  2.4267 -0.9371
 5746TIP3    H238654   2.453   0.787  11.368 -0.9872  0.5046 -1.5212
 5747TIP3   OH238655   6.766   5.983   5.275  0.1046 -0.0091 -0.2179
 5747TIP3    H138656   6.725   6.023   5.352 -0.6359  0.5806 -0.9005
 5747TIP3    H238657   6.744   6.043   5.203  0.7716 -0.5607 -0.8867
 5748TIP3   OH238658   5.624   4.863  15.906 -0.2312 -0.3077  0.6122
 5748TIP3    H138659   5.579   4.789  15.867  0.3097 -0.0176 -0.6032
 5748TIP3    H238660   5.715   4.854  15.878 -0.2643  1.1022 -0.0394
 5749TIP3   OH238661   1.926   0.084  15.337  0.8141 -0.0414  0.0364
 5749TIP3    H138662   1.958   0.161  15.290 -0.5761 -0.5228 -1.8249
 5749TIP3    H238663   1.835   0.074  15.308  0.9001 -2.2462  0.3627
 5750TIP3   OH238664   2.290   1.941   4.066  0.4203  0.1285  0.0423
 5750TIP3    H138665   2.384   1.954   4.072  0.4246  0.2787 -0.3637
 5750TIP3    H238666   2.253   2.029   4.072  0.1982 -0.0363  1.9722
 5751TIP3   OH238667   1.794   3.921   4.927 -0.2407  0.6186 -1.2633
 5751TIP3    H138668   1.762   3.989   4.986 -1.9407 -0.3367 -1.0407
 5751TIP3    H238669   1.778   3.956   4.839  0.7043  1.3035 -1.1848
 5752TIP3   OH238670   2.497   1.047  13.984  0.5414 -0.5552 -0.3069
 5752TIP3    H138671   2.514   1.141  13.989  0.7086 -0.6668  1.8628
 5752TIP3    H238672   2.407   1.041  13.952 -0.0763  0.4073  1.1716
 5753TIP3   OH238673   3.081   5.612  14.034  0.4662 -0.3704 -0.4197
 5753TIP3    H138674   3.146   5.557  13.990  1.1628  0.1196 -0.0318
 5753TIP3    H238675   3.018   5.635  13.966 -0.6690 -2.8046 -0.3161
 5754TIP3   OH238676   5.191   5.530   0.554  0.0360  0.5231  0.1652
 5754TIP3    H138677   5.102   5.499   0.573  0.0832  0.0070 -0.4044
 5754TIP3    H238678   5.248   5.464   0.594  0.1811  1.2033  1.1070
 5755TIP3   OH238679   1.745   5.047   3.012  0.4171 -0.2671  0.2452
 5755TIP3    H138680   1.739   4.955   3.040 -0.3455 -1.2451 -2.7643
 5755TIP3    H238681   1.793   5.090   3.083  0.8036 -2.9710  1.7796
 5756TIP3   OH238682   3.866   4.324  11.389 -0.1945 -0.2835  1.0888
 5756TIP3    H138683   3.884   4.251  11.330 -0.7893 -0.9329  1.6872
 5756TIP3    H238684   3.771   4.320  11.405 -0.5604  1.6534 -0.1868
 5757TIP3   OH238685   1.147   6.738  13.098  0.2094  0.0155 -0.2079
 5757TIP3    H138686   1.067   6.703  13.136 -0.4813 -0.3252 -1.9092
 5757TIP3    H238687   1.164   6.683  13.022  2.2238 -0.0838  0.2716
 5758TIP3   OH238688   4.776   5.700   4.522 -0.1149 -0.1222 -0.1408
 5758TIP3    H138689   4.779   5.795   4.513  1.2184  0.1849  2.4766
 5758TIP3    H238690   4.699   5.684   4.578  1.1069 -0.2678  1.5796
 5759TIP3   OH238691   3.875   0.271  16.925 -0.2916 -0.0807  0.1389
 5759TIP3    H138692   3.806   0.297  16.864  1.1320  0.0197 -1.5248
 5759TIP3    H238693   3.867   0.176  16.932  0.2242 -0.2397 -1.1463
 5760TIP3   OH238694   6.532   5.510  15.039  0.5072  0.5732  0.1740
 5760TIP3    H138695   6.449   5.475  15.005  1.2948 -1.1573 -0.0262
 5760TIP3    H238696   6.522   5.506  15.134 -0.3180  2.1183  0.1972
 5761TIP3   OH238697   1.435   1.909  16.678  0.2111 -0.0374  0.0777
 5761TIP3    H138698   1.359   1.912  16.737  0.6846  1.5347  0.6708
 5761TIP3    H238699   1.408   1.850  16.608 -1.6568  0.6127  0.1780
 5762TIP3   OH238700   5.329   1.675  14.655  0.0898 -0.4328 -0.1795
 5762TIP3    H138701   5.322   1.591  14.700  1.4176 -1.1701 -1.3031
 5762TIP3    H238702   5.301   1.657  14.565 -0.4100  0.5248 -0.2302
 5763TIP3   OH238703   6.497   4.190  10.514  0.0270  0.6266 -0.4937
 5763TIP3    H138704   6.475   4.283  10.506 -1.8046  0.3548  0.8192
 5763TIP3    H238705   6.593   4.188  10.512  0.1014  2.3416 -2.2073
 5764TIP3   OH238706   0.487   2.037  12.570 -0.1498  0.1999 -0.0992
 5764TIP3    H138707   0.502   1.943  12.557 -1.2393  0.1190 -0.8447
 5764TIP3    H238708   0.416   2.059  12.511 -1.3399  1.0740  1.5741
 5765TIP3   OH238709   5.871   0.851  17.064  0.0835  0.6781 -0.1873
 5765TIP3    H138710   5.912   0.776  17.022 -2.1345 -0.6707 -0.0878
 5765TIP3    H238711   5.903   0.927  17.015  1.5851 -0.3799 -0.9291
 5766TIP3   OH238712   4.968   6.636  16.765  0.3925  0.4637 -0.1824
 5766TIP3    H138713   5.010   6.699  16.707  0.4894  0.5528 -0.0150
 5766TIP3    H238714   4.943   6.563  16.707 -0.2590  0.9128 -0.4792
 5767TIP3   OH238715   5.607   0.526  14.177  0.8781 -0.2263 -0.4610
 5767TIP3    H138716   5.669   0.454  14.186  2.5260  0.7753 -2.6389
 5767TIP3    H238717   5.552   0.501  14.103  1.3057  0.6024 -1.0757
 5768TIP3   OH238718   1.747   4.459   1.311 -0.6049  0.5420  0.0309
 5768TIP3    H138719   1.775   4.376   1.272 -0.3261  0.2416  0.8385
 5768TIP3    H238720   1.826   4.512   1.315 -0.6213  0.5573  0.1978
 5769TIP3   OH238721   5.475   1.933  15.627 -0.2540 -0.0330  0.0449
 5769TIP3    H138722   5.541   1.988  15.669 -2.2111  4.1775 -1.7322
 5769TIP3    H238723   5.407   1.921  15.693  0.7530 -1.5294  0.8467
 5770TIP3   OH238724   3.386   3.322  16.235  0.2768 -0.3435 -0.2743
 5770TIP3    H138725   3.364   3.413  16.252 -0.6597 -0.6877  0.4386
 5770TIP3    H238726   3.475   3.325  16.199 -0.0314  0.9026 -0.9987
 5771TIP3   OH238727   4.817   6.623  11.137 -0.4115  0.1541 -0.2868
 5771TIP3    H138728   4.870   6.571  11.077 -0.6771 -0.0198 -0.3697
 5771TIP3    H238729   4.734   6.576  11.143  0.4859 -1.3305  2.2533
 5772TIP3   OH238730   4.547   1.152   3.449 -0.0239 -0.1002 -0.4799
 5772TIP3    H138731   4.612   1.201   3.398  0.5974  0.7658  1.0714
 5772TIP3    H238732   4.482   1.217   3.474  0.4831 -0.1660  1.0915
 5773TIP3   OH238733   0.217   4.336  15.147  0.2892  0.5981 -0.8038
 5773TIP3    H138734   0.144   4.305  15.200  0.1074 -0.0142 -1.4086
 5773TIP3    H238735   0.295   4.301  15.191  0.1161 -0.2541 -1.1696
 5774TIP3   OH238736   1.221   3.687   5.140 -0.2307 -0.2882  0.0156
 5774TIP3    H138737   1.268   3.767   5.162 -0.1624 -0.4312  0.3951
 5774TIP3    H238738   1.136   3.718   5.107  0.0576 -0.0372 -0.5132
 5775TIP3   OH238739   0.816   0.037  11.959 -0.1212 -0.2296 -0.5181
 5775TIP3    H138740   0.871   0.105  11.921 -1.7689  1.8598  0.6537
 5775TIP3    H238741   0.870  -0.042  11.956  3.1956  1.7667  1.0983
 5776TIP3   OH238742   1.316   4.146   0.146 -0.6746 -0.2528  0.0551
 5776TIP3    H138743   1.293   4.100   0.066 -4.3209 -1.9491  1.8575
 5776TIP3    H238744   1.311   4.239   0.122  1.7313 -0.6113 -2.3808
 5777TIP3   OH238745   6.478   5.874   3.100  0.2654 -0.0670 -0.7703
 5777TIP3    H138746   6.496   5.957   3.057 -1.1915  0.1680 -0.9896
 5777TIP3    H238747   6.389   5.850   3.070 -0.7844  0.0390  1.9735
 5778TIP3   OH238748   3.481   1.128  12.734  0.1221  0.0922  0.1988
 5778TIP3    H138749   3.553   1.110  12.793  0.4715  2.1919  0.4965
 5778TIP3    H238750   3.443   1.042  12.714  3.8413 -1.3757 -1.4972
 5779TIP3   OH238751   3.843   2.201   0.416  0.0356 -0.3608 -0.3774
 5779TIP3    H138752   3.908   2.203   0.345  1.4693  0.1568  0.8896
 5779TIP3    H238753   3.874   2.268   0.477 -1.1788 -0.7967  0.7334
 5780TIP3   OH238754   2.429   4.155   1.277 -0.5905 -0.5826 -0.3368
 5780TIP3    H138755   2.521   4.164   1.298 -0.3591 -2.3774 -0.4649
 5780TIP3    H238756   2.384   4.216   1.336  0.5530 -0.7341  0.6983
 5781TIP3   OH238757   2.427   0.630  13.795  0.1280 -0.4344  0.0783
 5781TIP3    H138758   2.356   0.590  13.846  1.0856  0.1728  1.9672
 5781TIP3    H238759   2.503   0.626  13.852  0.7268  2.3554 -0.3648
 5782TIP3   OH238760   0.020   2.558  14.135 -0.1865  0.0739  0.4986
 5782TIP3    H138761   0.112   2.551  14.160 -0.8027 -3.7047  2.5327
 5782TIP3    H238762  -0.026   2.584  14.215 -1.1773 -2.1454  0.7513
 5783TIP3   OH238763   2.663   2.330  10.853  0.1916 -0.4367  0.8658
 5783TIP3    H138764   2.642   2.413  10.811  2.1541 -0.0472  0.5844
 5783TIP3    H238765   2.588   2.274  10.834 -0.5798  0.8599 -0.0415
 5784TIP3   OH238766   0.680   0.087   5.579  1.2455  0.3627  0.3767
 5784TIP3    H138767   0.685   0.168   5.529 -1.2496  1.9778  2.5000
 5784TIP3    H238768   0.591   0.055   5.566  1.8644 -1.5133  0.4112
 5785TIP3   OH238769   4.536   4.753   0.289 -0.2317 -0.1957 -0.3305
 5785TIP3    H138770   4.556   4.812   0.360 -4.0391 -1.8567  2.4935
 5785TIP3    H238771   4.581   4.672   0.311 -0.2814 -0.2886 -0.5641
 5786TIP3   OH238772   6.359   0.184  13.884 -0.0311  0.4150 -0.2694
 5786TIP3    H138773   6.295   0.153  13.948 -0.9971  0.7677 -1.0393
 5786TIP3    H238774   6.414   0.245  13.933 -1.1773  1.2031  0.0845
 5787TIP3   OH238775   1.823   3.236   3.894  0.1312  0.0983  0.1253
 5787TIP3    H138776   1.848   3.249   3.802 -1.7653  2.1410 -0.1906
 5787TIP3    H238777   1.756   3.302   3.910  1.0362  0.3977  3.2760
 5788TIP3   OH238778   4.423   5.470  12.872 -0.1645 -0.0058  0.4001
 5788TIP3    H138779   4.457   5.517  12.948  1.1096 -1.4063  0.7496
 5788TIP3    H238780   4.487   5.487  12.802 -0.6241  0.2028  0.0286
 5789TIP3   OH238781   0.271   3.904  13.902 -0.1359 -0.1943  0.4123
 5789TIP3    H138782   0.198   3.868  13.851  0.1333 -2.6709  1.6206
 5789TIP3    H238783   0.313   3.965  13.842 -2.4303  0.3822 -0.7627
 5790TIP3   OH238784   5.601   6.512   0.571  0.6163  0.8770 -0.2310
 5790TIP3    H138785   5.579   6.491   0.661 -0.2719  1.4071 -0.3085
 5790TIP3    H238786   5.619   6.428   0.530 -0.1238  0.5282  0.1493
 5791TIP3   OH238787   5.413   5.273   2.945  0.3316  0.2067  0.0329
 5791TIP3    H138788   5.384   5.224   3.022 -1.1655  0.3002 -0.4524
 5791TIP3    H238789   5.389   5.364   2.963  0.8062  0.3797 -0.1662
 5792TIP3   OH238790   6.507   4.579   4.361  0.7263  0.2004 -0.2230
 5792TIP3    H138791   6.501   4.659   4.307 -1.8554 -0.3508 -0.8758
 5792TIP3    H238792   6.471   4.604   4.446  0.5725 -0.0886 -0.2020
 5793TIP3   OH238793   6.089   1.167   5.177 -0.0543 -0.1900 -0.0381
 5793TIP3    H138794   6.066   1.110   5.103  1.4475 -0.3142 -0.4538
 5793TIP3    H238795   6.055   1.253   5.152  1.3342  0.0158 -1.4150
 5794TIP3   OH238796   5.703   3.570  10.645  0.4937 -0.1577 -0.1609
 5794TIP3    H138797   5.645   3.646  10.646  0.9571  0.2379 -1.3285
 5794TIP3    H238798   5.779   3.599  10.594  0.1596 -1.7765 -1.6452
 5795TIP3   OH238799   3.572   4.325  15.964 -0.2171  0.2914  0.1649
 5795TIP3    H138800   3.541   4.309  15.874 -0.9332 -1.0660  0.6238
 5795TIP3    H238801   3.497   4.366  16.008 -0.1354  0.2577  0.3357
 5796TIP3   OH238802   5.892   4.997   5.603 -0.8549  0.6794 -0.6033
 5796TIP3    H138803   5.894   5.022   5.695 -1.5147 -0.6620 -0.1928
 5796TIP3    H238804   5.907   5.079   5.555  0.2238  1.2702  0.6892
 5797TIP3   OH238805   1.105   3.128  12.266 -1.1032  0.0389  0.3273
 5797TIP3    H138806   1.180   3.154  12.213 -1.5982  0.0140 -0.3978
 5797TIP3    H238807   1.140   3.061  12.325 -0.4333  0.4259  0.3875
 5798TIP3   OH238808   5.889   2.524   3.250 -0.4025  0.6046 -0.5368
 5798TIP3    H138809   5.921   2.471   3.322 -0.7137  1.6999  0.4490
 5798TIP3    H238810   5.913   2.476   3.171  3.5831  1.2471  0.0700
 5799TIP3   OH238811   6.645   5.175   5.046  0.5338 -0.0904 -0.1036
 5799TIP3    H138812   6.688   5.157   4.962  1.2914 -3.6036  0.8929
 5799TIP3    H238813   6.552   5.168   5.027  0.5908  1.0555 -0.9654
 5800TIP3   OH238814   0.521   1.349  17.096 -0.0806  0.2616  0.3567
 5800TIP3    H138815   0.563   1.428  17.130  0.1347 -0.4877  1.9286
 5800TIP3    H238816   0.524   1.287  17.169 -1.6721 -0.6610 -0.2977
 5801TIP3   OH238817   0.386   6.735   3.498 -0.2349  0.3781  0.0392
 5801TIP3    H138818   0.340   6.687   3.429  0.2993 -0.5890  0.3373
 5801TIP3    H238819   0.479   6.726   3.476 -0.0807  0.4174  0.6537
 5802TIP3   OH238820   5.242   4.863   4.607  0.1809  0.7743 -1.1221
 5802TIP3    H138821   5.234   4.769   4.621 -0.2188  0.8569 -0.7740
 5802TIP3    H238822   5.179   4.883   4.538  0.7629  0.6797 -1.6917
 5803TIP3   OH238823   4.672   2.830  15.365 -0.1232 -1.1204 -0.0058
 5803TIP3    H138824   4.636   2.852  15.452 -0.2864  1.0160 -0.5527
 5803TIP3    H238825   4.640   2.741  15.348 -0.3655 -1.4701  1.9680
 5804TIP3   OH238826   3.819   5.495   6.402  0.4839 -0.9691 -0.0176
 5804TIP3    H138827   3.726   5.511   6.418  1.0016  0.7684  1.5878
 5804TIP3    H238828   3.831   5.402   6.423 -1.0441 -1.5065 -1.2898
 5805TIP3   OH238829   4.751   6.109  11.147  0.1811 -0.6496 -0.3463
 5805TIP3    H138830   4.672   6.060  11.124  0.1116  0.1034 -1.8945
 5805TIP3    H238831   4.731   6.199  11.120  0.5058  0.1500  1.9246
 5806TIP3   OH238832   1.820   3.501   3.237 -0.1958 -0.6157 -0.0750
 5806TIP3    H138833   1.754   3.496   3.306  0.1744 -1.0283  0.2521
 5806TIP3    H238834   1.770   3.491   3.155 -0.5247 -1.0327  0.1749
 5807TIP3   OH238835   1.997   4.657   5.978  0.0395 -0.0486  0.4618
 5807TIP3    H138836   2.073   4.710   5.956  0.5346 -0.8282  0.2491
 5807TIP3    H238837   2.012   4.631   6.069 -0.4595  0.5947  0.7349
 5808TIP3   OH238838   3.379   4.766  12.897 -0.2052  0.0791  0.0439
 5808TIP3    H138839   3.324   4.837  12.865 -0.4690  0.2713  0.9097
 5808TIP3    H238840   3.469   4.798  12.886 -0.2266 -0.3156 -1.5664
 5809TIP3   OH238841   5.452   0.940  10.272  0.0907  0.3846 -0.3604
 5809TIP3    H138842   5.372   0.976  10.310  0.6133  0.2939  0.8440
 5809TIP3    H238843   5.421   0.873  10.210 -0.7352 -1.4884  1.9556
 5810TIP3   OH238844   6.455   5.182  16.994  0.1475  0.3573  0.2965
 5810TIP3    H138845   6.463   5.160  17.087 -0.9587  1.0375  0.5739
 5810TIP3    H238846   6.537   5.151  16.955  1.0868  0.9930  1.6802
 5811TIP3   OH238847   2.290   0.973   4.811 -0.8085  0.1473  0.5210
 5811TIP3    H138848   2.349   0.907   4.848 -1.5351 -0.9499 -0.2148
 5811TIP3    H238849   2.326   0.991   4.724 -0.7782  0.4980  0.6071
 5812TIP3   OH238850   1.715   3.803   0.796  0.1696  0.3944  0.3735
 5812TIP3    H138851   1.794   3.770   0.753  0.7189  1.1252  0.7867
 5812TIP3    H238852   1.655   3.729   0.796 -0.6893  0.8821 -3.4939
 5813TIP3   OH238853   2.088   2.508  15.822  0.1191  0.2722  0.2667
 5813TIP3    H138854   2.110   2.491  15.730  0.1041  0.0891  0.2977
 5813TIP3    H238855   2.045   2.428  15.852  0.6978  0.0855  0.6192
 5814TIP3   OH238856   0.956   0.422   2.837 -0.2288  0.0601 -0.1266
 5814TIP3    H138857   0.963   0.517   2.827 -0.0116  0.1363  0.7145
 5814TIP3    H238858   1.041   0.389   2.807 -0.1013  0.1791  0.0985
 5815TIP3   OH238859   0.650   1.095   4.840 -0.0446  0.1022 -0.6985
 5815TIP3    H138860   0.630   1.001   4.838  0.0904  0.0467  0.2228
 5815TIP3    H238861   0.565   1.137   4.850  0.0655 -0.0373  1.0886
 5816TIP3   OH238862   6.771   5.388  15.557 -0.0702 -0.5593 -0.3941
 5816TIP3    H138863   6.790   5.459  15.495 -0.1344  0.3505  0.5908
 5816TIP3    H238864   6.847   5.331  15.552  0.7304  0.4364 -0.0577
 5817TIP3   OH238865   1.268   2.276  11.139  0.4043 -0.0760 -0.5025
 5817TIP3    H138866   1.179   2.252  11.163 -0.8760  0.3732 -4.0980
 5817TIP3    H238867   1.258   2.353  11.083  3.3541  1.6242  1.0500
 5818TIP3   OH238868   4.583   6.750   0.041  0.1437  0.4873 -0.0261
 5818TIP3    H138869   4.619   6.835   0.067 -1.5638  0.6020  2.3106
 5818TIP3    H238870   4.525   6.770  -0.032  0.1072  1.2732  0.2016
 5819TIP3   OH238871   1.972   2.736  16.731  0.3948 -0.0921  0.3314
 5819TIP3    H138872   1.965   2.711  16.639 -0.1514  0.6661  0.1628
 5819TIP3    H238873   2.033   2.810  16.731  1.6018 -1.0456  0.7663
 5820TIP3   OH238874   1.233   5.481  15.030 -0.5919  0.2146  0.3181
 5820TIP3    H138875   1.256   5.515  14.944 -3.0240 -0.9903 -0.9463
 5820TIP3    H238876   1.137   5.485  15.032 -0.6710 -1.1379  2.3760
 5821TIP3   OH238877   0.145   6.653  15.004 -0.2501 -0.5415  0.1146
 5821TIP3    H138878   0.124   6.738  15.041 -2.4029 -0.2600 -1.5956
 5821TIP3    H238879   0.224   6.625  15.051  0.6227  2.4470  0.5860
 5822TIP3   OH238880   4.560   5.337  11.725  0.3277 -0.4290 -0.5698
 5822TIP3    H138881   4.546   5.288  11.806 -0.0116 -0.5402 -0.6947
 5822TIP3    H238882   4.574   5.427  11.753  1.4638 -0.6695 -0.3023
 5823TIP3   OH238883   2.961   4.259  15.098  0.0248 -0.6021 -0.3291
 5823TIP3    H138884   2.875   4.276  15.136  1.1049  0.6405  1.7850
 5823TIP3    H238885   2.991   4.344  15.066  1.0860 -0.6671  0.4177
 5824TIP3   OH238886   2.893   2.070   3.698 -0.4221 -0.0906 -0.0221
 5824TIP3    H138887   2.802   2.098   3.686 -0.4619 -0.4618 -0.6568
 5824TIP3    H238888   2.920   2.110   3.780 -1.4974 -0.8371  0.7347
 5825TIP3   OH238889   0.825   5.052  10.786  0.2315  0.0097  0.5478
 5825TIP3    H138890   0.793   5.138  10.758  0.5887  0.1276  0.4918
 5825TIP3    H238891   0.762   4.990  10.751 -0.2168  0.2731  0.8807
 5826TIP3   OH238892   0.752   2.315   4.261  0.4578  0.0252 -0.0920
 5826TIP3    H138893   0.819   2.251   4.285  0.4489 -0.3683 -1.0499
 5826TIP3    H238894   0.670   2.265   4.262  0.1860  0.4619  0.8978
 5827TIP3   OH238895   3.176   3.998  12.625  0.1250 -0.2638 -0.0623
 5827TIP3    H138896   3.211   4.070  12.678 -0.5947  1.6811 -2.0637
 5827TIP3    H238897   3.085   3.990  12.653 -0.0058  0.1334 -0.3736
 5828TIP3   OH238898   5.656   2.502   0.638  0.7525  0.2194 -0.6933
 5828TIP3    H138899   5.585   2.439   0.646  1.7469 -0.7999  0.5468
 5828TIP3    H238900   5.624   2.580   0.684 -0.2787  0.4727 -1.7862
 5829TIP3   OH238901   5.499   3.023  11.512  0.1113  0.2453  0.4493
 5829TIP3    H138902   5.524   2.950  11.570  2.0768  1.8274  1.7029
 5829TIP3    H238903   5.567   3.025  11.445 -0.8555 -0.0675 -0.5774
 5830TIP3   OH238904   3.792   6.049   0.782 -0.5188  0.3357 -0.0985
 5830TIP3    H138905   3.881   6.073   0.754 -0.8568  0.4020 -1.1418
 5830TIP3    H238906   3.744   6.035   0.701 -1.0585 -1.2546  0.4448
 5831TIP3   OH238907   4.618   5.412   4.116  0.3648  0.1475  0.3084
 5831TIP3    H138908   4.632   5.318   4.118  0.9664  0.2272  2.2667
 5831TIP3    H238909   4.601   5.436   4.208 -2.5715  1.5670 -0.4647
 5832TIP3   OH238910   0.097   2.259  14.726 -0.3097  0.4473 -0.0980
 5832TIP3    H138911   0.138   2.342  14.701 -1.7352  0.8455 -1.1877
 5832TIP3    H238912   0.170   2.198  14.731  1.1187  2.1291  2.7465
 5833TIP3   OH238913   1.731   1.162  13.988 -0.0621  0.2932 -0.0151
 5833TIP3    H138914   1.780   1.143  13.907 -0.1696 -0.8548  0.1789
 5833TIP3    H238915   1.769   1.245  14.019  1.4469 -0.3143 -0.1248
 5834TIP3   OH238916   1.010   4.368  13.374  0.3556 -0.4802  0.1036
 5834TIP3    H138917   0.949   4.438  13.351  0.2108  0.1344  2.1647
 5834TIP3    H238918   0.995   4.353  13.467  0.5009 -3.1730 -0.2268
 5835TIP3   OH238919   5.941   4.995   0.948  0.6934  0.2134  0.5112
 5835TIP3    H138920   5.940   5.007   0.853  0.5364  0.4052  0.5346
 5835TIP3    H238921   5.867   5.048   0.979  1.6787  1.4395  0.8798
 5836TIP3   OH238922   0.609   0.346  12.491  0.4273  0.1234  0.4022
 5836TIP3    H138923   0.666   0.410  12.533 -1.3153  3.2989 -1.6235
 5836TIP3    H238924   0.644   0.338  12.402 -0.4583 -0.2537  0.0743
 5837TIP3   OH238925   5.694   1.784   2.726 -0.0805 -0.2021  0.0435
 5837TIP3    H138926   5.630   1.814   2.791  2.2014  0.7167  1.9801
 5837TIP3    H238927   5.660   1.699   2.697 -0.3650 -1.5779  3.8205
 5838TIP3   OH238928   5.924   4.746  11.389  0.5553 -0.4444 -0.3473
 5838TIP3    H138929   5.917   4.810  11.459 -0.3287 -2.0673  1.1294
 5838TIP3    H238930   5.975   4.790  11.321 -0.3685  1.9267  0.4149
 5839TIP3   OH238931   6.426   1.711   1.136  0.4900  0.0457 -0.0412
 5839TIP3    H138932   6.393   1.674   1.219 -0.7718  1.5140  0.1597
 5839TIP3    H238933   6.351   1.758   1.099  1.5642  1.0207 -1.0744
 5840TIP3   OH238934   5.945   5.332   4.651  0.3124 -0.5373 -0.0614
 5840TIP3    H138935   5.863   5.378   4.635  1.7721  2.3196  0.1198
 5840TIP3    H238936   5.992   5.337   4.568  0.6262 -1.5281  0.0392
 5841TIP3   OH238937   1.981   0.055   3.481  0.7017  0.0098  0.9855
 5841TIP3    H138938   2.063   0.102   3.492  1.4651 -1.4333  1.8647
 5841TIP3    H238939   1.973   0.002   3.561  0.8108 -2.6269 -0.6448
 5842TIP3   OH238940   2.296   1.628  17.053  0.0282  0.6201 -0.6707
 5842TIP3    H138941   2.220   1.587  17.011  0.5657 -0.5596 -0.5394
 5842TIP3    H238942   2.260   1.706  17.095 -1.4713 -0.7838  0.8264
 5843TIP3   OH238943   6.357   2.493  13.622  0.0180  0.4046 -0.3061
 5843TIP3    H138944   6.449   2.518  13.631  0.4176 -1.5285  1.9305
 5843TIP3    H238945   6.353   2.446  13.538  2.0955 -2.9939  1.2671
 5844TIP3   OH238946   6.400   1.392   4.448 -0.2966 -0.0440 -0.4979
 5844TIP3    H138947   6.362   1.386   4.535 -1.2210 -1.9431 -0.9914
 5844TIP3    H238948   6.325   1.396   4.389  0.3131  0.1753 -1.2885
 5845TIP3   OH238949   1.714   5.391  13.037  0.1840  0.1423  0.4970
 5845TIP3    H138950   1.754   5.357  12.957  0.9297  1.4994  0.2544
 5845TIP3    H238951   1.776   5.369  13.106  0.6903  1.0030  0.3331
 5846TIP3   OH238952   0.072   6.705  13.845  0.3973  0.4376  0.3390
 5846TIP3    H138953   0.083   6.647  13.769  0.3024  0.3637  0.3798
 5846TIP3    H238954   0.014   6.774  13.814  0.0131  0.1758  0.4641
 5847TIP3   OH238955   5.154   1.868   0.970  0.0750 -0.1931  0.1493
 5847TIP3    H138956   5.074   1.871   1.022  0.9828 -0.0547  1.5850
 5847TIP3    H238957   5.213   1.811   1.020  1.5569  1.2533  0.1426
 5848TIP3   OH238958   0.708   6.129  14.326 -0.2158  0.4939  0.5617
 5848TIP3    H138959   0.696   6.048  14.375  2.2578 -0.6804 -0.5819
 5848TIP3    H238960   0.773   6.178  14.376  0.3583  0.4895 -0.1692
 5849TIP3   OH238961   6.731   0.869  14.182 -0.0837 -0.2555 -0.1428
 5849TIP3    H138962   6.768   0.807  14.119  1.6183  0.0091  0.5395
 5849TIP3    H238963   6.714   0.816  14.260  1.6319  0.1269  0.5378
 5850TIP3   OH238964   2.050   4.450  12.272 -0.4483 -0.0299 -0.3960
 5850TIP3    H138965   2.086   4.458  12.360 -2.1940  0.2503  0.3302
 5850TIP3    H238966   2.068   4.534  12.231 -0.9830  0.3947  0.2325
 5851TIP3   OH238967   1.720   0.312   0.084  0.0270 -0.5325  0.2042
 5851TIP3    H138968   1.753   0.343   0.169  0.1064  0.7098 -0.2491
 5851TIP3    H238969   1.783   0.246   0.056  0.3125 -0.5440  0.8541
 5852TIP3   OH238970   2.175   5.674  14.006  0.0592 -0.0303 -0.1162
 5852TIP3    H138971   2.106   5.640  13.950  0.3506  0.4530 -0.7832
 5852TIP3    H238972   2.215   5.597  14.045  0.8815 -0.4959 -1.8063
 5853TIP3   OH238973   4.399   5.794   0.192  0.0910  0.0518 -0.3806
 5853TIP3    H138974   4.402   5.732   0.265 -1.0574  0.9664  0.4807
 5853TIP3    H238975   4.321   5.848   0.209  0.8777  1.5388 -1.2538
 5854TIP3   OH238976   6.297   6.666  13.455 -0.4570 -0.3069  0.0901
 5854TIP3    H138977   6.340   6.698  13.535 -0.0397  0.7431 -0.5383
 5854TIP3    H238978   6.346   6.587  13.433  0.2981  0.1310  0.1416
 5855TIP3   OH238979   2.774   0.693   0.524 -0.3630  0.3968 -0.1840
 5855TIP3    H138980   2.809   0.755   0.588 -2.8148 -0.6583  2.3795
 5855TIP3    H238981   2.839   0.622   0.521 -0.0557  0.6133  0.9116
 5856TIP3   OH238982   1.002   5.039  14.735  0.0262  0.1942 -0.2171
 5856TIP3    H138983   1.073   5.065  14.793 -1.5773  1.5728  1.2513
 5856TIP3    H238984   1.045   4.991  14.664  2.4649  1.5536  0.2348
 5857TIP3   OH238985   1.021   5.280   4.298  0.5908  0.1710  0.4094
 5857TIP3    H138986   1.074   5.360   4.296  0.1061  0.4842 -0.4113
 5857TIP3    H238987   0.980   5.281   4.384 -1.2671  2.0622 -0.4023
 5858TIP3   OH238988   3.483   2.347   0.194 -0.0558 -0.4751 -0.1039
 5858TIP3    H138989   3.421   2.416   0.220 -0.9648 -1.6027  0.8896
 5858TIP3    H238990   3.473   2.341   0.099 -0.9262 -0.1193 -0.0542
 5859TIP3   OH238991   6.783   3.842  14.504 -0.4415  0.0722  0.2335
 5859TIP3    H138992   6.784   3.884  14.418 -2.2812 -0.4462 -0.1055
 5859TIP3    H238993   6.837   3.897  14.559 -1.3002  1.8727 -0.6391
 5860TIP3   OH238994   5.600   2.960  14.570  0.7809  0.1198 -0.1581
 5860TIP3    H138995   5.588   2.947  14.476  0.9473  0.8415 -0.2862
 5860TIP3    H238996   5.627   3.051  14.579  1.3821 -0.1158  0.5425
 5861TIP3   OH238997   0.659   2.688   5.272  0.0106 -0.3079 -0.2789
 5861TIP3    H138998   0.629   2.600   5.251 -0.2918 -0.1935 -0.3388
 5861TIP3    H238999   0.587   2.726   5.322 -0.3818  0.3131 -1.2708
 5862TIP3   OH239000   6.163   1.611   5.244 -0.5966  0.2166 -0.2136
 5862TIP3    H139001   6.237   1.634   5.301  0.3948 -0.1640 -1.3091
 5862TIP3    H239002   6.095   1.581   5.304  1.4780 -3.2646  0.6943
 5863TIP3   OH239003   1.716   0.540  11.094 -0.1098  0.1996  0.2921
 5863TIP3    H139004   1.680   0.477  11.032  1.0646 -0.0808 -0.1176
 5863TIP3    H239005   1.651   0.611  11.096  0.9117  1.4245 -3.1522
 5864TIP3   OH239006   3.532   1.655   2.057 -0.5273  0.2504  0.0108
 5864TIP3    H139007   3.557   1.642   1.965  0.7120 -1.0045  0.4819
 5864TIP3    H239008   3.505   1.568   2.087  0.6521  0.2781  1.2530
 5865TIP3   OH239009   2.354   0.946  15.075  0.0357 -0.4105  0.5845
 5865TIP3    H139010   2.441   0.927  15.040 -0.2258  0.4147 -0.6039
 5865TIP3    H239011   2.370   0.990  15.158  0.7234 -1.1198  0.8417
 5866TIP3   OH239012   1.915   0.447  15.670 -0.2040  0.0354  0.4559
 5866TIP3    H139013   1.995   0.400  15.695  0.0934  0.9725  1.3192
 5866TIP3    H239014   1.945   0.529  15.631 -0.7056  1.2355  2.4453
 5867TIP3   OH239015   4.944   3.493  14.340  0.1748 -0.5364  0.0610
 5867TIP3    H139016   4.962   3.587  14.343 -0.6987 -0.3187 -0.7726
 5867TIP3    H239017   5.029   3.452  14.326  0.7999 -0.0068  1.9561
 5868TIP3   OH239018   6.756   6.485   3.698 -0.1813  0.3318  0.0199
 5868TIP3    H139019   6.775   6.393   3.714  2.1748  0.7024 -0.2821
 5868TIP3    H239020   6.761   6.527   3.784  2.1567  0.6551 -0.1959
 5869TIP3   OH239021   3.651   6.467   5.239 -0.5829  0.5679  0.3496
 5869TIP3    H139022   3.654   6.422   5.323  2.2482 -0.5980 -0.2625
 5869TIP3    H239023   3.742   6.487   5.219 -1.1332  0.6285 -2.5401
 5870TIP3   OH239024   4.540   0.335   3.732  0.1026  0.2152  0.1985
 5870TIP3    H139025   4.538   0.376   3.646 -1.3004  0.4757  0.3328
 5870TIP3    H239026   4.631   0.307   3.743 -0.0091 -1.3372 -2.0828
 5871TIP3   OH239027   3.236   5.524  13.832  0.5439 -0.0815 -0.0563
 5871TIP3    H139028   3.324   5.507  13.866  0.4244  0.0891  0.3333
 5871TIP3    H239029   3.232   5.472  13.751  1.1581  0.2509 -0.3124
 5872TIP3   OH239030   2.799   3.170   0.127 -0.4585 -0.5827 -0.9753
 5872TIP3    H139031   2.788   3.252   0.078 -1.2838 -0.7607 -1.1038
 5872TIP3    H239032   2.727   3.115   0.098 -1.9487 -0.1332  1.5628
 5873TIP3   OH239033   1.450   2.917  14.400 -0.4092 -0.3597 -0.4803
 5873TIP3    H139034   1.517   2.918  14.468  1.5273  0.5494 -2.2701
 5873TIP3    H239035   1.457   3.003  14.358 -0.9346 -1.1751 -2.3501
 5874TIP3   OH239036   3.692   4.110  12.663  0.2852 -0.2241  0.3629
 5874TIP3    H139037   3.648   4.025  12.667  0.4331 -0.3824 -1.1137
 5874TIP3    H239038   3.621   4.174  12.671 -0.0382 -0.4810 -0.4379
 5875TIP3   OH239039   1.114   0.583   0.587 -0.1379 -0.0073 -0.3078
 5875TIP3    H139040   1.108   0.559   0.494 -1.6035 -0.9567  0.0014
 5875TIP3    H239041   1.174   0.519   0.624  0.5779  0.4735 -0.6238
 5876TIP3   OH239042   2.725   5.318   6.141 -0.2040 -0.2047 -0.2249
 5876TIP3    H139043   2.719   5.239   6.195 -0.6910 -0.0772 -0.0884
 5876TIP3    H239044   2.672   5.383   6.187  0.7678  0.4252  0.0326
 5877TIP3   OH239045   6.700   1.861   6.026  0.1608  0.3332 -0.3270
 5877TIP3    H139046   6.670   1.855   6.117  0.5408  1.6744 -0.0931
 5877TIP3    H239047   6.632   1.913   5.983  1.5320  2.4832 -0.0371
 5878TIP3   OH239048   3.245   4.820  13.735  0.7978 -0.2440  0.5122
 5878TIP3    H139049   3.335   4.849  13.748  1.2715 -1.1633 -0.6046
 5878TIP3    H239050   3.239   4.800  13.642 -0.3960 -0.7978  0.6851
 5879TIP3   OH239051   6.329   0.165   0.975 -0.0634  0.0042  0.7147
 5879TIP3    H139052   6.238   0.190   0.956  0.1513  0.0729 -0.2698
 5879TIP3    H239053   6.321   0.097   1.042 -0.9536 -1.1682 -0.5296
 5880TIP3   OH239054   5.938   2.039  13.064  0.0174 -0.7895 -0.4551
 5880TIP3    H139055   5.921   2.001  12.978  0.5730  0.8307 -1.3455
 5880TIP3    H239056   6.031   2.023  13.079 -0.2361 -1.6971  0.1899
 5881TIP3   OH239057   1.621   0.330  16.255  0.1464 -0.0828 -0.1017
 5881TIP3    H139058   1.642   0.338  16.348 -0.6012 -1.0197  0.1707
 5881TIP3    H239059   1.615   0.236  16.240  2.6605 -0.0749 -1.6809
 5882TIP3   OH239060   1.469   0.862  11.651  0.1782  0.1765  0.1473
 5882TIP3    H139061   1.502   0.948  11.625 -1.6901  1.8201  2.7614
 5882TIP3    H239062   1.541   0.824  11.702  0.4369  0.8977  0.3351
 5883TIP3   OH239063   1.506   6.729   2.280 -0.2852  0.1999 -0.3184
 5883TIP3    H139064   1.564   6.666   2.237 -0.3105 -1.0834  1.4093
 5883TIP3    H239065   1.433   6.676   2.312 -1.3283  1.4554 -0.5616
 5884TIP3   OH239066   6.665   4.559  14.625  0.4609 -0.1953 -0.8321
 5884TIP3    H139067   6.569   4.565  14.622  0.4228  0.1093  0.4193
 5884TIP3    H239068   6.693   4.590  14.539 -0.4932  1.5715 -0.5656
 5885TIP3   OH239069   6.026   6.551  14.339 -0.0584  0.3253 -0.2753
 5885TIP3    H139070   5.968   6.552  14.263  0.3596  1.6375 -0.5949
 5885TIP3    H239071   6.097   6.492  14.314 -1.0516 -1.0600  0.0014
 5886TIP3   OH239072   6.441   2.481  11.670 -0.3463  0.5130 -0.3560
 5886TIP3    H139073   6.375   2.507  11.734  0.0244 -2.5286  1.4491
 5886TIP3    H239074   6.524   2.486  11.718  0.0342 -1.1124 -0.7878
 5887TIP3   OH239075   1.189   4.774   1.149 -0.1209 -0.1307 -0.0869
 5887TIP3    H139076   1.113   4.752   1.096 -0.7587 -0.9204  1.0971
 5887TIP3    H239077   1.249   4.700   1.139  1.0085  0.9501 -1.8424
 5888TIP3   OH239078   4.171   1.807   2.404 -0.4878  0.2784 -0.0631
 5888TIP3    H139079   4.079   1.784   2.393 -1.4696  2.2023  2.8635
 5888TIP3    H239080   4.203   1.823   2.316 -3.2111  0.4208 -1.1159
 5889TIP3   OH239081   5.090   3.465  12.634  0.2438  0.1231 -0.3543
 5889TIP3    H139082   5.015   3.406  12.632  0.3440  0.0101 -1.8447
 5889TIP3    H239083   5.157   3.422  12.580  1.1610  0.5141  0.4368
 5890TIP3   OH239084   3.873   5.327   2.436  0.3495 -0.1438  0.0638
 5890TIP3    H139085   3.801   5.379   2.401 -0.3254 -1.9438 -1.3720
 5890TIP3    H239086   3.864   5.334   2.531 -1.8950 -0.4959 -0.0728
 5891TIP3   OH239087   5.717   3.807  15.780 -0.2071 -0.1163 -0.7889
 5891TIP3    H139088   5.692   3.770  15.695  1.9300  0.8533 -1.9170
 5891TIP3    H239089   5.789   3.866  15.760  0.2667  0.2500  1.7109
 5892TIP3   OH239090   1.726   0.960   4.770 -0.5079 -0.6216 -0.0766
 5892TIP3    H139091   1.711   0.866   4.781 -0.0786 -0.5774  1.0880
 5892TIP3    H239092   1.822   0.969   4.768 -0.5401 -0.1982  0.0873
 5893TIP3   OH239093   6.623   1.186  15.684 -0.5799  0.2266 -0.2355
 5893TIP3    H139094   6.538   1.225  15.706 -0.4496 -0.6149  2.0428
 5893TIP3    H239095   6.616   1.095  15.715  1.5102  0.4615  1.0892
 5894TIP3   OH239096   2.739   1.750  12.245 -0.8693 -0.4965 -0.6676
 5894TIP3    H139097   2.746   1.756  12.149  0.0166 -0.3062 -0.6032
 5894TIP3    H239098   2.823   1.784  12.277 -1.9668  1.5566  0.2649
 5895TIP3   OH239099   6.076   2.279  16.192  0.1800 -0.2054  0.4101
 5895TIP3    H139100   6.025   2.359  16.201 -1.0038 -0.8434 -0.2606
 5895TIP3    H239101   6.109   2.281  16.102  1.1301  0.0621  0.7487
 5896TIP3   OH239102   4.852   1.500  16.892 -0.2413 -0.0394 -0.3554
 5896TIP3    H139103   4.758   1.516  16.896 -0.0395  0.9389  0.6051
 5896TIP3    H239104   4.880   1.541  16.810 -0.5133  0.4012 -0.2284
 5897TIP3   OH239105   6.706   3.561  15.948 -0.2199 -0.2864 -0.4669
 5897TIP3    H139106   6.739   3.527  15.865  0.5083 -1.2898  0.2002
 5897TIP3    H239107   6.660   3.642  15.925 -1.2231 -1.2440 -2.0075
 5898TIP3   OH239108   4.884   6.383  13.904 -0.3806  0.3747 -0.0130
 5898TIP3    H139109   4.963   6.429  13.932  0.1804 -0.4852 -0.1528
 5898TIP3    H239110   4.906   6.290  13.909 -1.3613  0.1180 -0.1212
 5899TIP3   OH239111   3.785   2.662  15.157 -0.4272  0.3241 -0.3276
 5899TIP3    H139112   3.812   2.583  15.109 -1.1613 -2.3086  3.2052
 5899TIP3    H239113   3.868   2.700  15.187 -0.1194  0.1953 -0.9778
 5900TIP3   OH239114   6.565   5.340   5.388 -0.0835  0.0369  0.0364
 5900TIP3    H139115   6.620   5.277   5.342  2.0112  0.5412  1.6979
 5900TIP3    H239116   6.572   5.315   5.480  0.1927  2.2115  0.6629
 5901TIP3   OH239117   1.352   4.408   0.606  0.1339 -0.1009 -0.0792
 5901TIP3    H139118   1.379   4.365   0.525  2.5336 -1.4609  1.3348
 5901TIP3    H239119   1.315   4.338   0.659  0.9845  0.2184  0.9652
 5902TIP3   OH239120   0.051   5.270   1.362  0.3175 -0.2183  0.5923
 5902TIP3    H139121  -0.005   5.244   1.288  1.5148  1.1602 -0.8567
 5902TIP3    H239122   0.046   5.195   1.422 -2.5268 -0.4387  0.2496
 5903TIP3   OH239123   1.830   6.455   1.333  0.0769 -0.2760  0.0513
 5903TIP3    H139124   1.792   6.466   1.420  0.9501  0.4472  0.3521
 5903TIP3    H239125   1.890   6.529   1.323 -0.8565  0.3183 -1.6334
 5904TIP3   OH239126   3.030   6.151   2.959 -0.1443  0.6738 -0.3560
 5904TIP3    H139127   3.002   6.171   2.869  1.6632 -1.1870 -1.4238
 5904TIP3    H239128   3.020   6.234   3.006 -3.6612  1.0756 -1.5295
 5905TIP3   OH239129   4.623   6.533  15.619 -0.2814 -0.2571 -0.2518
 5905TIP3    H139130   4.627   6.628  15.632 -0.5577 -0.4542  1.4841
 5905TIP3    H239131   4.711   6.502  15.640  0.1753 -0.2925 -2.0390
 5906TIP3   OH239132   1.764   3.900   3.727 -0.3542  0.0282  0.4992
 5906TIP3    H139133   1.794   3.985   3.760 -0.6406 -0.3388  1.7445
 5906TIP3    H239134   1.675   3.917   3.695 -0.6808  0.0527  1.4054
 5907TIP3   OH239135   1.990   6.185   6.399  0.2105 -0.3659 -0.6265
 5907TIP3    H139136   1.951   6.099   6.410 -0.8206  0.1971  0.3341
 5907TIP3    H239137   1.917   6.242   6.375  1.1350 -0.0352 -2.8602
 5908TIP3   OH239138   3.466   6.483  16.699  0.5032 -0.0997  0.1300
 5908TIP3    H139139   3.492   6.532  16.622 -0.7888 -1.0345 -0.9558
 5908TIP3    H239140   3.380   6.518  16.723  0.4975 -0.4152  0.6049
 5909TIP3   OH239141   4.154   2.370  14.966  0.1455 -0.6820 -0.3061
 5909TIP3    H139142   4.186   2.398  15.052 -1.4257 -0.1336  0.1351
 5909TIP3    H239143   4.217   2.304  14.937  1.4861  0.1507  0.6158
 5910TIP3   OH239144   4.094   5.360  15.194 -0.2996  0.6712  0.7766
 5910TIP3    H139145   4.023   5.321  15.144 -0.4966  2.0905 -0.1151
 5910TIP3    H239146   4.094   5.452  15.167  2.7417  0.4639 -0.3393
 5911TIP3   OH239147   3.678   5.757  12.724  0.0548 -0.2295  0.3366
 5911TIP3    H139148   3.761   5.711  12.735  0.3893 -0.3487 -2.0776
 5911TIP3    H239149   3.682   5.828  12.788  0.6647 -1.9382  2.3428
 5912TIP3   OH239150   0.626   0.069  13.456  0.5947  0.3613  0.2302
 5912TIP3    H139151   0.612  -0.024  13.474  3.5056 -0.3306 -0.5433
 5912TIP3    H239152   0.630   0.109  13.543 -1.6196 -0.0191  0.5530
 5913TIP3   OH239153   2.148   1.477   2.108 -0.1545 -0.7772  0.2813
 5913TIP3    H139154   2.095   1.494   2.186  0.7752 -0.3810  0.8315
 5913TIP3    H239155   2.230   1.524   2.123 -0.5992  0.7878 -1.7074
 5914TIP3   OH239156   3.812   5.910  15.610  0.0969  0.4108 -0.3044
 5914TIP3    H139157   3.878   5.909  15.540  0.6591  0.6452  0.2152
 5914TIP3    H239158   3.749   5.977  15.582 -0.4575 -0.4902 -1.2785
 5915TIP3   OH239159   2.250   1.813  10.907  0.4820 -0.3977 -0.1027
 5915TIP3    H139160   2.175   1.776  10.860 -0.0580  0.0117  0.4050
 5915TIP3    H239161   2.317   1.825  10.840  0.4506 -1.6923 -0.3829
 5916TIP3   OH239162   2.642   4.759   2.997  0.1983 -0.1918  0.4621
 5916TIP3    H139163   2.718   4.763   3.056 -0.5475 -0.9793  1.5088
 5916TIP3    H239164   2.665   4.692   2.933  0.5733 -0.1005  0.4986
 5917TIP3   OH239165   4.639   3.605  11.495  0.6407  0.1843 -0.1417
 5917TIP3    H139166   4.670   3.581  11.408 -0.4465  0.9694 -0.7688
 5917TIP3    H239167   4.545   3.586  11.493  0.3547  1.4857  0.3938
 5918TIP3   OH239168   4.471   1.519  15.486  0.4133 -0.2558  0.0307
 5918TIP3    H139169   4.555   1.562  15.500  0.5487 -0.6389  0.4385
 5918TIP3    H239170   4.416   1.551  15.558  0.1551  0.1297 -0.3364
 5919TIP3   OH239171   0.350   2.634   6.165  0.7322  0.1519  0.2729
 5919TIP3    H139172   0.293   2.670   6.232  1.4474  0.2001  0.8712
 5919TIP3    H239173   0.425   2.598   6.213  0.7360 -0.8213 -0.4063
 5920TIP3   OH239174   1.837   1.744  13.623  0.3176 -0.1159  0.1483
 5920TIP3    H139175   1.748   1.766  13.598  1.1007  0.1192 -2.8902
 5920TIP3    H239176   1.831   1.655  13.659 -1.4161  0.9028  2.6815
 5921TIP3   OH239177   3.154   1.130  16.118 -0.2949  1.2022  0.2229
 5921TIP3    H139178   3.123   1.210  16.076 -1.5890  0.1990 -0.8529
 5921TIP3    H239179   3.103   1.125  16.200  0.3241  1.8285  0.6579
 5922TIP3   OH239180   2.888   0.489  13.962  0.1541 -0.1655 -0.0365
 5922TIP3    H139181   2.894   0.555  13.893 -0.8682 -0.6891 -0.6352
 5922TIP3    H239182   2.798   0.458  13.959  0.1905 -0.4705  1.2907
 5923TIP3   OH239183   4.863   6.567  14.316  0.0795  0.2106  0.0261
 5923TIP3    H139184   4.786   6.623  14.315 -0.9024 -0.9110  2.7991
 5923TIP3    H239185   4.889   6.563  14.408  0.4333 -3.3817 -0.0832
 5924TIP3   OH239186   3.020   5.441  11.870  0.1683 -0.0626 -0.2575
 5924TIP3    H139187   3.066   5.479  11.945  2.1780  1.0026 -1.9347
 5924TIP3    H239188   2.981   5.516  11.825 -1.2253 -0.7182 -0.1978
 5925TIP3   OH239189   6.475   6.754   2.694  0.1355 -0.5225 -0.0644
 5925TIP3    H139190   6.536   6.687   2.661 -0.0480 -0.7085 -0.0310
 5925TIP3    H239191   6.419   6.774   2.618  0.2816 -0.3019 -0.1147
 5926TIP3   OH239192   0.477   5.315  15.391 -0.1627 -0.7865 -0.2190
 5926TIP3    H139193   0.496   5.407  15.377 -0.0610 -0.7427  0.2165
 5926TIP3    H239194   0.426   5.289  15.314 -0.2922 -0.3414 -0.2837
 5927TIP3   OH239195   4.760   0.191   0.433  0.1092 -0.3447  0.0526
 5927TIP3    H139196   4.683   0.191   0.376 -0.2940  1.3724  0.5193
 5927TIP3    H239197   4.759   0.106   0.476  0.1821 -1.5202 -2.1473
 5928TIP3   OH239198   0.177   4.267  11.557  0.0796 -0.5157  0.0319
 5928TIP3    H139199   0.238   4.341  11.558  0.1262 -0.5564  0.2041
 5928TIP3    H239200   0.093   4.305  11.580 -0.0673 -0.3648 -0.7398
 5929TIP3   OH239201   2.878   0.040  15.464  0.1398 -0.4656 -0.0441
 5929TIP3    H139202   2.818   0.074  15.531  1.1578 -0.5501  0.9360
 5929TIP3    H239203   2.823  -0.013  15.407 -1.5748  2.7820 -1.7008
 5930TIP3   OH239204   0.586   4.461  13.314  0.0033  0.1365  0.4627
 5930TIP3    H139205   0.635   4.543  13.316  0.6329 -0.2398  1.1217
 5930TIP3    H239206   0.514   4.474  13.376 -0.1728  0.3585  0.2104
 5931TIP3   OH239207   4.089   4.346  13.595  0.6794  0.0247  0.8124
 5931TIP3    H139208   4.002   4.324  13.561  1.0710 -1.3800  0.6443
 5931TIP3    H239209   4.149   4.324  13.524  1.1424  1.5408  0.7132
 5932TIP3   OH239210   2.502   6.626   2.248  0.1997 -0.2329  0.0849
 5932TIP3    H139211   2.532   6.693   2.186  0.0587 -0.5823 -0.3591
 5932TIP3    H239212   2.474   6.676   2.325 -3.5558  0.5891 -1.6016
 5933TIP3   OH239213   5.850   6.694  12.799  0.2103 -0.6231 -0.8985
 5933TIP3    H139214   5.912   6.621  12.787  0.9593 -0.1077 -0.2338
 5933TIP3    H239215   5.887   6.765  12.747 -0.5590 -0.7223 -1.6000
 5934TIP3   OH239216   4.672   5.939  10.848 -0.1821 -0.5333 -0.1398
 5934TIP3    H139217   4.656   5.846  10.829 -2.1848 -0.2560 -0.0903
 5934TIP3    H239218   4.600   5.985  10.805 -0.6837  0.7607  1.9172
 5935TIP3   OH239219   0.517   5.085   4.985  0.4457  0.1773 -0.1845
 5935TIP3    H139220   0.564   5.004   4.967  1.5527  0.5519  0.8259
 5935TIP3    H239221   0.439   5.081   4.931  0.4048 -1.6256 -0.0439
 5936TIP3   OH239222   5.228   1.094  17.028  0.0504 -0.1102 -0.4688
 5936TIP3    H139223   5.143   1.051  17.039 -0.6435  0.9807 -1.3160
 5936TIP3    H239224   5.289   1.040  17.077 -0.6106 -2.5762 -2.1999
 5937TIP3   OH239225   6.404   2.322  12.202  0.5449 -0.4774  0.0177
 5937TIP3    H139226   6.367   2.249  12.252 -0.5092  0.4541  0.6326
 5937TIP3    H239227   6.443   2.379  12.269  0.0834  0.2424 -0.3273
 5938TIP3   OH239228   6.526   0.404  14.005 -0.0847  0.1094  0.9378
 5938TIP3    H139229   6.538   0.411  14.100  1.5056  1.9556  0.6685
 5938TIP3    H239230   6.481   0.485  13.981  0.8135  0.3565 -0.0127
 5939TIP3   OH239231   6.074   6.056   5.635  1.1956  0.2617 -0.0356
 5939TIP3    H139232   6.027   6.012   5.706  1.5902 -0.3229 -0.1303
 5939TIP3    H239233   6.005   6.080   5.573  1.1202 -1.8737 -0.8759
 5940TIP3   OH239234   2.240   2.706   3.354 -0.7808  0.7879 -0.6016
 5940TIP3    H139235   2.201   2.780   3.307 -0.1314  1.1449 -0.6006
 5940TIP3    H239236   2.174   2.682   3.419 -1.4922  0.5910 -1.3839
 5941TIP3   OH239237   2.347   6.087   3.644 -0.2507  0.2629  0.2025
 5941TIP3    H139238   2.383   6.000   3.633 -0.1096  0.5041 -1.6513
 5941TIP3    H239239   2.272   6.090   3.584 -0.0495  1.4967 -0.0315
 5942TIP3   OH239240   4.131   3.974   0.115  0.0701  0.1826 -0.5585
 5942TIP3    H139241   4.133   3.895   0.168  3.3300  0.1266 -0.5076
 5942TIP3    H239242   4.083   3.950   0.036 -0.4560 -1.3078  0.1889
 5943TIP3   OH239243   0.379   6.419  15.485 -0.7257 -0.3182 -0.6547
 5943TIP3    H139244   0.423   6.399  15.567 -1.4063 -0.4681 -0.3187
 5943TIP3    H239245   0.291   6.383  15.496 -1.1303  0.5205 -1.0649
 5944TIP3   OH239246   1.615   5.920  13.270 -0.6634 -0.3210  0.5097
 5944TIP3    H139247   1.642   5.960  13.352 -2.1049  0.9571  0.4171
 5944TIP3    H239248   1.642   5.828  13.277  0.0757 -0.0170  1.9936
 5945TIP3   OH239249   1.818   2.995  16.980 -0.1642  0.2810 -0.6855
 5945TIP3    H139250   1.879   2.929  17.013  0.5932  0.8876 -0.8269
 5945TIP3    H239251   1.734   2.951  16.976 -0.1166 -0.0767  1.2397
 5946TIP3   OH239252   2.338   3.366   5.868 -0.3486  0.5309 -0.0112
 5946TIP3    H139253   2.331   3.304   5.940 -1.3317  0.7227  0.0702
 5946TIP3    H239254   2.271   3.339   5.806  0.5631  0.2971 -0.9175
 5947TIP3   OH239255   4.334   4.306  11.159  0.4224 -0.1982 -0.2992
 5947TIP3    H139256   4.303   4.222  11.193  0.3461  0.2793  0.8671
 5947TIP3    H239257   4.280   4.371  11.205  2.4972  0.6255  1.1131
 5948TIP3   OH239258   6.789   5.647  15.405  0.5680  0.4949  0.3153
 5948TIP3    H139259   6.755   5.631  15.318  3.4741  0.1267 -0.8661
 5948TIP3    H239260   6.768   5.739  15.423 -0.6064  0.3939 -0.4606
 5949TIP3   OH239261   6.289   0.556   0.057  0.6701  0.3881  0.6345
 5949TIP3    H139262   6.201   0.589   0.076  1.5978  1.8339  2.7147
 5949TIP3    H239263   6.346   0.599   0.121  3.0684  0.2724 -1.2487
 5950TIP3   OH239264   2.235   4.825  15.202 -0.0926  0.1141 -0.1554
 5950TIP3    H139265   2.308   4.787  15.152  1.5027  2.2910  0.3835
 5950TIP3    H239266   2.157   4.800  15.152  0.9894 -2.1523 -0.8508
 5951TIP3   OH239267   3.495   1.507   0.428  0.0035  0.5494  0.7740
 5951TIP3    H139268   3.539   1.422   0.424 -0.0276  0.1447  4.7665
 5951TIP3    H239269   3.557   1.564   0.474 -0.6091  2.3162 -0.4618
 5952TIP3   OH239270   6.085   6.389  16.992  0.1109  0.0041  0.0594
 5952TIP3    H139271   6.067   6.338  17.071  0.7971  2.0759  1.6276
 5952TIP3    H239272   6.169   6.357  16.961  1.1768  0.9942  1.7872
 5953TIP3   OH239273   5.951   0.480  10.418  0.6020 -0.3391  0.3872
 5953TIP3    H139274   5.921   0.484  10.509 -0.6196 -0.5690  0.0108
 5953TIP3    H239275   5.893   0.416  10.376  2.2315 -1.5195 -0.1716
 5954TIP3   OH239276   3.730   2.452  16.247 -0.8234  0.0608  0.5656
 5954TIP3    H139277   3.688   2.530  16.282 -0.4311  1.6694 -2.2702
 5954TIP3    H239278   3.805   2.485  16.197 -0.7451 -2.1038 -0.8782
 5955TIP3   OH239279   0.134   5.448   1.552  0.1394 -0.3389  0.1275
 5955TIP3    H139280   0.079   5.428   1.476  0.2823  0.3593 -0.1673
 5955TIP3    H239281   0.204   5.503   1.518 -0.0487  0.3698  0.8409
 5956TIP3   OH239282   4.418   5.603   4.629  0.2142 -0.1310 -0.6507
 5956TIP3    H139283   4.375   5.686   4.650  0.7113  0.2011 -0.9171
 5956TIP3    H239284   4.410   5.552   4.710 -0.1404  0.1578 -0.4994
 5957TIP3   OH239285   2.477   6.454   0.927 -0.5761 -0.1948  1.1166
 5957TIP3    H139286   2.424   6.463   0.848  0.1609  0.8627  0.7106
 5957TIP3    H239287   2.502   6.362   0.929  0.5520  0.0032 -0.6902
 5958TIP3   OH239288   4.857   2.749  17.117 -0.0813 -0.3370  0.7536
 5958TIP3    H139289   4.854   2.810  17.191 -0.8360 -0.3439  0.7364
 5958TIP3    H239290   4.923   2.786  17.058 -0.9561  0.7902  0.4645
 5959TIP3   OH239291   1.988   5.022  14.638 -0.0129 -0.3459 -0.0265
 5959TIP3    H139292   1.966   5.101  14.588  1.3772 -0.5463 -1.0170
 5959TIP3    H239293   1.995   4.953  14.572 -1.1209 -1.3044  0.8214
 5960TIP3   OH239294   4.561   4.777   5.482  0.0241  0.1012 -0.3829
 5960TIP3    H139295   4.472   4.812   5.477 -1.5370 -3.4019  0.2115
 5960TIP3    H239296   4.560   4.720   5.559  3.7249  2.1100  1.4152
 5961TIP3   OH239297   4.020   2.198   2.549  0.4634 -0.2580 -0.7282
 5961TIP3    H139298   4.058   2.128   2.602  0.1896 -0.0230 -0.2191
 5961TIP3    H239299   4.039   2.172   2.459  1.1519 -0.5302 -0.5073
 5962TIP3   OH239300   6.013   3.643   2.620  0.2618 -0.4848  0.2834
 5962TIP3    H139301   5.979   3.732   2.621 -0.6004 -0.7932 -0.5891
 5962TIP3    H239302   5.947   3.591   2.666 -0.1223 -0.9625 -0.7821
 5963TIP3   OH239303   2.736   5.989   5.201  0.0248 -0.0795  0.2190
 5963TIP3    H139304   2.830   6.003   5.201 -0.1312  1.0889  0.8537
 5963TIP3    H239305   2.698   6.077   5.200 -1.0567 -0.2959  4.2878
 5964TIP3   OH239306   4.124   3.898  15.261  0.0963  0.3461  0.0709
 5964TIP3    H139307   4.214   3.904  15.293  0.9527 -0.6527 -1.9704
 5964TIP3    H239308   4.089   3.819  15.301  1.1839 -0.9448 -1.4064
 5965TIP3   OH239309   0.853   3.215  12.752  0.3685 -0.2824  0.0854
 5965TIP3    H139310   0.767   3.237  12.717  0.0536 -1.6948 -0.0883
 5965TIP3    H239311   0.891   3.300  12.776 -1.5419  0.3017  1.3134
 5966TIP3   OH239312   0.985   4.834   3.816 -0.0248  0.0127 -0.7562
 5966TIP3    H139313   0.955   4.923   3.798  0.6222  0.0153 -1.9886
 5966TIP3    H239314   0.907   4.787   3.842 -0.7931  0.4557 -2.1475
 5967TIP3   OH239315   3.493   2.077  16.275 -0.8194  0.2602  0.7493
 5967TIP3    H139316   3.478   2.112  16.362  2.4534 -1.1397  2.0643
 5967TIP3    H239317   3.529   2.150  16.225  3.3056 -0.1934  2.6313
 5968TIP3   OH239318   4.765   0.057  16.617 -0.6522  0.6524 -0.1319
 5968TIP3    H139319   4.856   0.035  16.597  0.5589  2.9517  2.2920
 5968TIP3    H239320   4.719   0.045  16.533  1.4612 -2.1729 -1.0434
 5969TIP3   OH239321   0.579   2.108  10.922  0.8808 -0.6982  0.1838
 5969TIP3    H139322   0.554   2.200  10.935 -0.1140 -0.9588  0.1828
 5969TIP3    H239323   0.663   2.112  10.877  1.5477  0.2165  1.4453
 5970TIP3   OH239324   0.307   1.269   1.050  0.5975 -0.2430 -1.0673
 5970TIP3    H139325   0.331   1.344   1.104 -1.6837 -0.0560 -0.2279
 5970TIP3    H239326   0.327   1.193   1.105  1.3721 -0.1965 -1.2758
 5971TIP3   OH239327   6.342   0.286   4.274 -0.2888  0.1498 -0.2463
 5971TIP3    H139328   6.382   0.298   4.187 -0.1202  0.3457 -0.1447
 5971TIP3    H239329   6.416   0.271   4.332 -0.3073  1.0416  0.0321
 5972TIP3   OH239330   3.210   6.106   4.830  0.4277 -0.6807 -0.6430
 5972TIP3    H139331   3.289   6.057   4.807  0.1877 -2.6834  2.3386
 5972TIP3    H239332   3.139   6.042   4.824 -0.5911  0.4252 -0.7429
 5973TIP3   OH239333   5.101   4.401  13.229  0.0543 -0.4015 -0.0610
 5973TIP3    H139334   5.025   4.409  13.286 -1.1027 -1.0663 -1.4436
 5973TIP3    H239335   5.077   4.335  13.165  1.3734  0.1680 -1.2099
 5974TIP3   OH239336   2.813   2.283  16.771 -0.6555 -0.2953 -0.5298
 5974TIP3    H139337   2.817   2.258  16.863  1.1905 -1.3888 -0.8316
 5974TIP3    H239338   2.727   2.321  16.759 -0.7049  0.4401  1.7850
 5975TIP3   OH239339   4.066   5.670  11.779 -0.0235 -0.0000 -0.4441
 5975TIP3    H139340   3.990   5.639  11.730  0.2154 -2.7450  0.7517
 5975TIP3    H239341   4.140   5.650  11.721  0.0867 -1.2814  0.1102
 5976TIP3   OH239342   6.147   6.058  16.743 -0.0963 -0.1194 -0.6572
 5976TIP3    H139343   6.169   5.973  16.782 -2.3311 -0.2641  0.4249
 5976TIP3    H239344   6.055   6.051  16.720 -0.2588  1.9290 -0.8374
 5977TIP3   OH239345   1.453   0.167   2.403  0.3444 -0.0660 -0.7269
 5977TIP3    H139346   1.360   0.145   2.402  0.3717 -0.2076 -0.0207
 5977TIP3    H239347   1.496   0.090   2.364  0.3288 -0.7836  0.6303
 5978TIP3   OH239348   3.660   1.595   5.539 -0.1991  0.2831 -0.2094
 5978TIP3    H139349   3.662   1.682   5.498  0.1824  0.2814 -0.2013
 5978TIP3    H239350   3.728   1.546   5.493 -0.3474  0.0177 -0.1456
 5979TIP3   OH239351   2.556   2.657  15.904 -0.3395  0.2375  0.0123
 5979TIP3    H139352   2.534   2.603  15.980  0.4503 -0.8290 -0.4977
 5979TIP3    H239353   2.650   2.644  15.892 -0.6440 -0.4730 -1.7924
 5980TIP3   OH239354   1.568   0.492   5.236 -0.3547 -0.1489 -0.2767
 5980TIP3    H139355   1.545   0.585   5.233  1.3226  0.2962 -0.4365
 5980TIP3    H239356   1.619   0.482   5.316 -0.3609 -0.8991 -0.3562
 5981TIP3   OH239357   5.864   2.867  11.576 -0.0174  0.1719 -0.1066
 5981TIP3    H139358   5.823   2.901  11.497  0.8533 -2.2903 -1.7446
 5981TIP3    H239359   5.943   2.822  11.545 -0.0749 -1.6050  2.0369
 5982TIP3   OH239360   6.717   5.125   5.306  0.3559 -0.2562 -0.6962
 5982TIP3    H139361   6.745   5.041   5.344 -2.2677 -0.5683  0.7851
 5982TIP3    H239362   6.698   5.104   5.214  1.0450 -0.9656 -0.6819
 5983TIP3   OH239363   6.074   3.786   5.286  0.4639  0.4379 -0.1120
 5983TIP3    H139364   6.037   3.798   5.198  0.2322  1.8668  0.1680
 5983TIP3    H239365   6.055   3.694   5.307 -1.3971  0.6492 -0.6759
 5984TIP3   OH239366   5.813   4.259  14.930  0.6399  0.3150 -0.6517
 5984TIP3    H139367   5.724   4.239  14.901  0.9999 -2.4299 -0.1451
 5984TIP3    H239368   5.824   4.207  15.010  2.8644  0.0927 -1.0312
 5985TIP3   OH239369   2.064   6.351  14.304  0.5168 -0.0139 -0.1478
 5985TIP3    H139370   1.969   6.361  14.308  0.5316 -0.1793  1.0066
 5985TIP3    H239371   2.091   6.408  14.232 -0.5112 -0.4356 -0.8832
 5986TIP3   OH239372   0.457   4.642   2.439 -0.1179  0.2786  0.2188
 5986TIP3    H139373   0.374   4.624   2.484  0.1236 -0.4301  0.3894
 5986TIP3    H239374   0.448   4.732   2.409 -0.8881  0.2657  0.3793
 5987TIP3   OH239375   0.163   5.029   3.617 -0.2245  0.0420 -0.5541
 5987TIP3    H139376   0.248   4.985   3.614  0.2994  1.0193 -0.6084
 5987TIP3    H239377   0.099   4.958   3.625  0.7467 -0.6121  2.5582
 5988TIP3   OH239378   4.519   0.439   4.850 -0.0265  0.2232  0.5821
 5988TIP3    H139379   4.579   0.496   4.803  0.9461 -2.4241 -1.6130
 5988TIP3    H239380   4.432   0.467   4.821  0.3935  0.8473 -0.1176
 5989TIP3   OH239381   5.822   1.719   3.508 -0.0973 -0.1319  0.6759
 5989TIP3    H139382   5.802   1.712   3.415 -0.9047 -2.1641  0.9453
 5989TIP3    H239383   5.748   1.766   3.546 -0.7821 -1.0980  0.5665
 5990TIP3   OH239384   3.526   3.515   4.391  0.0042 -0.4840  0.6061
 5990TIP3    H139385   3.514   3.427   4.428  0.9012 -0.7200  0.3476
 5990TIP3    H239386   3.451   3.565   4.424  0.4564 -0.8427  2.3034
 5991TIP3   OH239387   2.317   4.861   4.069  0.5961 -0.3225 -0.3693
 5991TIP3    H139388   2.331   4.949   4.103 -0.7285 -0.5462  0.8554
 5991TIP3    H239389   2.222   4.855   4.055  0.6475 -1.6052 -0.2830
 5992TIP3   OH239390   2.971   6.112   4.524  0.3090  0.4874 -0.0789
 5992TIP3    H139391   3.003   6.170   4.455  2.7239  0.6612  1.0433
 5992TIP3    H239392   2.878   6.101   4.506  0.7449  0.8578 -3.0644
 5993TIP3   OH239393   5.899   2.298  13.008  0.5961 -0.1207  0.4372
 5993TIP3    H139394   5.813   2.327  12.980  1.1818  0.5767 -0.7424
 5993TIP3    H239395   5.889   2.204  13.025 -0.5514  0.1060  1.0710
 5994TIP3   OH239396   2.342   1.822   2.840 -0.0293 -0.4088 -0.3503
 5994TIP3    H139397   2.333   1.761   2.913 -0.9579 -1.1076 -1.0271
 5994TIP3    H239398   2.426   1.800   2.800  0.9385  0.5805  1.0056
 5995TIP3   OH239399   5.710   0.687   5.773 -0.2255  0.2070 -0.1232
 5995TIP3    H139400   5.647   0.748   5.736 -0.7268  0.5221  1.1727
 5995TIP3    H239401   5.665   0.603   5.773 -1.1321  0.6241  1.7854
 5996TIP3   OH239402   3.295   3.479  12.571  0.4122  0.4811 -0.0308
 5996TIP3    H139403   3.206   3.510  12.557  0.0388 -0.9467 -1.0978
 5996TIP3    H239404   3.333   3.475  12.484  1.5986  1.2519  0.4337
 5997TIP3   OH239405   6.497   3.739  16.685  0.4340 -0.2357  0.1135
 5997TIP3    H139406   6.479   3.741  16.591  1.1526  0.7558 -0.0199
 5997TIP3    H239407   6.549   3.818  16.701  0.6665 -0.6051  1.2780
 5998TIP3   OH239408   2.808   2.250   6.603  0.4863  0.0360  0.3752
 5998TIP3    H139409   2.809   2.272   6.510 -2.0021 -0.1041  0.2404
 5998TIP3    H239410   2.758   2.168   6.608  1.2574 -0.3984  1.7819
 5999TIP3   OH239411   4.796   1.826  13.510  0.3248  0.4796 -0.1255
 5999TIP3    H139412   4.846   1.788  13.582  0.3591  1.2847  0.2965
 5999TIP3    H239413   4.851   1.898  13.479 -0.9374  1.9838  0.9584
 6000TIP3   OH239414   0.342   4.748   3.374  0.0675 -0.0182 -0.1678
 6000TIP3    H139415   0.374   4.705   3.294 -1.6699 -1.7015 -0.0313
 6000TIP3    H239416   0.263   4.794   3.346  0.9077  1.6549  0.0833
 6001TIP3   OH239417   5.703   3.404  14.169 -0.1284 -0.8506  0.1794
 6001TIP3    H139418   5.708   3.424  14.262 -1.0965 -0.6148  0.1879
 6001TIP3    H239419   5.724   3.311  14.163 -0.1547 -0.8890  0.6363
 6002TIP3   OH239420   3.628   6.012  11.369  0.3880  0.8735 -0.0050
 6002TIP3    H139421   3.538   5.995  11.395  0.2499  1.2428 -0.2401
 6002TIP3    H239422   3.626   6.099  11.330  0.1160 -0.5695 -3.5238
 6003TIP3   OH239423   1.538   5.854   6.505  0.4150 -0.3949 -0.1379
 6003TIP3    H139424   1.523   5.766   6.540  0.5837 -0.4185 -0.1224
 6003TIP3    H239425   1.458   5.876   6.459  0.1301 -0.3021  0.3902
 6004TIP3   OH239426   1.575   5.673   4.290 -0.2038 -0.6921 -0.2514
 6004TIP3    H139427   1.490   5.700   4.256 -0.3610 -1.6934 -0.6971
 6004TIP3    H239428   1.612   5.617   4.222  1.6886  1.2185 -0.9355
 6005TIP3   OH239429   3.234   5.820  14.075  0.0421 -0.1372 -0.1928
 6005TIP3    H139430   3.219   5.859  13.989 -0.6887 -0.0447 -0.0373
 6005TIP3    H239431   3.158   5.762  14.088  0.0715 -0.0354  0.4471
 6006TIP3   OH239432   6.225   0.174  12.356  0.3577 -0.7789  0.5334
 6006TIP3    H139433   6.181   0.157  12.440 -2.1857  0.2379 -0.4871
 6006TIP3    H239434   6.165   0.139  12.291  1.5669 -0.1757 -0.9494
 6007TIP3   OH239435   0.879   4.989  16.427 -0.1927  0.1278 -0.3828
 6007TIP3    H139436   0.845   5.060  16.373 -0.7999  0.1417  0.0060
 6007TIP3    H239437   0.973   4.991  16.413 -0.1360  1.3916  0.0761
 6008TIP3   OH239438   4.979   1.146   5.730  0.0190  0.4787  0.1895
 6008TIP3    H139439   4.948   1.142   5.821  1.1171 -2.6296  0.5607
 6008TIP3    H239440   5.074   1.157   5.738  0.2708 -0.9571 -0.4708
 6009TIP3   OH239441   5.242   4.445  15.782  0.5434 -0.5304 -0.3962
 6009TIP3    H139442   5.277   4.357  15.767 -2.0774 -1.4490 -1.6657
 6009TIP3    H239443   5.205   4.471  15.698  0.5330  1.4775  0.1722
 6010TIP3   OH239444   1.732   4.030   0.344  0.0766  0.1454 -0.3149
 6010TIP3    H139445   1.689   3.987   0.270  1.9139 -0.8158 -0.8858
 6010TIP3    H239446   1.769   4.110   0.307 -0.3840  0.4822 -0.0527
 6011TIP3   OH239447   0.533   0.203   1.745  0.1972 -0.1284 -0.4370
 6011TIP3    H139448   0.499   0.270   1.685  0.4365 -0.1456 -0.5919
 6011TIP3    H239449   0.481   0.214   1.824  0.3081  0.3208 -0.4195
 6012TIP3   OH239450   6.738   5.324   3.284  0.5301  0.0185 -0.2223
 6012TIP3    H139451   6.808   5.331   3.350 -0.5296 -2.2062  1.2648
 6012TIP3    H239452   6.707   5.414   3.272  0.2008  0.4691  3.0465
 6013TIP3   OH239453   1.738   6.432  14.879 -0.2316  0.4018  0.1270
 6013TIP3    H139454   1.779   6.481  14.949  0.3379 -1.3248  1.0614
 6013TIP3    H239455   1.791   6.451  14.801  0.7386  0.2678  0.7465
 6014TIP3   OH239456   2.242   4.837   1.265  0.3848  0.3649  0.0839
 6014TIP3    H139457   2.274   4.839   1.175  1.6117  1.4868  0.5186
 6014TIP3    H239458   2.157   4.793   1.259 -0.1518  1.5541 -1.7988
 6015TIP3   OH239459   1.716   4.565  14.202 -0.1994  0.3525  0.8580
 6015TIP3    H139460   1.686   4.486  14.248 -0.6801  0.6776  1.1162
 6015TIP3    H239461   1.795   4.538  14.156 -1.9514 -1.0846 -1.4958
 6016TIP3   OH239462   2.365   5.087  12.761 -0.4735  0.1645 -0.0561
 6016TIP3    H139463   2.435   5.061  12.702  0.4791  0.5749  0.8716
 6016TIP3    H239464   2.292   5.109  12.703  0.4479  0.5987 -1.0739
 6017TIP3   OH239465   4.114   4.409   3.947 -0.2866 -0.7455 -0.1487
 6017TIP3    H139466   4.089   4.398   3.855 -2.0714  4.1087 -0.5162
 6017TIP3    H239467   4.204   4.441   3.943 -1.7720  4.1225 -0.9122
 6018TIP3   OH239468   6.050   3.715  12.857 -0.2540 -0.1232  0.9162
 6018TIP3    H139469   6.019   3.726  12.768  1.2348  3.7919  0.6891
 6018TIP3    H239470   6.058   3.620  12.868 -3.7325 -0.9460 -1.8292
 6019TIP3   OH239471   2.993   4.499  16.525  0.0351  0.1563  0.3257
 6019TIP3    H139472   2.929   4.429  16.541  0.1867  0.0555  0.5056
 6019TIP3    H239473   3.069   4.454  16.488 -0.1312  0.3249 -0.2234
 6020TIP3   OH239474   5.091   0.077  16.631  0.0138 -0.1386  0.4908
 6020TIP3    H139475   5.078   0.097  16.538  1.6046  1.6934  0.5751
 6020TIP3    H239476   5.169   0.128  16.655 -1.9967  1.8931  3.5407
 6021TIP3   OH239477   0.155   1.339   5.394 -0.5954  0.4197 -0.4078
 6021TIP3    H139478   0.231   1.364   5.342  0.1500  0.1657  0.5449
 6021TIP3    H239479   0.134   1.250   5.364  0.2923 -0.0169  0.2341
 6022TIP3   OH239480   3.101   2.348   4.365 -0.4022  0.5970  0.4133
 6022TIP3    H139481   3.132   2.421   4.418  0.7697  1.2141 -1.0335
 6022TIP3    H239482   3.149   2.357   4.282  0.2864 -2.2006  0.4147
 6023TIP3   OH239483   2.139   4.333  14.795  0.5818  0.1335 -0.2344
 6023TIP3    H139484   2.227   4.331  14.758  0.4975 -1.4484 -0.4095
 6023TIP3    H239485   2.136   4.259  14.856  0.0381  1.4343  1.4158
 6024TIP3   OH239486   6.142   4.829  16.037  0.6807 -0.5808  0.4296
 6024TIP3    H139487   6.234   4.846  16.019  0.8514  0.8748  2.2636
 6024TIP3    H239488   6.101   4.916  16.036 -0.4399 -1.0860  0.7066
 6025TIP3   OH239489   3.985   1.034  16.893 -0.1216  0.2059  0.6183
 6025TIP3    H139490   3.903   1.084  16.894  0.5486  1.3394  0.9899
 6025TIP3    H239491   4.021   1.050  16.806  0.5238  1.1247  1.0379
 6026TIP3   OH239492   5.278   5.824   0.550 -0.2256  0.6467 -0.4158
 6026TIP3    H139493   5.195   5.840   0.595  1.0225 -0.0917  2.4039
 6026TIP3    H239494   5.287   5.728   0.552  0.2043  0.6548 -1.6614
 6027TIP3   OH239495   4.148   1.429  14.489  0.6286  0.3398 -0.5873
 6027TIP3    H139496   4.215   1.377  14.533 -0.8331 -1.0640  0.0774
 6027TIP3    H239497   4.135   1.385  14.405 -1.2725 -1.0319  0.3491
 6028TIP3   OH239498   5.838   5.896  14.604  0.2281 -0.3918  0.1607
 6028TIP3    H139499   5.771   5.837  14.569 -0.1001 -0.1275  0.3418
 6028TIP3    H239500   5.851   5.960  14.535  0.7680 -0.8183 -0.1379
 6029TIP3   OH239501   1.801   1.368   2.321  0.1634  0.7789  0.2477
 6029TIP3    H139502   1.766   1.407   2.241  1.4636  2.4663  0.4313
 6029TIP3    H239503   1.814   1.276   2.299 -1.6105  0.7048 -0.7187
 6030TIP3   OH239504   3.069   0.324   4.119 -0.1118  0.0617  0.2583
 6030TIP3    H139505   3.093   0.232   4.111 -0.9566 -0.1971  0.5489
 6030TIP3    H239506   3.137   0.371   4.072  0.4300 -0.6980  0.2625
 6031TIP3   OH239507   0.221   1.108  15.470 -0.0190  0.2883 -0.2180
 6031TIP3    H139508   0.291   1.149  15.418  0.9700 -0.0865  0.7968
 6031TIP3    H239509   0.159   1.179  15.485  0.9416  1.0549  0.2401
 6032TIP3   OH239510   4.121   6.326  10.689  0.3072  0.2689  0.5774
 6032TIP3    H139511   4.211   6.348  10.665  0.0189 -0.3274 -1.1903
 6032TIP3    H239512   4.121   6.231  10.703  0.0230  0.3100  0.8781
 6033TIP3   OH239513   1.449   4.515  14.861 -0.2800  0.1892  0.7242
 6033TIP3    H139514   1.354   4.507  14.867 -0.4824  1.6970 -0.1274
 6033TIP3    H239515   1.470   4.491  14.771 -0.2714  2.9900 -0.1154
 6034TIP3   OH239516   5.495   4.971  17.020 -0.6887 -0.1675 -0.3704
 6034TIP3    H139517   5.418   4.984  16.964  1.0968  1.0624 -2.7414
 6034TIP3    H239518   5.459   4.959  17.108 -3.6609 -1.6363 -1.6132
 6035TIP3   OH239519   2.700   1.028  15.352 -0.5157  0.3599  0.0733
 6035TIP3    H139520   2.778   1.041  15.405  0.7607  0.4822 -1.7543
 6035TIP3    H239521   2.730   0.982  15.274 -2.6364 -1.4282  0.2021
 6036TIP3   OH239522   3.338   3.929  14.085  0.1366 -0.1829 -0.1418
 6036TIP3    H139523   3.374   3.897  14.168 -0.6939 -0.5181  0.0982
 6036TIP3    H239524   3.345   4.024  14.092  0.1158 -0.2106  0.2907
 6037TIP3   OH239525   1.017   0.856  16.145  0.0306 -0.0479 -1.0065
 6037TIP3    H139526   1.006   0.788  16.079 -0.1121 -1.5792  0.5192
 6037TIP3    H239527   0.997   0.813  16.228  0.8823  1.6033  0.1298
 6038TIP3   OH239528   4.862   1.357  14.779 -0.2319 -0.1601  0.0937
 6038TIP3    H139529   4.865   1.438  14.728 -1.1785  0.0656  0.3716
 6038TIP3    H239530   4.949   1.318  14.768  0.1446  0.7558 -0.2638
 6039TIP3   OH239531   2.983   3.035   5.399 -0.0639 -0.1373  1.1666
 6039TIP3    H139532   3.055   3.048   5.337 -1.5350 -0.3015 -0.6507
 6039TIP3    H239533   2.922   2.977   5.354 -0.4906 -1.5413  3.3990
 6040TIP3   OH239534   3.361   0.376   4.534 -0.0089 -0.5678  0.3122
 6040TIP3    H139535   3.315   0.292   4.543 -1.4602  0.3532  2.2788
 6040TIP3    H239536   3.447   0.360   4.571 -0.5710 -1.0094  1.5033
 6041TIP3   OH239537   0.913   3.912  13.404  0.2696  0.3959  0.1341
 6041TIP3    H139538   0.975   3.968  13.358 -0.5843  1.0301 -0.2579
 6041TIP3    H239539   0.945   3.911  13.495  1.5755 -0.3306 -0.3027
 6042TIP3   OH239540   6.536   2.660  15.577 -0.6956 -0.3385 -0.4754
 6042TIP3    H139541   6.535   2.710  15.495  1.9219 -2.3330 -1.8951
 6042TIP3    H239542   6.472   2.590  15.563 -1.5479  0.3387 -0.0502
 6043TIP3   OH239543   5.580   5.191   2.586  0.6873 -0.1566  0.0030
 6043TIP3    H139544   5.670   5.171   2.611 -0.1599 -3.5962  0.8694
 6043TIP3    H239545   5.527   5.125   2.632 -1.9916 -0.1721 -2.7628
 6044TIP3   OH239546   2.294   4.240  16.359 -0.2842 -0.0033  0.0821
 6044TIP3    H139547   2.201   4.226  16.346 -0.5185  1.9340 -0.6571
 6044TIP3    H239548   2.337   4.179  16.299 -0.9992 -1.7588  1.2761
 6045TIP3   OH239549   4.957   1.573  12.701 -0.0743 -0.0990 -0.5934
 6045TIP3    H139550   4.873   1.526  12.698  0.1924 -0.6373  0.2552
 6045TIP3    H239551   5.023   1.504  12.703  0.6504  0.1854 -4.8831
 6046TIP3   OH239552   3.754   5.909  15.906  0.1305  0.3046 -0.6801
 6046TIP3    H139553   3.728   5.929  15.816  0.1665  1.5368 -0.4420
 6046TIP3    H239554   3.719   5.982  15.957 -0.5519 -0.7626  0.4335
 6047TIP3   OH239555   0.639   1.701  13.611  0.2978 -1.0142  0.2085
 6047TIP3    H139556   0.647   1.687  13.706 -2.4521 -1.0073  0.5284
 6047TIP3    H239557   0.635   1.796  13.602 -1.5742 -1.0236  0.4062
 6048TIP3   OH239558   5.674   6.634   3.796  0.0169 -0.1081  0.1103
 6048TIP3    H139559   5.624   6.699   3.846  0.0492  1.2600 -1.5463
 6048TIP3    H239560   5.646   6.550   3.832 -0.9283  0.7589  1.5200
 6049TIP3   OH239561   4.930   0.857   3.542  0.0356 -0.1057 -0.4279
 6049TIP3    H139562   4.911   0.768   3.570  0.9943  0.5922  2.9077
 6049TIP3    H239563   4.850   0.906   3.562 -0.3235 -0.0916 -1.8149
 6050TIP3   OH239564   5.592   3.610   2.020  0.2759 -0.5310 -0.2144
 6050TIP3    H139565   5.683   3.631   2.039 -0.2471  0.1783  1.7770
 6050TIP3    H239566   5.564   3.677   1.959  0.6016  0.3540  0.5896
 6051TIP3   OH239567   4.868   0.469  17.039 -0.5108 -0.6519  0.1898
 6051TIP3    H139568   4.949   0.418  17.034 -0.3226 -0.3978  0.5904
 6051TIP3    H239569   4.883   0.530  17.112 -1.1904 -0.8194  0.4708
 6052TIP3   OH239570   3.027   4.844   4.604  0.4624  0.9216  0.1896
 6052TIP3    H139571   2.986   4.818   4.522 -0.6965 -1.5989  1.4289
 6052TIP3    H239572   2.990   4.930   4.624 -0.1771  1.0162 -1.3000
 6053TIP3   OH239573   0.720   2.082   5.454 -0.3330  0.0027 -0.3335
 6053TIP3    H139574   0.659   2.009   5.463 -0.8750  0.5005  0.0923
 6053TIP3    H239575   0.665   2.156   5.428  0.4862 -0.2144 -3.0615
 6054TIP3   OH239576   0.005   2.975  13.981  0.2256  0.3816  0.4979
 6054TIP3    H139577  -0.084   2.983  14.014 -0.1059  2.1938 -0.7211
 6054TIP3    H239578   0.036   3.065  13.972  1.7718 -0.1747 -0.2036
 6055TIP3   OH239579   4.131   0.308  13.201 -0.1895  0.3179  0.2518
 6055TIP3    H139580   4.162   0.398  13.192  0.0590  0.2446  0.3750
 6055TIP3    H239581   4.171   0.261  13.128 -0.6999  0.4069 -0.0931
 6056TIP3   OH239582   0.718   2.884  15.364 -0.8096  0.6413  0.3765
 6056TIP3    H139583   0.800   2.932  15.358 -0.6327  0.5566  1.7837
 6056TIP3    H239584   0.742   2.792  15.351 -0.6330  0.5938  0.9914
 6057TIP3   OH239585   6.435   1.770  15.836 -0.6141  0.1361 -0.1237
 6057TIP3    H139586   6.476   1.854  15.853 -1.7617  0.7559 -0.3592
 6057TIP3    H239587   6.500   1.705  15.864  0.0652  1.0938  0.5427
 6058TIP3   OH239588   3.560   1.016  10.745 -0.4870 -0.3116 -0.1149
 6058TIP3    H139589   3.629   1.076  10.716  0.1697 -0.2377  1.5086
 6058TIP3    H239590   3.480   1.067  10.742 -0.1704  0.1816 -0.2096
 6059TIP3   OH239591   1.278   3.382   4.307  0.2038 -0.6991 -0.0018
 6059TIP3    H139592   1.365   3.359   4.274  0.4051 -0.4884  0.3773
 6059TIP3    H239593   1.295   3.422   4.393 -0.1550  0.7052 -0.5594
 6060TIP3   OH239594   1.448   1.007   5.145  0.2375  0.2664 -0.2234
 6060TIP3    H139595   1.461   0.986   5.053  1.3354 -1.8662  0.3448
 6060TIP3    H239596   1.411   1.095   5.145 -0.6764 -0.0448 -2.7230
 6061TIP3   OH239597   3.971   2.350   4.394  0.0717  0.0817  0.0573
 6061TIP3    H139598   3.954   2.401   4.314 -1.1274 -0.1194  0.1643
 6061TIP3    H239599   3.927   2.400   4.463 -0.1531 -0.5049  0.3420
 6062TIP3   OH239600   0.688   4.950  16.185  0.0307  0.5050 -0.0057
 6062TIP3    H139601   0.739   5.009  16.241  1.1766  1.1199 -1.6136
 6062TIP3    H239602   0.654   5.007  16.116  2.9822 -0.8541 -2.8902
 6063TIP3   OH239603   4.361   3.353  13.030  1.1685  0.0741 -0.1943
 6063TIP3    H139604   4.280   3.302  13.025 -0.1185  1.9259  0.5734
 6063TIP3    H239605   4.380   3.377  12.939 -0.3977  1.4226 -0.2090
 6064TIP3   OH239606   6.240   0.333   2.397 -0.3700  0.6826  0.4930
 6064TIP3    H139607   6.155   0.356   2.435 -0.1871  0.3476  1.1163
 6064TIP3    H239608   6.233   0.361   2.306 -1.1295  0.7047  0.5467
 6065TIP3   OH239609   0.504   6.781   0.047 -0.0232  0.5947  0.2191
 6065TIP3    H139610   0.563   6.723  -0.002 -0.8762  0.4955 -0.7224
 6065TIP3    H239611   0.519   6.868   0.010 -2.2484  0.2025 -1.8888
 6066TIP3   OH239612   1.007   1.617   0.118 -0.4851 -0.0070  0.3856
 6066TIP3    H139613   0.993   1.682   0.049 -1.5809  0.2159  0.7915
 6066TIP3    H239614   1.095   1.634   0.151 -1.0396  1.7845  1.0109
 6067TIP3   OH239615   1.239   0.181  15.221 -0.3771 -0.0124  0.1368
 6067TIP3    H139616   1.308   0.138  15.172  0.0496 -0.0519  0.7501
 6067TIP3    H239617   1.261   0.274  15.217 -0.7431  0.0521 -0.3540
 6068TIP3   OH239618   6.176   5.775  10.615 -0.6891 -0.0670 -0.7097
 6068TIP3    H139619   6.135   5.689  10.603 -0.3965 -0.4333  0.6984
 6068TIP3    H239620   6.268   5.755  10.630 -0.6611  0.4739 -0.1160
 6069TIP3   OH239621   3.418   5.980   0.761  0.2924  0.1305 -0.4811
 6069TIP3    H139622   3.478   5.906   0.761  0.0202 -0.0978  0.4104
 6069TIP3    H239623   3.332   5.941   0.779  0.2195  0.7136  0.4470
 6070TIP3   OH239624   6.776   0.607   4.524 -0.2367  0.0414  0.0215
 6070TIP3    H139625   6.763   0.613   4.619  0.1132  1.9972 -0.0171
 6070TIP3    H239626   6.834   0.532   4.513  0.9000  0.6511  1.4964
 6071TIP3   OH239627   6.684   4.956  13.600  0.2393 -0.6597  0.2792
 6071TIP3    H139628   6.711   4.895  13.668 -0.2407 -1.3030 -0.0954
 6071TIP3    H239629   6.644   5.029  13.646  0.2036 -0.9447  0.6986
 6072TIP3   OH239630   1.764   1.390   1.049 -0.1425 -0.0679  0.5227
 6072TIP3    H139631   1.784   1.455   1.116 -2.0123  0.5045  0.5813
 6072TIP3    H239632   1.673   1.365   1.066  0.5195 -2.7670  0.5325
 6073TIP3   OH239633   1.948   0.120  10.937  0.2743  0.7991  0.4248
 6073TIP3    H139634   1.867   0.110  10.987  1.2229 -1.1242  1.7266
 6073TIP3    H239635   2.015   0.138  11.003  1.3784 -0.6652 -0.2302
 6074TIP3   OH239636   3.722   3.388   1.085  0.2137  0.3030  0.1294
 6074TIP3    H139637   3.657   3.431   1.140  0.6969  1.1775  0.0316
 6074TIP3    H239638   3.792   3.452   1.075  0.8473 -0.4166 -0.2221
 6075TIP3   OH239639   5.336   1.985  16.564 -0.1598 -0.3688 -0.3485
 6075TIP3    H139640   5.374   2.042  16.630  0.7456 -0.3793 -0.8406
 6075TIP3    H239641   5.247   1.969  16.594 -0.4544  1.3318 -0.2177
 6076TIP3   OH239642   1.868   3.943  11.794 -0.1157  0.3595 -0.2150
 6076TIP3    H139643   1.869   3.885  11.870  1.2756  2.1801  1.2369
 6076TIP3    H239644   1.795   4.002  11.811 -0.5232  0.0713 -0.9023
 6077TIP3   OH239645   1.597   3.692  13.301  0.3780  0.8284 -0.0446
 6077TIP3    H139646   1.650   3.767  13.274 -0.1926  0.8884 -1.0584
 6077TIP3    H239647   1.510   3.729  13.319  0.5898  0.6996  1.3963
 6078TIP3   OH239648   1.616   0.715   0.636 -0.7065 -0.0534 -0.2383
 6078TIP3    H139649   1.674   0.776   0.682 -0.8888 -0.0785  0.0235
 6078TIP3    H239650   1.604   0.642   0.696 -0.0381 -0.6181 -0.7745
 6079TIP3   OH239651   1.706   0.787   3.942  0.0540 -0.1605  0.2470
 6079TIP3    H139652   1.729   0.733   3.866 -2.9836 -2.4098  0.7036
 6079TIP3    H239653   1.768   0.761   4.010  0.8051 -0.4758 -0.5367
 6080TIP3   OH239654   5.864   6.444   1.027 -0.2531 -0.1864 -0.8297
 6080TIP3    H139655   5.825   6.488   1.102 -0.7604 -0.1865 -1.0906
 6080TIP3    H239656   5.934   6.503   0.998  1.0447 -0.9456  0.6344
 6081TIP3   OH239657   5.915   0.551   4.430 -0.4064  0.3471 -0.0626
 6081TIP3    H139658   5.835   0.497   4.433  0.6324 -1.2775 -0.1051
 6081TIP3    H239659   5.885   0.639   4.453 -1.8469 -0.6557  2.3652
 6082TIP3   OH239660   3.066   5.181   0.114 -0.6670  1.2345 -0.0026
 6082TIP3    H139661   3.141   5.135   0.151  1.1257  2.2280 -2.1791
 6082TIP3    H239662   3.055   5.258   0.170  0.5343  1.5457 -0.1800
 6083TIP3   OH239663   1.089   5.554  13.357 -0.3352 -0.0172  0.3915
 6083TIP3    H139664   1.090   5.459  13.352  0.1989  0.0168 -0.3292
 6083TIP3    H239665   1.163   5.582  13.302 -0.0935  0.7847  1.0962
 6084TIP3   OH239666   5.126   5.657   1.712 -0.0280  0.0035  0.2957
 6084TIP3    H139667   5.114   5.675   1.806 -2.0727  1.6287 -0.2035
 6084TIP3    H239668   5.216   5.683   1.694 -0.0001  0.8942  1.5737
 6085TIP3   OH239669   0.255   4.544   3.535  0.2001 -0.0819 -0.0151
 6085TIP3    H139670   0.330   4.590   3.497  0.2409 -0.4044 -0.3310
 6085TIP3    H239671   0.178   4.587   3.497  0.2383 -1.7723 -2.1771
 6086TIP3   OH239672   2.200   3.602  11.692 -0.1804  0.2134  0.1572
 6086TIP3    H139673   2.203   3.671  11.626 -1.0035 -0.7433 -0.9291
 6086TIP3    H239674   2.107   3.593  11.714 -0.0354 -0.2432  0.6167
 6087TIP3   OH239675   4.621   2.515  14.037  0.5543  0.2042  0.3566
 6087TIP3    H139676   4.611   2.582  14.104  0.2824 -0.4272  0.9625
 6087TIP3    H239677   4.556   2.538  13.970  1.0256  0.9974  0.1662
 6088TIP3   OH239678   1.685   0.339   3.880  0.0120  0.2644 -0.1334
 6088TIP3    H139679   1.707   0.387   3.800 -2.2692 -1.9421 -2.2606
 6088TIP3    H239680   1.606   0.382   3.913  1.4036  1.6906  1.5244
 6089TIP3   OH239681   2.260   1.171   2.671 -0.5180  0.3022  0.2940
 6089TIP3    H139682   2.240   1.077   2.662 -2.2275  0.6560  0.0313
 6089TIP3    H239683   2.347   1.181   2.631 -0.3909 -1.1312  0.1519
 6090TIP3   OH239684   1.629   1.513   5.897  0.2072  0.1333 -0.2632
 6090TIP3    H139685   1.677   1.533   5.977  0.1256 -2.2792  0.4691
 6090TIP3    H239686   1.551   1.466   5.928 -1.3327  1.6502 -1.6043
 6091TIP3   OH239687   5.565   5.715  14.233 -0.7878 -0.1246 -0.1081
 6091TIP3    H139688   5.651   5.740  14.198 -0.5326 -1.3264 -0.3857
 6091TIP3    H239689   5.502   5.757  14.175 -0.3824  0.0269 -0.4403
 6092TIP3   OH239690   6.043   5.214   0.246  0.2373  0.2706 -0.1297
 6092TIP3    H139691   6.096   5.144   0.209 -0.2618  0.6925 -1.7157
 6092TIP3    H239692   5.956   5.200   0.209 -0.5367  0.1809  1.6408
 6093TIP3   OH239693   1.260   1.406  14.855  0.2125  0.2032  0.0150
 6093TIP3    H139694   1.346   1.375  14.825  0.0283 -0.4324  0.1243
 6093TIP3    H239695   1.204   1.398  14.778  0.1284  0.1105  0.0846
 6094TIP3   OH239696   4.620   4.733   5.208  0.2279 -0.0064 -0.0758
 6094TIP3    H139697   4.595   4.700   5.294 -0.9600 -0.0031 -0.3940
 6094TIP3    H239698   4.554   4.800   5.189  2.7074  2.8338  0.6766
 6095TIP3   OH239699   1.064   5.216  11.475  0.7668 -0.8853  0.1551
 6095TIP3    H139700   1.139   5.172  11.436  1.4356  0.8531 -0.6137
 6095TIP3    H239701   1.046   5.291  11.417 -0.3534 -0.1705  1.3520
 6096TIP3   OH239702   2.290   5.863   5.490  0.3617  0.1901 -0.0164
 6096TIP3    H139703   2.300   5.778   5.533  1.9282 -0.5267 -1.6603
 6096TIP3    H239704   2.200   5.862   5.456 -0.0838 -0.2243  1.1252
 6097TIP3   OH239705   6.527   6.639  16.348 -0.0379 -0.1420  0.0735
 6097TIP3    H139706   6.591   6.702  16.315 -0.4340 -0.0279 -0.4923
 6097TIP3    H239707   6.467   6.692  16.401  0.0529 -0.1699  0.2048
 6098TIP3   OH239708   0.189   3.490  13.163  0.2965 -0.4860 -0.6929
 6098TIP3    H139709   0.211   3.401  13.136 -1.5045 -1.4559  0.7990
 6098TIP3    H239710   0.155   3.531  13.084  1.1074 -1.1417 -1.3957
 6099TIP3   OH239711   0.679   5.191   6.075  0.5029  0.7136 -0.0900
 6099TIP3    H139712   0.657   5.166   5.984  1.0702  1.1583 -0.3498
 6099TIP3    H239713   0.622   5.265   6.094  1.7122  1.8526 -0.7575
 6100TIP3   OH239714   5.461   6.331  11.191  0.1677  0.3110 -0.1139
 6100TIP3    H139715   5.480   6.354  11.099 -1.6024 -0.9391 -0.8454
 6100TIP3    H239716   5.527   6.266  11.213  2.0259  2.2014  0.3156
 6101TIP3   OH239717   2.699   5.583   6.802  0.0731  0.5055 -0.0499
 6101TIP3    H139718   2.748   5.525   6.745 -0.8695 -0.1321 -0.2252
 6101TIP3    H239719   2.632   5.621   6.746  0.4605  1.5074  0.1431
 6102TIP3   OH239720   0.940   0.318  15.920 -0.1272 -0.0287 -0.2026
 6102TIP3    H139721   0.968   0.318  16.012 -1.0366 -2.0791  0.1425
 6102TIP3    H239722   0.935   0.225  15.897 -0.8435  0.4249 -2.0490
 6103TIP3   OH239723   5.619   3.237  14.596  0.1816 -0.2489  0.0860
 6103TIP3    H139724   5.635   3.251  14.689  0.8468  0.1625 -0.0829
 6103TIP3    H239725   5.615   3.325  14.558  3.1659 -0.3659 -0.7824
 6104TIP3   OH239726   3.949   4.083   1.567  0.2281  0.3960  0.5264
 6104TIP3    H139727   3.991   4.106   1.650  1.9824  2.9558 -0.9052
 6104TIP3    H239728   4.012   4.111   1.501 -2.1599  0.8284 -1.7221
 6105TIP3   OH239729   5.702   1.016   1.481  0.7494 -0.2828 -0.2012
 6105TIP3    H139730   5.761   0.954   1.524  0.3607 -0.3282  0.2689
 6105TIP3    H239731   5.615   0.993   1.513  0.6993  1.1322  0.7424
 6106TIP3   OH239732   3.171   6.585   4.182  0.4096  0.1581 -0.3915
 6106TIP3    H139733   3.217   6.502   4.196 -0.0080  0.1014  0.7836
 6106TIP3    H239734   3.226   6.650   4.225 -0.8758 -0.0024  1.6489
 6107TIP3   OH239735   1.471   5.149  14.476 -0.4293  0.2656 -0.1602
 6107TIP3    H139736   1.471   5.057  14.452  2.3072 -0.2441  1.3675
 6107TIP3    H239737   1.454   5.149  14.571  3.7163  0.7961  0.7897
 6108TIP3   OH239738   0.811   0.783  13.960  0.0589  0.2813 -0.6332
 6108TIP3    H139739   0.765   0.834  14.027  3.4294  0.8629  1.4550
 6108TIP3    H239740   0.858   0.849  13.908  0.9624 -0.4444 -0.7475
 6109TIP3   OH239741   2.149   5.035   6.124 -0.7089 -0.0470 -0.4746
 6109TIP3    H139742   2.179   5.125   6.129 -0.4486 -0.1740  0.3772
 6109TIP3    H239743   2.106   5.019   6.207 -0.7543 -0.7082 -0.6192
 6110TIP3   OH239744   5.227   1.964   2.176 -0.2538  0.4529 -0.3856
 6110TIP3    H139745   5.149   1.908   2.178 -0.8884  1.2900 -0.9401
 6110TIP3    H239746   5.229   2.004   2.263 -0.9043  1.0255 -0.6246
 6111TIP3   OH239747   5.634   2.001   3.945  0.1080  0.5362  0.1136
 6111TIP3    H139748   5.712   1.985   3.893  0.5261  1.8399  0.2933
 6111TIP3    H239749   5.588   1.917   3.947  0.4044  0.2789 -1.7887
 6112TIP3   OH239750   1.481   5.312  11.712  0.0372 -0.6189  0.1720
 6112TIP3    H139751   1.549   5.337  11.649 -0.6103  1.3477  0.1977
 6112TIP3    H239752   1.421   5.256  11.662  0.9887 -1.3672 -0.1740
 6113TIP3   OH239753   1.291   3.775   0.911  0.5724 -0.5718 -0.2929
 6113TIP3    H139754   1.220   3.830   0.946 -1.5841 -3.0614 -0.3764
 6113TIP3    H239755   1.287   3.788   0.816 -0.5775 -1.4645 -0.3997
 6114TIP3   OH239756   3.494   3.012  12.473 -0.1898  0.4767 -0.2258
 6114TIP3    H139757   3.565   2.975  12.420 -0.3533 -0.4388  0.1714
 6114TIP3    H239758   3.414   2.984  12.428 -0.3192  0.3665  0.0749
 6115TIP3   OH239759   2.929   3.495   2.751  0.0092 -0.6540  0.3669
 6115TIP3    H139760   3.008   3.547   2.742  0.4544 -1.1235  1.3562
 6115TIP3    H239761   2.871   3.547   2.807 -0.1541 -0.5575  0.1086
 6116TIP3   OH239762   1.080   6.769   4.529  0.2636 -0.4841  0.0448
 6116TIP3    H139763   1.141   6.723   4.472  0.1850 -0.1968 -0.2685
 6116TIP3    H239764   1.005   6.790   4.472  0.9671  1.4629 -0.2285
 6117TIP3   OH239765   1.803   1.845  15.711  0.7291 -0.0274 -0.0677
 6117TIP3    H139766   1.714   1.877  15.724  1.0055  0.2334  1.3555
 6117TIP3    H239767   1.804   1.759  15.752  1.4886  0.5659  1.2287
 6118TIP3   OH239768   3.690   2.965  16.423 -0.5991  0.0940 -0.0595
 6118TIP3    H139769   3.612   2.985  16.372 -1.1075 -1.0124  0.2580
 6118TIP3    H239770   3.736   3.049  16.431 -0.2887  0.2378 -2.6464
 6119TIP3   OH239771   5.829   2.037   5.688  0.3428 -0.4198 -0.1978
 6119TIP3    H139772   5.747   2.024   5.641  1.5904  0.6141 -2.8217
 6119TIP3    H239773   5.804   2.034   5.781 -2.3153 -2.0315 -0.8552
 6120TIP3   OH239774   6.159   5.339   3.054  0.1072  0.0414 -0.2145
 6120TIP3    H139775   6.150   5.350   3.149 -1.8316  0.6797 -0.4352
 6120TIP3    H239776   6.078   5.374   3.018  0.3778 -1.1109 -2.0578
 6121TIP3   OH239777   1.922   0.834  12.183 -0.2446 -0.2353 -0.0983
 6121TIP3    H139778   1.978   0.908  12.205 -0.5129 -0.0161 -0.1586
 6121TIP3    H239779   1.834   0.870  12.180 -0.3759 -0.5555 -0.1310
 6122TIP3   OH239780   4.851   6.569   4.973  0.2132 -0.1769  1.1376
 6122TIP3    H139781   4.923   6.603   5.026  1.3108 -0.1671 -0.3117
 6122TIP3    H239782   4.779   6.630   4.988  0.9886  0.6790  1.4435
 6123TIP3   OH239783   0.561   6.760  11.956 -0.2360 -0.4067  0.5478
 6123TIP3    H139784   0.567   6.675  11.913  0.2597  0.6743 -1.6153
 6123TIP3    H239785   0.648   6.798  11.947 -1.1841  1.5660 -1.2920
 6124TIP3   OH239786   5.115   4.636   3.291  0.4957 -0.1648 -0.2658
 6124TIP3    H139787   5.060   4.558   3.286  0.2703  0.0859 -2.4001
 6124TIP3    H239788   5.145   4.638   3.382 -0.9192 -1.7383  0.2851
 6125TIP3   OH239789   6.139   1.256  16.871  0.6687 -0.4158 -0.1645
 6125TIP3    H139790   6.145   1.294  16.783 -0.7082  0.7233  0.1972
 6125TIP3    H239791   6.229   1.233  16.893  1.3049  0.9169 -1.1836
 6126TIP3   OH239792   2.674   2.524  13.963  0.2844 -0.0939 -0.4020
 6126TIP3    H139793   2.672   2.428  13.961  0.4022 -0.1591  1.1178
 6126TIP3    H239794   2.584   2.549  13.982  0.6067 -0.0084  1.1113
 6127TIP3   OH239795   4.026   5.548  16.976  0.3285 -0.2183  0.2987
 6127TIP3    H139796   4.052   5.622  17.031  0.5431 -0.6800  0.8362
 6127TIP3    H239797   4.046   5.575  16.887  1.6037 -0.1041  0.5923
 6128TIP3   OH239798   3.028   5.494   0.170  0.4184 -0.0333  0.3050
 6128TIP3    H139799   2.983   5.496   0.254  1.5133 -1.9659  0.9937
 6128TIP3    H239800   2.959   5.477   0.106 -0.0728 -1.3194  1.1504
 6129TIP3   OH239801   3.176   5.371   1.745  0.8849 -0.0061  0.0190
 6129TIP3    H139802   3.100   5.332   1.789  0.5913  0.4423 -0.0833
 6129TIP3    H239803   3.160   5.358   1.652  0.3982  1.0475 -0.0540
 6130TIP3   OH239804   1.538   3.406   1.137  0.3726  0.1210  0.3751
 6130TIP3    H139805   1.621   3.390   1.184  0.4870 -1.2228 -0.2247
 6130TIP3    H239806   1.472   3.406   1.206  0.6715 -0.7049  0.6866
 6131TIP3   OH239807   6.014   3.296   4.655  0.3224  0.1091 -0.0745
 6131TIP3    H139808   6.017   3.210   4.613 -0.0647  0.7141 -1.3768
 6131TIP3    H239809   5.923   3.306   4.684  0.4988 -0.1425  0.5975
 6132TIP3   OH239810   4.883   0.244  15.528  0.0811  0.5400 -0.0927
 6132TIP3    H139811   4.853   0.281  15.612 -1.9352 -0.1906 -0.4336
 6132TIP3    H239812   4.963   0.293  15.508  1.1187  0.1335  2.6592
 6133TIP3   OH239813   0.990   5.003  13.748  0.3572  0.1428 -0.3664
 6133TIP3    H139814   1.040   4.924  13.769  0.2692 -0.0130 -0.7375
 6133TIP3    H239815   0.923   5.007  13.816 -0.3352 -0.7199 -0.9562
 6134TIP3   OH239816   0.926   3.568  17.145  0.3174  0.3664 -0.4160
 6134TIP3    H139817   0.882   3.599  17.224  0.4375  0.9539 -0.5764
 6134TIP3    H239818   0.957   3.480  17.168  0.5826  0.6327  0.2861
 6135TIP3   OH239819   0.034   4.096  14.860 -0.4822  0.6502  0.5089
 6135TIP3    H139820   0.012   4.180  14.819 -1.2148  1.3972  2.3070
 6135TIP3    H239821  -0.049   4.064  14.895 -0.3852 -1.3263 -0.9186
 6136TIP3   OH239822   4.266   1.600  11.067 -0.1195 -0.1230 -0.0539
 6136TIP3    H139823   4.224   1.642  11.142  4.9625  3.4772  1.3880
 6136TIP3    H239824   4.283   1.510  11.096 -1.7390  0.0218  1.4777
 6137TIP3   OH239825   5.918   4.972   1.805 -0.1488  0.3028 -0.1012
 6137TIP3    H139826   5.842   4.990   1.861 -0.5647  0.6809 -0.7671
 6137TIP3    H239827   5.949   4.887   1.834  0.3518  0.9898  1.4687
 6138TIP3   OH239828   5.709   5.487   2.478 -0.2650 -0.3361  0.0304
 6138TIP3    H139829   5.781   5.513   2.421 -0.3417 -0.7193 -0.2464
 6138TIP3    H239830   5.663   5.419   2.428  0.3719 -1.5454  1.0401
 6139TIP3   OH239831   1.588   3.845   0.530 -0.2042  0.0590 -0.2122
 6139TIP3    H139832   1.612   3.923   0.479  1.7119 -1.0909 -1.1791
 6139TIP3    H239833   1.626   3.861   0.616 -0.0760  0.3403 -0.3179
 6140TIP3   OH239834   5.621   2.062   1.378  0.1536 -0.0250 -0.6646
 6140TIP3    H139835   5.556   2.034   1.313 -1.1689  1.5405 -0.1057
 6140TIP3    H239836   5.648   1.981   1.421  0.7264 -1.0448 -2.8217
 6141TIP3   OH239837   0.913   0.751  11.144  0.2770 -0.3199 -0.4428
 6141TIP3    H139838   0.834   0.782  11.190 -0.9007 -2.2826 -1.0305
 6141TIP3    H239839   0.924   0.813  11.072 -0.5645  0.1517 -0.1851
 6142TIP3   OH239840   0.560   2.179  15.478 -0.6989 -0.1187 -0.2692
 6142TIP3    H139841   0.542   2.225  15.560 -0.6242  0.4066 -0.5458
 6142TIP3    H239842   0.624   2.112  15.502 -0.6087  0.0924  0.0862
 6143TIP3   OH239843   2.195   0.154   3.016  0.3129  0.0026  0.2892
 6143TIP3    H139844   2.134   0.220   2.983 -0.1268  0.4090  1.8078
 6143TIP3    H239845   2.144   0.106   3.081  1.1727 -0.6511  0.4970
 6144TIP3   OH239846   2.360   3.562  15.642 -0.3215 -0.4333  0.3827
 6144TIP3    H139847   2.321   3.482  15.606 -0.8891 -0.1358  0.3417
 6144TIP3    H239848   2.330   3.565  15.732 -2.2856  0.9800 -0.2543
 6145TIP3   OH239849   5.235   0.433   1.200  0.7788  0.0015 -0.6970
 6145TIP3    H139850   5.317   0.479   1.185 -0.0087  1.5545 -0.5392
 6145TIP3    H239851   5.214   0.452   1.292 -0.4725  0.9364 -1.1374
 6146TIP3   OH239852   1.483   4.322  16.439 -0.1458  0.4317  0.7516
 6146TIP3    H139853   1.492   4.386  16.369  0.0120 -0.2747  0.1110
 6146TIP3    H239854   1.531   4.361  16.513  0.2051  0.9125  0.2803
 6147TIP3   OH239855   6.415   3.058   0.076 -0.6305 -0.1642  0.1259
 6147TIP3    H139856   6.450   3.139   0.111  0.4303 -0.9251  0.8716
 6147TIP3    H239857   6.440   2.991   0.139 -0.2119 -1.2994 -1.1936
 6148TIP3   OH239858   1.459   4.338   3.107 -0.3278 -0.1045  0.8675
 6148TIP3    H139859   1.401   4.262   3.097  0.9675 -1.0055 -0.0463
 6148TIP3    H239860   1.403   4.413   3.090 -1.3819 -0.9169  0.6471
 6149TIP3   OH239861   6.285   3.528   1.043 -0.4959 -0.4687  0.3187
 6149TIP3    H139862   6.316   3.584   0.972 -0.3003 -1.6070 -0.5052
 6149TIP3    H239863   6.343   3.551   1.117 -1.2621  1.3430  0.4178
 6150TIP3   OH239864   5.344   4.916   0.050 -0.2583 -0.3056 -0.2954
 6150TIP3    H139865   5.407   4.891   0.117  0.2880  0.0529 -0.6693
 6150TIP3    H239866   5.264   4.869   0.074  0.8676 -2.9202 -1.2887
 6151TIP3   OH239867   3.623   1.217  15.276  0.8721  0.0268 -0.2953
 6151TIP3    H139868   3.637   1.128  15.309 -1.2533  0.6027  2.5496
 6151TIP3    H239869   3.556   1.208  15.208 -0.4228 -0.4705  0.9912
 6152TIP3   OH239870   3.421   1.011   1.124  0.3979  0.0090 -0.7420
 6152TIP3    H139871   3.479   1.082   1.150  0.9763 -0.9675  0.7858
 6152TIP3    H239872   3.338   1.030   1.167  0.8935 -0.7989  0.6244
 6153TIP3   OH239873   5.999   3.251   3.725 -0.7898  0.1289  0.0624
 6153TIP3    H139874   6.059   3.215   3.660 -0.5301  0.7721 -0.0598
 6153TIP3    H239875   6.022   3.207   3.807 -0.4662  0.0378 -0.0782
 6154TIP3   OH239876   1.963   1.842  13.859  0.4210 -0.1832  0.4765
 6154TIP3    H139877   1.962   1.809  13.769  0.8354 -0.0828  0.4356
 6154TIP3    H239878   1.883   1.894  13.866  0.6517  0.2402  0.0051
 6155TIP3   OH239879   0.767   4.954   4.687  0.8491  0.6197  0.2276
 6155TIP3    H139880   0.768   4.899   4.609  1.4550 -0.0716  0.7133
 6155TIP3    H239881   0.696   5.017   4.672  1.1812  0.7096 -1.0207
 6156TIP3   OH239882   2.379   4.208   3.592 -0.6561  0.0104  0.1615
 6156TIP3    H139883   2.429   4.228   3.513 -1.1737  0.3287 -0.0910
 6156TIP3    H239884   2.441   4.223   3.664  0.4759 -2.3210 -0.2365
 6157TIP3   OH239885   5.933   6.464   0.466 -0.1118 -0.8001 -0.1572
 6157TIP3    H139886   5.930   6.549   0.508 -0.8947 -0.8879 -0.0258
 6157TIP3    H239887   5.989   6.477   0.389 -2.7826  0.7303 -2.0362
 6158TIP3   OH239888   3.270   1.918  17.027 -0.8188  0.1080 -0.2203
 6158TIP3    H139889   3.281   2.007  17.062 -1.6154 -0.2728  1.0473
 6158TIP3    H239890   3.355   1.877  17.042 -0.9545  0.1479  0.7304
 6159TIP3   OH239891   3.332   2.494   2.913  0.2027 -0.0259 -0.5599
 6159TIP3    H139892   3.393   2.434   2.869  0.6336  1.4001 -2.0029
 6159TIP3    H239893   3.281   2.532   2.842 -1.2327  0.0772  0.4933
 6160TIP3   OH239894   5.492   6.185  16.766 -0.3615  0.4722  0.2290
 6160TIP3    H139895   5.489   6.120  16.837  0.9083 -0.3102 -0.4022
 6160TIP3    H239896   5.529   6.263  16.806 -2.1568  0.9625  1.0654
 6161TIP3   OH239897   1.468   4.879  14.408 -0.0459  0.1688  0.5475
 6161TIP3    H139898   1.549   4.843  14.442 -0.1089  0.2038  0.7378
 6161TIP3    H239899   1.459   4.841  14.321 -0.7181 -1.2138  1.1989
 6162TIP3   OH239900   1.690   3.389   3.533 -0.1993  0.6817  0.2140
 6162TIP3    H139901   1.615   3.332   3.551  1.3508 -1.3737  0.4291
 6162TIP3    H239902   1.766   3.331   3.532  1.4925  2.7578  0.4246
 6163TIP3   OH239903   3.480   0.859   3.130 -0.2139 -0.0405  0.3344
 6163TIP3    H139904   3.450   0.804   3.057  0.8644 -0.5663  0.2723
 6163TIP3    H239905   3.429   0.828   3.205 -0.8239  0.0206 -0.0497
 6164TIP3   OH239906   6.624   4.370  16.319 -0.6289  0.5089 -0.4735
 6164TIP3    H139907   6.545   4.415  16.349 -0.9277 -0.8680  1.0136
 6164TIP3    H239908   6.696   4.417  16.360 -0.7077  1.3977 -1.3358
 6165TIP3   OH239909   4.971   0.420   2.789  0.2976 -0.6964  0.1974
 6165TIP3    H139910   4.918   0.445   2.865 -0.6884 -1.0078 -0.3613
 6165TIP3    H239911   5.055   0.464   2.802 -0.3702  0.4716  0.7235
 6166TIP3   OH239912   5.179   2.663   1.538 -0.8404 -0.6836 -0.1324
 6166TIP3    H139913   5.194   2.588   1.596 -2.0485 -0.8501 -0.0070
 6166TIP3    H239914   5.215   2.635   1.454  0.9978 -0.4121  0.5061
 6167TIP3   OH239915   6.529   2.347  15.366 -0.0310  0.3128 -0.4831
 6167TIP3    H139916   6.561   2.326  15.454  2.0021  1.1634 -0.9579
 6167TIP3    H239917   6.600   2.319  15.308 -2.1238 -2.1360 -2.1168
 6168TIP3   OH239918   1.005   6.638  11.956 -0.4320 -0.4979  0.3167
 6168TIP3    H139919   1.075   6.670  12.012 -0.1172 -2.4302  1.1194
 6168TIP3    H239920   0.946   6.591  12.015 -1.9341  0.2903 -0.4836
 6169TIP3   OH239921   2.658   6.648   4.137  0.2837 -0.2144  0.0861
 6169TIP3    H139922   2.753   6.648   4.143  0.2124  0.5410  1.4806
 6169TIP3    H239923   2.630   6.729   4.180 -1.0430 -1.0151  0.8380
 6170TIP3   OH239924   5.752   5.561  11.573 -0.1030 -0.3236 -0.0630
 6170TIP3    H139925   5.657   5.569  11.564  0.0884  0.9163 -1.4577
 6170TIP3    H239926   5.785   5.650  11.558  1.3292 -0.9143 -0.6210
 6171TIP3   OH239927   2.978   5.611   2.804 -0.7069  0.0435  0.5157
 6171TIP3    H139928   3.005   5.532   2.851 -0.3859 -0.3113 -0.2633
 6171TIP3    H239929   2.898   5.586   2.758 -0.3862  0.0458 -0.0558
 6172TIP3   OH239930   0.409   5.644   0.497  0.0507  0.5211 -0.1343
 6172TIP3    H139931   0.452   5.665   0.580 -2.1973 -0.6680  1.4449
 6172TIP3    H239932   0.319   5.674   0.509 -0.9099 -1.6918 -1.2360
 6173TIP3   OH239933   0.840   3.056  13.380  0.4682 -0.1288 -0.0179
 6173TIP3    H139934   0.932   3.037  13.361  1.1241  2.5783  0.1198
 6173TIP3    H239935   0.806   3.092  13.298  0.2053  1.1241  0.6288
 6174TIP3   OH239936   4.507   3.901   2.274 -0.6237  0.0946 -0.2107
 6174TIP3    H139937   4.465   3.878   2.191 -1.2407  0.9780 -0.1519
 6174TIP3    H239938   4.436   3.931   2.330  0.1028  2.1009 -0.2689
 6175TIP3   OH239939   2.234   2.250   3.192  0.2049 -0.1895  0.4031
 6175TIP3    H139940   2.206   2.223   3.280  0.5209 -0.0366  0.5537
 6175TIP3    H239941   2.185   2.331   3.176 -1.9408 -1.6079 -0.6892
 6176TIP3   OH239942   1.604   2.596  15.695  0.0447  0.7493  0.9480
 6176TIP3    H139943   1.511   2.607  15.712 -0.2235  1.6358 -0.8837
 6176TIP3    H239944   1.611   2.511  15.651 -0.1802  1.4979 -0.5966
 6177TIP3   OH239945   4.144   6.256   0.397  0.5538  0.3671 -0.3551
 6177TIP3    H139946   4.171   6.165   0.405 -2.6937 -0.5778  2.9432
 6177TIP3    H239947   4.202   6.304   0.456  0.1451 -0.2148  0.5427
 6178TIP3   OH239948   5.823   1.859  14.211 -0.1060 -0.4821  0.2800
 6178TIP3    H139949   5.794   1.944  14.176  0.1623 -1.2309 -1.9065
 6178TIP3    H239950   5.754   1.834  14.272 -1.3303  0.2865 -0.7369
 6179TIP3   OH239951   0.320   5.027   2.046 -0.3054 -0.2772 -0.0612
 6179TIP3    H139952   0.250   5.085   2.075  0.8822  1.3640 -0.2952
 6179TIP3    H239953   0.335   4.968   2.119 -0.6872  0.5746  0.7212
 6180TIP3   OH239954   3.987   2.624   0.338 -0.4060 -0.1131  0.1338
 6180TIP3    H139955   3.938   2.559   0.389 -2.2406  1.2278  0.2065
 6180TIP3    H239956   3.940   2.628   0.254 -0.7300  1.5248  0.3575
 6181TIP3   OH239957   5.993   0.815   0.227 -0.3396  0.2619  0.4665
 6181TIP3    H139958   6.080   0.854   0.232 -0.0750 -0.2536  0.0213
 6181TIP3    H239959   5.938   0.870   0.282  0.1685  0.8712  0.3698
 6182TIP3   OH239960   0.558   2.630  14.342 -0.1216  0.4127 -0.3601
 6182TIP3    H139961   0.575   2.687  14.417  1.1110  0.0556 -0.3400
 6182TIP3    H239962   0.635   2.572  14.338 -2.1126 -2.5238  0.7561
 6183TIP3   OH239963   6.210   1.268  16.520  0.0241 -0.4394  0.1113
 6183TIP3    H139964   6.218   1.175  16.537  1.1411 -0.2315  0.8475
 6183TIP3    H239965   6.120   1.290  16.546 -0.3210 -1.3386 -0.2836
 6184TIP3   OH239966   2.433   3.141   2.016  0.1138  0.4830  0.0889
 6184TIP3    H139967   2.344   3.117   2.042  0.2090  0.0019 -0.0162
 6184TIP3    H239968   2.467   3.063   1.972  0.5359  0.7164 -0.0065
 6185TIP3   OH239969   1.941   6.078  13.424  0.1325 -0.1774  0.1063
 6185TIP3    H139970   1.947   5.995  13.377  2.0574  0.4707 -0.9268
 6185TIP3    H239971   1.934   6.053  13.516 -0.9322 -1.4621 -0.2940
 6186TIP3   OH239972   0.204   3.068  16.995  0.4974 -0.4996 -0.4767
 6186TIP3    H139973   0.165   3.135  16.939  0.6702  1.2632  1.4134
 6186TIP3    H239974   0.290   3.051  16.955  0.6500  0.7647 -0.7273
 6187TIP3   OH239975   1.124   4.526   5.558 -0.3263  0.2517  0.0132
 6187TIP3    H139976   1.124   4.621   5.558  0.7453  0.2750 -1.2255
 6187TIP3    H239977   1.039   4.502   5.597  0.1726  1.6549  2.1274
 6188TIP3   OH239978   5.574   6.184   3.008  0.3962  0.0140 -0.6091
 6188TIP3    H139979   5.588   6.149   3.096 -0.2826 -0.4384 -0.6700
 6188TIP3    H239980   5.494   6.142   2.978  0.2144  0.7198 -1.1614
 6189TIP3   OH239981   5.755   5.658   5.210  0.0110  0.4381  0.0102
 6189TIP3    H139982   5.824   5.708   5.165  0.9594 -0.0817  0.8588
 6189TIP3    H239983   5.791   5.640   5.297 -1.0458 -0.1872  0.3345
 6190TIP3   OH239984   0.849   5.985  12.531 -0.2927 -0.8342 -0.2049
 6190TIP3    H139985   0.814   5.932  12.460  1.9458 -0.6433 -1.5515
 6190TIP3    H239986   0.797   6.065  12.530  0.8191 -0.0405 -2.9214
 6191TIP3   OH239987   1.930   4.046   6.007  0.0155  0.5152 -0.2126
 6191TIP3    H139988   2.016   4.087   6.005  0.6175 -0.5452  1.5177
 6191TIP3    H239989   1.936   3.982   6.079 -1.3426 -1.4747 -1.7585
 6192TIP3   OH239990   5.575   0.201  15.067  0.7812  0.6267  0.3087
 6192TIP3    H139991   5.578   0.118  15.019 -2.6358  1.1376 -1.0670
 6192TIP3    H239992   5.542   0.177  15.153 -0.0212  0.5085 -0.0233
 6193TIP3   OH239993   2.017   2.086  12.572  0.2241 -0.2070  0.2117
 6193TIP3    H139994   2.079   2.019  12.543  0.3905  0.2256 -0.4350
 6193TIP3    H239995   2.039   2.101  12.664 -0.0792 -1.3325  0.4962
 6194TIP3   OH239996   4.411   4.956  15.762 -0.1272  0.2883 -0.8884
 6194TIP3    H139997   4.455   4.913  15.689  1.3301 -0.1012  0.1656
 6194TIP3    H239998   4.349   4.891  15.794  1.0963 -0.5792 -0.1669
 6195TIP3   OH239999   2.387   6.591  16.886  0.3575 -0.3496  0.3952
 6195TIP3    H140000   2.427   6.677  16.898  1.9287 -0.9945 -0.0712
 6195TIP3    H240001   2.363   6.588  16.794  0.6221 -0.5532  0.3332
 6196TIP3   OH240002   0.507   4.461   0.958 -1.1311  0.3653  0.3890
 6196TIP3    H140003   0.513   4.528   0.891 -0.2430 -1.2019 -1.1636
 6196TIP3    H240004   0.585   4.407   0.947  1.2563  2.2050  5.2178
 6197TIP3   OH240005   5.096   0.170  14.599  0.4376  0.0968  0.3696
 6197TIP3    H140006   5.137   0.255  14.585 -1.9204  1.3053  0.3611
 6197TIP3    H240007   5.053   0.151  14.516 -0.5284 -0.2450  0.9367
 6198TIP3   OH240008   0.531   5.433   0.148  0.0721 -0.1947  0.0852
 6198TIP3    H140009   0.475   5.357   0.160 -1.0743  0.2820 -1.7110
 6198TIP3    H240010   0.476   5.507   0.173  2.3429  0.0686  5.5791
 6199TIP3   OH240011   6.404   5.100  14.948  0.0462 -0.3343 -0.6522
 6199TIP3    H140012   6.411   5.012  14.910 -0.2353 -1.2324  1.2393
 6199TIP3    H240013   6.479   5.106  15.007 -1.5998 -0.6245  1.6354
 6200TIP3   OH240014   1.102   4.202  12.972 -0.1412  0.4836  0.0156
 6200TIP3    H140015   1.067   4.286  13.002 -1.4458 -0.2120  0.5277
 6200TIP3    H240016   1.139   4.221  12.886 -1.0786  1.4460 -0.2031
 6201TIP3   OH240017   5.080   0.479   1.531  0.2199  0.1749  0.0942
 6201TIP3    H140018   5.153   0.452   1.587 -0.0015  1.2053  0.9036
 6201TIP3    H240019   5.004   0.435   1.569  0.0836  0.8033  0.5502
 6202TIP3   OH240020   3.202   2.697  14.002 -0.6823  0.0835  0.3796
 6202TIP3    H140021   3.203   2.606  14.032 -1.9615  0.0268  0.3241
 6202TIP3    H240022   3.176   2.748  14.079 -2.8797  0.0550 -0.2548
 6203TIP3   OH240023   1.022   5.169  15.498 -0.2501 -0.2575  0.0854
 6203TIP3    H140024   0.945   5.204  15.453 -0.1273 -2.2185 -1.8445
 6203TIP3    H240025   1.094   5.224  15.468 -0.1361 -1.6314 -2.4706
 6204TIP3   OH240026   4.151   0.356   0.806 -0.5763 -0.2595 -0.7663
 6204TIP3    H140027   4.075   0.302   0.787 -1.6708  0.3347  1.5343
 6204TIP3    H240028   4.141   0.432   0.749  0.0851 -1.6540 -2.8167
 6205TIP3   OH240029   5.091   0.800  13.582  0.3891  0.6585 -0.2204
 6205TIP3    H140030   5.023   0.865  13.601 -0.6328 -0.3382 -0.3556
 6205TIP3    H240031   5.062   0.721  13.627  1.8952  0.4267  0.3929
 6206TIP3   OH240032   0.534   2.759   3.681 -0.1312  0.1634 -0.4595
 6206TIP3    H140033   0.561   2.849   3.663  1.9048 -0.0026  1.2842
 6206TIP3    H240034   0.602   2.705   3.640 -0.3345 -0.5075  0.0684
 6207TIP3   OH240035   3.253   0.294   2.972 -0.1690 -0.5546  0.0732
 6207TIP3    H140036   3.321   0.262   2.914 -0.4500 -1.2540  0.1155
 6207TIP3    H240037   3.291   0.288   3.060  1.0271  2.4297 -0.1141
 6208TIP3   OH240038   0.561   0.649   0.409 -0.1798  0.3222  0.1788
 6208TIP3    H140039   0.578   0.594   0.332  2.8436  0.2336  0.7537
 6208TIP3    H240040   0.483   0.611   0.449 -0.7676 -0.7518 -1.8450
 6209TIP3   OH240041   5.886   0.989  13.439  0.1908 -0.3593  0.2163
 6209TIP3    H140042   5.879   0.896  13.419 -1.1132 -0.6019  1.6234
 6209TIP3    H240043   5.798   1.014  13.468  0.9926  0.8459  1.7342
 6210TIP3   OH240044   4.597   2.138  13.631 -0.3096  0.0402  0.0687
 6210TIP3    H140045   4.591   2.226  13.670  0.4719  0.0967  0.0733
 6210TIP3    H240046   4.618   2.081  13.705 -2.5994 -0.4603  0.4141
 6211TIP3   OH240047   5.554   0.745  13.537 -0.1082 -0.2127  0.4585
 6211TIP3    H140048   5.530   0.801  13.464  1.9517  2.1291  1.4413
 6211TIP3    H240049   5.595   0.668  13.495 -1.7337 -0.4130 -0.8678
 6212TIP3   OH240050   2.448   0.615  16.838 -0.3110  0.2411  0.1871
 6212TIP3    H140051   2.440   0.591  16.745 -2.7673 -2.0352  0.8521
 6212TIP3    H240052   2.532   0.579  16.865  1.2042  2.3201 -1.4411
 6213TIP3   OH240053   2.186   3.722  13.373 -0.3668  0.6093  0.0886
 6213TIP3    H140054   2.237   3.773  13.436  0.8697 -0.2840 -0.1748
 6213TIP3    H240055   2.116   3.782  13.346 -0.2053  1.4228  1.3814
 6214TIP3   OH240056   2.773   0.431   5.015 -0.2056  0.4649 -0.1327
 6214TIP3    H140057   2.834   0.449   5.087 -1.4642  1.4800  0.7424
 6214TIP3    H240058   2.761   0.516   4.973 -0.5467  0.1480 -0.6807
 6215TIP3   OH240059   6.748   2.276  11.432  0.3192  0.0702 -0.7584
 6215TIP3    H140060   6.726   2.317  11.348 -0.4063 -0.0765 -0.6526
 6215TIP3    H240061   6.723   2.184  11.420  0.2845  0.0338 -0.4080
 6216TIP3   OH240062   3.705   3.428   3.639 -0.5021  0.2967 -0.0106
 6216TIP3    H140063   3.672   3.487   3.707  0.2680  0.7319 -0.0009
 6216TIP3    H240064   3.782   3.473   3.604 -1.1233  0.2845 -1.4669
 6217TIP3   OH240065   0.750   2.389   5.229  0.7368  0.5373 -0.2272
 6217TIP3    H140066   0.790   2.310   5.193  0.4048  0.2899 -0.0682
 6217TIP3    H240067   0.692   2.420   5.159 -0.1803 -0.1458  0.2109
 6218TIP3   OH240068   6.118   6.094   3.577  0.3079  0.1477 -0.0719
 6218TIP3    H140069   6.062   6.094   3.500 -1.9436  0.6436  1.4690
 6218TIP3    H240070   6.100   6.010   3.620 -1.8900  1.6299  2.1451
 6219TIP3   OH240071   1.128   0.940   4.536 -0.2868  0.1364  0.4454
 6219TIP3    H140072   1.078   1.002   4.483 -0.1229  0.3204  0.5068
 6219TIP3    H240073   1.172   0.993   4.602  3.2132  0.6067 -1.9455
 6220TIP3   OH240074   6.631   2.874  16.986 -0.8252  0.1074 -0.0141
 6220TIP3    H140075   6.647   2.845  16.896  0.1456 -1.6682  0.6924
 6220TIP3    H240076   6.625   2.970  16.979 -0.2445  0.0503 -1.8845
 6221TIP3   OH240077   5.767   3.706   0.793  0.1584  0.0143  0.0849
 6221TIP3    H140078   5.852   3.667   0.817  0.8266  1.1806 -0.2794
 6221TIP3    H240079   5.714   3.632   0.764  0.6686 -0.9008  1.3688
 6222TIP3   OH240080   1.347   3.615   3.053 -0.2533 -0.3866  0.3176
 6222TIP3    H140081   1.296   3.696   3.052  0.6284  0.1890 -0.8014
 6222TIP3    H240082   1.437   3.644   3.068  0.2470 -1.0303 -1.2314
 6223TIP3   OH240083   0.331   2.427   6.000 -0.0942 -0.0116  0.3897
 6223TIP3    H140084   0.320   2.483   6.077 -0.2816 -1.3214  1.3462
 6223TIP3    H240085   0.350   2.341   6.035  3.0041 -0.0452 -1.0732
 6224TIP3   OH240086   2.819   1.126  11.239  0.0625 -0.1586 -0.2851
 6224TIP3    H140087   2.788   1.207  11.198  0.9707  0.4925  0.2803
 6224TIP3    H240088   2.909   1.117  11.207  0.9603  0.6144  1.8862
 6225TIP3   OH240089   5.942   0.494  10.918  0.5932 -0.1877 -0.1076
 6225TIP3    H140090   5.887   0.474  10.843  1.0808 -0.2602 -0.4531
 6225TIP3    H240091   5.958   0.409  10.960  0.2045 -0.1295  0.1654
 6226TIP3   OH240092   3.613   5.691   3.403  0.2025 -0.6559 -0.1318
 6226TIP3    H140093   3.675   5.733   3.462  0.4155 -0.8453 -0.2169
 6226TIP3    H240094   3.601   5.753   3.332  2.5052 -1.7358 -1.5973
 6227TIP3   OH240095   5.032   0.395   3.447  0.2170 -0.8012  0.2618
 6227TIP3    H140096   5.090   0.437   3.382 -0.1984 -0.1605  0.2982
 6227TIP3    H240097   4.981   0.332   3.396 -0.6840  0.2710 -0.1988
 6228TIP3   OH240098   3.233   1.101   2.116 -0.2924 -0.3975  0.2531
 6228TIP3    H140099   3.232   1.009   2.143 -0.8542 -0.4967 -0.0959
 6228TIP3    H240100   3.258   1.149   2.195 -2.5140 -0.6233  1.1711
 6229TIP3   OH240101   2.211   4.099  12.321  0.1815 -0.0811 -0.3699
 6229TIP3    H140102   2.240   4.119  12.410  1.8190 -2.5117 -0.2597
 6229TIP3    H240103   2.271   4.149  12.265  0.9344 -0.6807 -0.1091
 6230TIP3   OH240104   1.400   2.901  10.965  0.0548  0.3774 -0.5436
 6230TIP3    H140105   1.440   2.834  10.911  0.0334  0.6051 -0.8501
 6230TIP3    H240106   1.329   2.936  10.911  0.6112  1.2397 -0.7333
 6231TIP3   OH240107   1.039   3.361  11.635 -0.0123  0.0811  0.1283
 6231TIP3    H140108   1.010   3.394  11.720 -0.7825  0.0247 -0.1022
 6231TIP3    H240109   1.078   3.276  11.653  1.6216  0.8984  0.6777
 6232TIP3   OH240110   3.671   2.502   4.332  0.0920  0.2699  0.1763
 6232TIP3    H140111   3.716   2.560   4.393  1.0016  0.7950 -0.9632
 6232TIP3    H240112   3.585   2.542   4.321 -0.8608 -0.8950  2.5823
 6233TIP3   OH240113   6.471   4.511   3.777  0.3657  0.2360 -0.5599
 6233TIP3    H140114   6.490   4.555   3.860 -0.6408 -1.3396  0.5548
 6233TIP3    H240115   6.554   4.512   3.730  0.6018  2.4995 -0.2242
 6234TIP3   OH240116   6.179   3.613   4.296  0.2212  0.6200  0.4470
 6234TIP3    H140117   6.190   3.692   4.349  0.8910  1.9580 -1.5513
 6234TIP3    H240118   6.254   3.614   4.237 -1.0073 -0.2036 -1.2031
 6235TIP3   OH240119   5.849   4.236   0.045 -0.0035  0.1984  0.1424
 6235TIP3    H140120   5.856   4.277  -0.041  0.8625 -0.8323 -0.3156
 6235TIP3    H240121   5.890   4.150   0.033 -0.4070 -0.1949  1.4366
 6236TIP3   OH240122   5.589   3.394   3.240  0.7375  0.4807 -0.1006
 6236TIP3    H140123   5.572   3.354   3.155  0.2043  0.0195  0.2140
 6236TIP3    H240124   5.636   3.326   3.289  1.0659  0.7546 -0.0329
 6237TIP3   OH240125   2.195   1.820  16.084  0.3142  0.0719 -0.0161
 6237TIP3    H140126   2.125   1.816  16.019 -0.1816  0.3809  0.4897
 6237TIP3    H240127   2.175   1.897  16.137  0.4935 -0.3909  0.7455
 6238TIP3   OH240128   6.125   2.374   5.929  0.4338  0.1368  0.0710
 6238TIP3    H140129   6.049   2.429   5.947  0.6971  0.2540  0.8883
 6238TIP3    H240130   6.126   2.310   6.001 -0.4733 -1.6312 -1.4153
 6239TIP3   OH240131   2.595   1.246   3.713 -0.3337 -0.0383  0.1819
 6239TIP3    H140132   2.607   1.212   3.625  1.2006 -0.2573  0.4422
 6239TIP3    H240133   2.506   1.220   3.737 -0.9775  0.5123 -1.4898
 6240TIP3   OH240134   5.828   0.370   0.110 -0.0810 -0.3234  0.2369
 6240TIP3    H140135   5.768   0.365   0.036  0.1605  1.5072 -0.1481
 6240TIP3    H240136   5.856   0.462   0.111  1.2849 -0.7171  1.5255
 6241TIP3   OH240137   6.319   4.321  11.815  0.2390  0.4543  0.3618
 6241TIP3    H140138   6.303   4.412  11.788  1.6622  0.7482  0.4285
 6241TIP3    H240139   6.246   4.272  11.778  0.1505  1.4325 -0.8193
 6242TIP3   OH240140   0.963   4.776  11.643  0.2401  0.1106 -0.4283
 6242TIP3    H140141   0.933   4.867  11.647  0.0169 -0.0033  0.9303
 6242TIP3    H240142   1.051   4.782  11.604  0.9223  1.1082  1.1659
 6243TIP3   OH240143   0.084   1.624   0.235 -0.2903  0.1320  0.5346
 6243TIP3    H140144   0.119   1.651   0.320 -1.3780 -1.4062  1.5319
 6243TIP3    H240145   0.088   1.703   0.181  0.9017  1.0162  1.8417
 6244TIP3   OH240146   5.761   0.983   3.656  0.4991 -0.1008 -0.2793
 6244TIP3    H140147   5.822   0.942   3.595  0.6401  0.9105 -0.8398
 6244TIP3    H240148   5.726   1.058   3.608  0.4236  0.5688  0.7981
 6245TIP3   OH240149   0.012   4.824  10.651  0.2583  0.0382  0.3851
 6245TIP3    H140150   0.061   4.802  10.572  0.0422  1.2527 -0.1090
 6245TIP3    H240151   0.079   4.847  10.715  0.4397 -1.0856  0.6190
 6246TIP3   OH240152   6.629   4.600   2.250  0.9672 -0.3452  0.1303
 6246TIP3    H140153   6.615   4.650   2.170  0.2201  1.8859  1.5345
 6246TIP3    H240154   6.567   4.527   2.245 -0.8291  1.1310 -0.3094
 6247TIP3   OH240155   6.407   2.208   5.078 -0.1601  0.3860 -0.5875
 6247TIP3    H140156   6.359   2.145   5.024 -0.2947  0.1282 -0.1760
 6247TIP3    H240157   6.495   2.171   5.087 -0.2863  0.1654 -0.2097
 6248TIP3   OH240158   4.526   2.047  12.702  0.3907  0.1338 -0.0559
 6248TIP3    H140159   4.463   2.100  12.750 -0.3489  1.1566 -2.0613
 6248TIP3    H240160   4.486   1.960  12.697  0.6123 -0.0743  1.3603
 6249TIP3   OH240161   6.739   1.061  13.003  0.0253 -0.4384  0.8256
 6249TIP3    H140162   6.721   0.967  13.009  0.4931 -0.4722  1.8561
 6249TIP3    H240163   6.653   1.102  13.000 -0.2545 -1.0065 -2.3805
 6250TIP3   OH240164   1.174   1.768  14.809 -0.1337  0.3837 -0.9691
 6250TIP3    H140165   1.270   1.774  14.814 -0.1587  1.9335 -1.7690
 6250TIP3    H240166   1.156   1.734  14.722 -0.3119 -1.5210 -0.2387
 6251TIP3   OH240167   0.117   6.242  15.194 -0.2698  0.0656  0.2271
 6251TIP3    H140168   0.118   6.148  15.215  1.2628  0.3649  1.6774
 6251TIP3    H240169   0.125   6.285  15.279  1.5129  1.4504 -0.5929
 6252TIP3   OH240170   0.390   3.254   0.295 -0.4128  0.3361 -0.0750
 6252TIP3    H140171   0.295   3.266   0.304 -0.4253 -0.3163  0.7361
 6252TIP3    H240172   0.428   3.338   0.320 -0.6425 -0.2516  2.5140
 6253TIP3   OH240173   3.573   1.138   1.334  0.0185 -0.4797 -0.3496
 6253TIP3    H140174   3.500   1.095   1.379  1.5210 -3.4554 -0.5245
 6253TIP3    H240175   3.649   1.120   1.389  0.9400  1.0983 -1.0260
 6254TIP3   OH240176   5.214   0.293  11.166 -0.2199 -0.1672 -1.0054
 6254TIP3    H140177   5.285   0.335  11.213  1.2018 -2.4450 -0.9407
 6254TIP3    H240178   5.249   0.276  11.079 -1.1139 -0.2610 -1.3575
 6255TIP3   OH240179   6.690   2.094  12.942  0.0260  0.5650  0.2205
 6255TIP3    H140180   6.650   2.014  12.907 -0.7761  1.7103 -1.5918
 6255TIP3    H240181   6.682   2.084  13.037 -0.2793 -1.3730  0.0479
 6256TIP3   OH240182   2.552   1.756   2.644  0.0333 -0.1923  0.1743
 6256TIP3    H140183   2.516   1.815   2.578  1.1517  0.1804 -0.1192
 6256TIP3    H240184   2.646   1.757   2.629  0.1431 -1.4872  0.6419
 6257TIP3   OH240185   2.707   0.755  13.612 -0.0477  0.0132  0.5059
 6257TIP3    H140186   2.718   0.682  13.551  1.8689  1.4466 -0.9980
 6257TIP3    H240187   2.617   0.785  13.596 -0.0389 -0.4968 -0.6514
 6258TIP3   OH240188   3.264   3.380   2.178  0.1871 -0.4440 -0.2002
 6258TIP3    H140189   3.310   3.394   2.261 -0.4354 -1.2898  0.3062
 6258TIP3    H240190   3.334   3.359   2.116  0.7134  0.7269 -0.0293
 6259TIP3   OH240191   1.043   1.310   4.604 -0.5840  0.4271  0.3433
 6259TIP3    H140192   1.003   1.260   4.675  0.4140  0.2881  0.8154
 6259TIP3    H240193   1.117   1.256   4.575 -0.2769  1.0283 -0.0086
 6260TIP3   OH240194   6.449   2.860  12.564 -0.3852  0.4730  0.0172
 6260TIP3    H140195   6.365   2.816  12.572 -0.0993 -0.1295 -0.2423
 6260TIP3    H240196   6.491   2.848  12.650 -0.2947  0.2161 -0.0636
 6261TIP3   OH240197   5.976   4.786   5.238  0.0009 -0.5819  0.2440
 6261TIP3    H140198   6.060   4.772   5.195 -0.7154  1.1230 -1.8601
 6261TIP3    H240199   5.946   4.871   5.206 -2.1952 -0.8032  1.4999
 6262TIP3   OH240200   3.712   2.026   4.510 -0.1186 -0.0857  0.3913
 6262TIP3    H140201   3.618   2.034   4.493  0.0564  0.9041 -0.1559
 6262TIP3    H240202   3.728   1.931   4.509 -1.3276 -0.3448  1.7846
 6263TIP3   OH240203   1.083   1.298   4.918  0.0957 -0.0956 -0.1281
 6263TIP3    H140204   1.040   1.247   4.986  2.2178 -0.7693  0.7925
 6263TIP3    H240205   1.013   1.349   4.878 -1.2228  0.3755  2.5916
 6264TIP3   OH240206   0.855   5.826  11.574 -0.4485  0.1901 -0.3019
 6264TIP3    H140207   0.932   5.777  11.602 -0.0020  0.4268 -1.0780
 6264TIP3    H240208   0.819   5.774  11.502 -0.4878  0.5483 -0.5395
 6265TIP3   OH240209   5.973   0.855   3.920  0.1635 -0.2173  0.9273
 6265TIP3    H140210   5.979   0.915   3.845 -1.7548 -2.3303 -1.1081
 6265TIP3    H240211   6.064   0.844   3.949  1.0543  0.4187 -1.3469
 6266TIP3   OH240212   3.572   5.540   3.632 -0.0801  0.7107 -0.7201
 6266TIP3    H140213   3.562   5.591   3.552  1.8087  1.4326 -0.5487
 6266TIP3    H240214   3.562   5.603   3.703  0.6595  0.5547 -0.4659
 6267TIP3   OH240215   5.117   5.925   2.999  0.0821 -0.4641 -0.3871
 6267TIP3    H140216   5.164   5.991   3.051  0.0582 -1.1977  0.5920
 6267TIP3    H240217   5.025   5.936   3.023 -0.0545 -0.1827 -1.0036
 6268TIP3   OH240218   1.514   0.113   3.847 -0.1795  0.2641 -0.0200
 6268TIP3    H140219   1.584   0.169   3.880  0.3576 -1.6350  2.3727
 6268TIP3    H240220   1.540   0.092   3.758  2.1065 -0.0234  0.6577
 6269TIP3   OH240221   1.845   0.122  13.492 -0.2887 -0.7449 -0.7851
 6269TIP3    H140222   1.845   0.119  13.396  0.7194  2.7726 -1.0567
 6269TIP3    H240223   1.752   0.128  13.515 -0.4909  0.5124 -1.7674
 6270TIP3   OH240224   4.679   2.708   5.611 -0.4214 -0.6884  0.1965
 6270TIP3    H140225   4.661   2.628   5.562  0.4256 -1.2485  0.7862
 6270TIP3    H240226   4.745   2.683   5.676  0.8915  0.7966 -0.4954
 6271TIP3   OH240227   0.120   4.464   2.178  0.2049 -0.1615  0.2324
 6271TIP3    H140228   0.054   4.533   2.189 -1.3662 -1.7144  1.1113
 6271TIP3    H240229   0.122   4.448   2.084 -3.0618 -2.1343  0.3177
 6272TIP3   OH240230   3.099   1.767  12.607 -0.3002  0.5578  0.4158
 6272TIP3    H140231   3.176   1.825  12.612  0.2356 -0.1663  0.6910
 6272TIP3    H240232   3.036   1.805  12.668 -0.3649  1.4512 -0.1916
 6273TIP3   OH240233   4.919   0.371  11.814  0.3786 -0.3062  0.4514
 6273TIP3    H140234   4.853   0.324  11.762 -0.7361  0.9082  0.7055
 6273TIP3    H240235   4.916   0.329  11.899  0.5017 -0.7682  0.2305
 6274TIP3   OH240236   6.784   2.123   0.818 -0.3974  0.5610 -0.4168
 6274TIP3    H140237   6.799   2.215   0.840 -1.7180  0.6855  0.0197
 6274TIP3    H240238   6.690   2.112   0.824 -0.4516 -0.3657 -2.2971
 6275TIP3   OH240239   0.596   4.525  11.645 -0.1447  0.2052 -0.1838
 6275TIP3    H140240   0.650   4.454  11.611 -0.8423 -0.3767 -0.0995
 6275TIP3    H240241   0.623   4.534  11.737  1.5144  1.5643 -0.7607
 6276TIP3   OH240242   3.687   0.944  12.941  0.4625  0.2596  0.0233
 6276TIP3    H140243   3.742   0.912  13.012  0.0550 -0.5825 -0.0324
 6276TIP3    H240244   3.612   0.885  12.939  0.8121 -0.1767 -1.5547
 6277TIP3   OH240245   4.435   0.095   2.640  0.1351  0.2331 -0.3762
 6277TIP3    H140246   4.341   0.095   2.622 -0.1053 -2.3406  0.4766
 6277TIP3    H240247   4.465   0.008   2.612  2.0617  0.5954  0.3811
 6278TIP3   OH240248   3.071   2.753   3.176  0.2017  0.3819 -0.1432
 6278TIP3    H140249   3.069   2.757   3.080 -1.7464 -0.2268 -0.1648
 6278TIP3    H240250   3.049   2.842   3.204  3.2842  1.2672 -0.1692
 6279TIP3   OH240251   4.339   1.331  14.669  0.3735  0.1901  0.4105
 6279TIP3    H140252   4.410   1.314  14.607 -0.8698  0.3731 -1.1095
 6279TIP3    H240253   4.330   1.426  14.670 -0.0156  0.1555  0.3983
 6280TIP3   OH240254   0.218   6.396   2.006 -0.7034 -0.0083  0.3235
 6280TIP3    H140255   0.299   6.397   2.057 -1.1795  1.1792  1.0923
 6280TIP3    H240256   0.152   6.432   2.065 -1.4427  0.6411 -0.8666
 6281TIP3   OH240257   1.123   0.279  14.634 -0.1917 -0.0356  0.1737
 6281TIP3    H140258   1.170   0.209  14.590  0.9391  0.6144  0.3078
 6281TIP3    H240259   1.150   0.273  14.726  1.0987  1.4611 -0.0634
 6282TIP3   OH240260   1.306   5.631  13.209  0.3142  0.3939  0.3747
 6282TIP3    H140261   1.391   5.601  13.176 -0.3829 -1.5456  0.2153
 6282TIP3    H240262   1.291   5.715  13.166  1.5981  0.1821 -0.5307
 6283TIP3   OH240263   2.826   6.356   0.874 -0.4576  0.3480  0.0722
 6283TIP3    H140264   2.769   6.368   0.798  0.6722  1.4186 -0.6377
 6283TIP3    H240265   2.878   6.436   0.878  1.1310 -0.6681  0.5803
 6284TIP3   OH240266   5.611   5.087   5.795  0.5390  0.1371  0.2312
 6284TIP3    H140267   5.664   5.024   5.747  0.4298  0.3517 -0.1789
 6284TIP3    H240268   5.546   5.035   5.841  0.1089 -0.0174 -0.5344
 6285TIP3   OH240269   5.509   0.737   3.694 -0.2941 -0.2610  0.6926
 6285TIP3    H140270   5.447   0.666   3.709  0.3381 -0.7761  0.9140
 6285TIP3    H240271   5.488   0.802   3.761 -0.9034 -0.2134  0.4637
 6286TIP3   OH240272   6.783   3.275   4.522 -0.0402  0.9272 -0.1532
 6286TIP3    H140273   6.870   3.303   4.551  0.2064  0.9777 -0.9322
 6286TIP3    H240274   6.800   3.198   4.469 -0.4589  1.0427 -0.4524
 6287TIP3   OH240275   2.973   6.153  15.793  0.1384  0.0157  0.6383
 6287TIP3    H140276   3.053   6.204  15.781 -0.0697  0.4314  1.0422
 6287TIP3    H240277   2.968   6.137  15.887 -0.7670  0.8225  0.7349
 6288TIP3   OH240278   6.076   3.793  13.887  0.0597  0.1282  0.0910
 6288TIP3    H140279   6.085   3.867  13.948  1.2570 -0.2314  0.3645
 6288TIP3    H240280   6.161   3.786  13.845 -0.1751 -0.8508 -0.2336
 6289TIP3   OH240281   5.534   4.801   1.353  0.1866 -0.5793  0.0050
 6289TIP3    H140282   5.522   4.761   1.439 -0.6736  0.1793  0.2664
 6289TIP3    H240283   5.449   4.842   1.334  1.1927  1.6971  0.0827
 6290TIP3   OH240284   0.168   1.761  16.857 -0.5487  0.5644  0.3571
 6290TIP3    H140285   0.166   1.700  16.931 -0.3460  0.5699  0.3690
 6290TIP3    H240286   0.085   1.746  16.811  0.4480 -1.3641 -0.9606
 6291TIP3   OH240287   5.744   5.051  17.193  0.6254  0.0836  0.7554
 6291TIP3    H140288   5.831   5.013  17.209  0.7142 -0.5190 -0.9203
 6291TIP3    H240289   5.721   5.020  17.105 -0.6884  1.3646  0.6196
 6292TIP3   OH240290   2.823   2.730  13.069  0.3585 -0.2300  0.6137
 6292TIP3    H140291   2.774   2.813  13.070 -0.3198 -0.5455 -1.2957
 6292TIP3    H240292   2.903   2.749  13.118 -0.1356  1.3279  0.8935
 6293TIP3   OH240293   2.452   4.243   3.864  0.4083 -0.1700 -0.2048
 6293TIP3    H140294   2.522   4.303   3.891  0.3857 -0.0861 -0.3313
 6293TIP3    H240295   2.405   4.222   3.944 -1.2056  2.0096 -0.4935
 6294TIP3   OH240296   6.090   2.522  13.130 -0.2349  0.0767  0.5739
 6294TIP3    H140297   6.168   2.472  13.106  0.1309 -0.4892  2.7139
 6294TIP3    H240298   6.038   2.526  13.050  0.9882 -1.4141 -0.3480
 6295TIP3   OH240299   4.498   2.837  12.409 -0.8108 -0.2860  0.3334
 6295TIP3    H140300   4.557   2.776  12.365  1.4128  1.6993  0.3780
 6295TIP3    H240301   4.417   2.832  12.358  0.1950 -1.3507 -1.2517
 6296TIP3   OH240302   0.071   5.011   5.865  0.3060  1.3289 -0.3633
 6296TIP3    H140303   0.029   5.021   5.950  0.7355 -2.0607  0.3818
 6296TIP3    H240304   0.003   4.975   5.808  0.3929  2.2860 -1.0944
 6297TIP3   OH240305   2.338   3.510  16.132  0.1353  0.2859 -0.1212
 6297TIP3    H140306   2.317   3.439  16.071  0.2307  0.1627 -0.0078
 6297TIP3    H240307   2.427   3.492  16.162  0.5387  0.9877 -0.8515
 6298TIP3   OH240308   1.615   3.350  16.964  0.7318 -0.1575 -0.2558
 6298TIP3    H140309   1.600   3.265  17.004  0.2678  0.7886  1.6767
 6298TIP3    H240310   1.543   3.405  16.995  0.9903  0.9516 -1.5059
 6299TIP3   OH240311   5.376   3.324   0.654 -0.0267 -0.3876  0.9178
 6299TIP3    H140312   5.389   3.236   0.689  1.1415 -0.6957 -0.1989
 6299TIP3    H240313   5.422   3.324   0.571 -0.2817  1.1924  0.7329
 6300TIP3   OH240314   4.986   3.370   3.231 -0.2607 -0.5950 -0.1231
 6300TIP3    H140315   4.944   3.347   3.313 -0.2509  1.3708  0.4747
 6300TIP3    H240316   4.927   3.337   3.163  0.3906 -3.4725  0.5663
 6301TIP3   OH240317   5.734   4.828  16.934 -0.2865 -0.0569 -0.4330
 6301TIP3    H140318   5.733   4.867  16.846 -2.4758  0.0639 -0.4061
 6301TIP3    H240319   5.658   4.866  16.978  0.0520 -1.0692  1.1035
 6302TIP3   OH240320   4.045   1.773   5.647 -0.0306 -0.8413  0.5678
 6302TIP3    H140321   3.969   1.786   5.704  1.3446 -1.4596  2.6683
 6302TIP3    H240322   4.121   1.790   5.704  1.4452  1.4109 -1.8669
 6303TIP3   OH240323   2.932   3.239  15.235  0.1630  0.3761 -0.2303
 6303TIP3    H140324   3.026   3.245  15.246  0.3696 -0.4007 -1.3509
 6303TIP3    H240325   2.920   3.184  15.157 -1.2096  0.4272 -0.0920
 6304TIP3   OH240326   4.102   5.516   2.304  0.3501 -0.3067 -0.6922
 6304TIP3    H140327   4.130   5.566   2.381 -0.5656  0.1287 -0.6321
 6304TIP3    H240328   4.045   5.449   2.340 -0.8211  0.4648 -1.0687
 6305TIP3   OH240329   0.530   5.475  11.883 -0.0232  0.3292  0.2231
 6305TIP3    H140330   0.621   5.468  11.855 -0.4698  0.5348 -1.3377
 6305TIP3    H240331   0.479   5.433  11.814 -1.1105  0.0420  1.1632
 6306TIP3   OH240332   2.492   1.480   6.172 -0.2719 -0.3960 -0.3186
 6306TIP3    H140333   2.423   1.542   6.149  2.1573  1.6000 -3.0029
 6306TIP3    H240334   2.535   1.519   6.248 -0.2933 -0.1297 -0.4431
 6307TIP3   OH240335   2.876   5.092  13.192  0.4054  0.3214  0.0139
 6307TIP3    H140336   2.823   5.023  13.231  0.5039 -0.4863 -1.2189
 6307TIP3    H240337   2.953   5.047  13.158  0.9826  1.2046  0.1078
 6308TIP3   OH240338   0.287   6.453  14.009 -0.2738 -0.3841  0.3457
 6308TIP3    H140339   0.285   6.542  14.045  1.5071 -0.1189 -0.1113
 6308TIP3    H240340   0.197   6.422  14.017 -1.4127  2.1699 -1.2166
 6309TIP3   OH240341   5.252   2.983   4.320  0.1473  0.1528 -0.6390
 6309TIP3    H140342   5.261   2.933   4.239 -0.3481 -0.1242 -0.5277
 6309TIP3    H240343   5.315   2.942   4.380  1.5149  1.2379 -1.2945
 6310TIP3   OH240344   2.043   0.634   5.437 -0.2463  0.0656 -0.0189
 6310TIP3    H140345   2.050   0.612   5.345 -1.8636  0.7562 -0.3436
 6310TIP3    H240346   2.066   0.554   5.484  2.1083  0.1168 -0.9327
 6311TIP3   OH240347   4.697   3.076   0.164  0.4251  0.5206 -0.1891
 6311TIP3    H140348   4.638   3.101   0.236  0.5417  1.6696 -0.4758
 6311TIP3    H240349   4.657   2.997   0.127 -0.1025  0.4065  0.5862
 6312TIP3   OH240350   2.375   2.870  16.609  0.1625  0.0087 -0.2710
 6312TIP3    H140351   2.394   2.952  16.654  3.1731  0.4474 -2.0548
 6312TIP3    H240352   2.338   2.896  16.525 -0.2116 -0.5265 -0.2759
 6313TIP3   OH240353   5.672   2.621   6.073  0.4825 -0.1083 -0.1950
 6313TIP3    H140354   5.584   2.656   6.059  0.5018  0.0526  0.0850
 6313TIP3    H240355   5.671   2.588   6.163  0.6083 -0.4030 -0.3015
 6314TIP3   OH240356   5.682   2.578  11.584  0.9953  0.6457  0.5925
 6314TIP3    H140357   5.763   2.599  11.630  1.1869  1.4411 -0.0846
 6314TIP3    H240358   5.622   2.649  11.607  1.1830  1.2050 -0.5823
 6315TIP3   OH240359   5.434   6.455   3.621 -0.5214  0.0297 -0.1529
 6315TIP3    H140360   5.474   6.477   3.537 -0.0228  0.7323  0.2646
 6315TIP3    H240361   5.420   6.539   3.664  0.9231 -0.3904  1.2308
 6316TIP3   OH240362   5.250   0.248   4.456  0.3457  0.1092  0.1709
 6316TIP3    H140363   5.328   0.202   4.425  0.9281  1.0093  0.2620
 6316TIP3    H240364   5.200   0.182   4.503  1.3214 -0.3582  0.5812
 6317TIP3   OH240365   2.617   1.185   5.353 -0.0207  0.2899 -0.5027
 6317TIP3    H140366   2.604   1.276   5.325 -1.9788  0.3272  0.3294
 6317TIP3    H240367   2.673   1.192   5.431 -1.7198  1.0311  0.7347
 6318TIP3   OH240368   6.175   3.197   1.988  0.0775  0.0261 -0.8930
 6318TIP3    H140369   6.177   3.292   2.003 -1.4919 -0.0638  0.1617
 6318TIP3    H240370   6.228   3.184   1.909  2.2661  1.4858  0.2261
 6319TIP3   OH240371   4.836   3.232   1.090 -0.0363 -0.0075  0.3779
 6319TIP3    H140372   4.874   3.304   1.140 -0.1119  0.3232 -0.0395
 6319TIP3    H240373   4.779   3.274   1.026  0.0509 -0.4263  0.0174
 6320TIP3   OH240374   0.703   1.061  14.722  0.3948  0.0096 -0.0124
 6320TIP3    H140375   0.762   1.117  14.772 -0.5182  1.5081 -0.5628
 6320TIP3    H240376   0.676   0.993  14.784  0.9374  0.5987  0.8954
 6321TIP3   OH240377   2.599   6.110  13.995  0.0464  0.4846 -0.2977
 6321TIP3    H140378   2.568   6.027  14.032 -0.5555  0.7978 -0.0957
 6321TIP3    H240379   2.599   6.171  14.068  2.6119  0.1359  0.0798
 6322TIP3   OH240380   2.193   3.637  17.193  0.4201 -0.2997 -0.4918
 6322TIP3    H140381   2.189   3.569  17.260  0.2647 -0.3642 -0.5646
 6322TIP3    H240382   2.269   3.614  17.139 -0.4426 -1.2224 -1.3697
 6323TIP3   OH240383   3.135   5.710   5.530 -0.3809  0.3972  0.5516
 6323TIP3    H140384   3.116   5.757   5.611 -1.2339  0.6407  0.2201
 6323TIP3    H240385   3.216   5.663   5.549  0.0457  1.3449  1.1622
 6324TIP3   OH240386   1.210   1.659  16.233 -0.5708  0.3694 -0.1161
 6324TIP3    H140387   1.121   1.677  16.265 -0.1367  0.1351  1.2966
 6324TIP3    H240388   1.212   1.564  16.223 -0.1691  0.2470  0.9274
 6325TIP3   OH240389   3.597   2.729  11.180  0.1460  0.1484 -0.4139
 6325TIP3    H140390   3.516   2.730  11.231  0.6638  1.5816  0.4265
 6325TIP3    H240391   3.643   2.809  11.205  2.0174 -0.8238 -0.5690
 6326TIP3   OH240392   4.380   5.407  12.417 -0.4213 -0.2007 -0.2261
 6326TIP3    H140393   4.357   5.500  12.406 -1.2946 -0.3584  0.1327
 6326TIP3    H240394   4.306   5.371  12.466  0.4471 -0.8490  0.6249
 6327TIP3   OH240395   4.539   1.360   3.924 -0.0593 -0.1570  0.2596
 6327TIP3    H140396   4.487   1.342   4.003  1.1599 -0.8416  0.9473
 6327TIP3    H240397   4.555   1.455   3.927 -1.6895  0.1569 -0.2584
 6328TIP3   OH240398   5.092   3.979   1.557 -0.1861 -0.0378 -0.6246
 6328TIP3    H140399   5.169   3.925   1.541 -0.6153 -0.6793 -0.5493
 6328TIP3    H240400   5.125   4.053   1.608  0.4562 -0.0732 -0.9782
 6329TIP3   OH240401   1.437   6.587   0.456  0.7033  0.1002  0.5540
 6329TIP3    H140402   1.353   6.628   0.437  1.5376  1.4814 -0.3264
 6329TIP3    H240403   1.466   6.626   0.538  1.1981  0.8170  0.0484
 6330TIP3   OH240404   2.242   2.415   1.485 -0.1988  0.0513 -0.1544
 6330TIP3    H140405   2.303   2.422   1.558 -0.4856  0.0021  0.0937
 6330TIP3    H240406   2.297   2.400   1.408  0.1388  0.7285 -0.0440
 6331TIP3   OH240407   4.047   0.419   2.404 -0.8621  0.3139  0.0208
 6331TIP3    H140408   4.039   0.388   2.313  1.7768  0.1481 -0.2261
 6331TIP3    H240409   4.116   0.485   2.400  0.6275 -1.0036  2.1629
 6332TIP3   OH240410   2.470   0.025  13.029  0.5012 -0.1051 -0.0499
 6332TIP3    H140411   2.524   0.103  13.018  0.7874 -0.2820  0.0903
 6332TIP3    H240412   2.485  -0.026  12.949  1.3240 -0.6258  0.4212
 6333TIP3   OH240413   3.349   5.756  15.588 -0.5585  0.0654  0.3282
 6333TIP3    H140414   3.320   5.752  15.497 -0.7823 -0.2594  0.4104
 6333TIP3    H240415   3.294   5.822  15.628 -1.9725 -1.3029  0.7470
 6334TIP3   OH240416   4.782   1.896  15.945  0.0786  0.6167  0.6589
 6334TIP3    H140417   4.760   1.936  16.029  1.6022  0.1565  1.3206
 6334TIP3    H240418   4.717   1.929  15.884 -1.6402  0.2253  2.2111
 6335TIP3   OH240419   1.380   2.292  15.652  0.1242  0.2169 -0.5779
 6335TIP3    H140420   1.358   2.242  15.573  1.6030 -0.4245 -0.6160
 6335TIP3    H240421   1.356   2.382  15.631 -2.3363 -0.3749 -0.6245
 6336TIP3   OH240422   3.274   4.465   0.533 -0.4569  0.5509 -0.1531
 6336TIP3    H140423   3.297   4.392   0.590  0.7067  0.7404 -0.3589
 6336TIP3    H240424   3.267   4.427   0.446 -2.7582  0.1591  0.1264
 6337TIP3   OH240425   3.284   5.087   5.638  0.2172 -0.3479  0.5146
 6337TIP3    H140426   3.321   5.009   5.679 -0.6004 -1.4056 -0.6910
 6337TIP3    H240427   3.329   5.095   5.554 -0.4869 -0.1931  0.1373
 6338TIP3   OH240428   1.676   6.194  14.468 -0.0573  0.7410 -0.1955
 6338TIP3    H140429   1.708   6.208  14.378  1.8683  0.3275  0.3800
 6338TIP3    H240430   1.584   6.171  14.457  0.1881  0.4851 -2.0850
 6339TIP3   OH240431   3.659   1.885   2.504 -0.1884 -0.1415  0.2623
 6339TIP3    H140432   3.588   1.895   2.567 -0.8705  0.3558 -0.5614
 6339TIP3    H240433   3.668   1.972   2.465  0.6108 -0.3013  0.0824
 6340TIP3   OH240434   2.659   3.764  16.420  0.0125 -0.7048 -0.0940
 6340TIP3    H140435   2.662   3.673  16.389  1.8672 -0.7639  0.1551
 6340TIP3    H240436   2.672   3.758  16.514 -1.4036 -0.2484  0.1542
 6341TIP3   OH240437   5.677   2.160   4.193  0.1386  0.6245 -0.7534
 6341TIP3    H140438   5.710   2.096   4.129 -0.8791  0.9831 -1.6544
 6341TIP3    H240439   5.590   2.128   4.216 -0.3381  1.6179 -1.1243
 6342TIP3   OH240440   6.223   3.248  13.240 -0.2211  0.2318 -0.5717
 6342TIP3    H140441   6.256   3.163  13.213  0.9197  0.8898 -1.3747
 6342TIP3    H240442   6.184   3.234  13.326  0.4016 -0.9884 -0.4791
 6343TIP3   OH240443   1.157   1.963  12.711  0.0419 -0.2261 -1.0206
 6343TIP3    H140444   1.235   2.011  12.682 -0.8275  0.5782 -2.1148
 6343TIP3    H240445   1.088   2.029  12.713 -0.6573 -0.9654 -0.2365
 6344TIP3   OH240446   3.207   6.294  11.803  0.2547 -0.4322  0.5122
 6344TIP3    H140447   3.244   6.267  11.887 -0.7994 -0.4799  0.9825
 6344TIP3    H240448   3.116   6.317  11.824 -0.2729 -1.2728 -0.7696
 6345TIP3   OH240449   3.076   6.287  15.131 -0.9282  0.5299 -0.0365
 6345TIP3    H140450   2.985   6.299  15.106 -1.3757 -0.2648  1.1128
 6345TIP3    H240451   3.086   6.192  15.139  0.6105  0.4416 -2.2425
 6346TIP3   OH240452   1.225   4.583   3.331  0.0507 -0.2890 -0.2836
 6346TIP3    H140453   1.240   4.575   3.237 -1.8746 -1.0146 -0.5825
 6346TIP3    H240454   1.246   4.674   3.351  1.1626 -0.3080 -1.2700
 6347TIP3   OH240455   6.098   2.360   5.613 -0.6723  0.6621  0.3242
 6347TIP3    H140456   6.098   2.361   5.709  0.8688  0.4030  0.3460
 6347TIP3    H240457   6.075   2.450   5.589  1.1717  1.3528  0.9796
 6348TIP3   OH240458   2.341   1.535   5.718 -0.2274 -0.2783 -0.6056
 6348TIP3    H140459   2.374   1.619   5.688  0.6655 -1.1514 -2.1881
 6348TIP3    H240460   2.290   1.556   5.797 -0.5821  1.8063 -1.3210
 6349TIP3   OH240461   3.049   2.197  16.433 -0.3064 -0.0135  0.4298
 6349TIP3    H140462   2.968   2.240  16.405 -0.3583  0.2448  0.9669
 6349TIP3    H240463   3.095   2.178  16.352 -0.8669 -0.0829  0.1191
 6350TIP3   OH240464   4.595   3.389  14.613  0.4451  0.2511  0.6791
 6350TIP3    H140465   4.531   3.452  14.645 -0.0334  0.2737 -0.2763
 6350TIP3    H240466   4.670   3.441  14.587 -0.1028  0.4943 -0.4849
 6351TIP3   OH240467   3.323   1.218  12.122  0.7981 -0.3804  0.1360
 6351TIP3    H140468   3.323   1.166  12.203 -0.6077 -0.3162  0.2023
 6351TIP3    H240469   3.367   1.299  12.146 -1.9022  0.7777  1.6544
 6352TIP3   OH240470   2.170   1.769   3.897 -0.0166 -0.3570  0.2897
 6352TIP3    H140471   2.215   1.828   3.956  0.0906 -0.7465  0.6010
 6352TIP3    H240472   2.105   1.824   3.853  1.1247  0.3320 -0.5743
 6353TIP3   OH240473   1.919   6.508   6.124  0.2021 -0.5953 -0.5552
 6353TIP3    H140474   1.841   6.452   6.121  1.0011 -1.6836 -2.2961
 6353TIP3    H240475   1.982   6.465   6.067  1.6835  0.8917 -0.1179
 6354TIP3   OH240476   6.250   2.128  16.834 -0.3387 -0.0703  0.6310
 6354TIP3    H140477   6.178   2.155  16.890 -1.4587 -0.7079 -0.4497
 6354TIP3    H240478   6.261   2.201  16.773 -0.7207 -0.3690  0.1971
 6355TIP3   OH240479   4.170   3.556   5.276  0.2090  0.6208  0.1382
 6355TIP3    H140480   4.093   3.541   5.331  0.9019 -1.8008  0.5380
 6355TIP3    H240481   4.162   3.493   5.204  0.9075  1.6124 -0.8548
 6356TIP3   OH240482   5.202   1.106  14.025 -0.9207 -0.0466 -0.1585
 6356TIP3    H140483   5.181   1.175  13.963 -0.0506  0.2461 -0.1342
 6356TIP3    H240484   5.171   1.140  14.109 -0.9638  0.0878 -0.2289
 6357TIP3   OH240485   5.997   4.318  13.326  0.5037 -0.5296  0.0567
 6357TIP3    H140486   6.000   4.364  13.410 -1.1216  0.8926 -0.6063
 6357TIP3    H240487   6.028   4.383  13.262  0.3564 -1.1237 -0.6350
 6358TIP3   OH240488   1.973   6.137   4.339  0.1145  0.2782  0.1088
 6358TIP3    H140489   1.934   6.069   4.394 -1.0107  0.3495 -0.5545
 6358TIP3    H240490   1.912   6.211   4.345 -0.4416  0.0395 -1.7658
 6359TIP3   OH240491   4.546   4.903  15.235  0.0868 -0.3045 -0.1041
 6359TIP3    H140492   4.564   4.838  15.167 -0.8085 -0.3977 -0.2573
 6359TIP3    H240493   4.479   4.960  15.198  1.4832  1.2797 -0.3151
 6360TIP3   OH240494   0.631   0.653   3.983  0.1169  0.2273 -0.3010
 6360TIP3    H140495   0.653   0.577   4.037  0.4921  0.8418  0.4237
 6360TIP3    H240496   0.543   0.678   4.013 -0.2643 -0.2838 -0.9680
 6361TIP3   OH240497   2.432   3.483   2.382  0.5660 -1.2258  0.1009
 6361TIP3    H140498   2.418   3.452   2.293 -0.5859 -1.1133  0.2296
 6361TIP3    H240499   2.413   3.407   2.438  2.6471 -1.7150  0.2228
 6362TIP3   OH240500   6.162   0.774   5.306  0.3252 -0.1643 -0.0453
 6362TIP3    H140501   6.087   0.763   5.365  0.4572 -2.4132 -0.2263
 6362TIP3    H240502   6.157   0.699   5.247  3.4970 -1.1850  0.7941
 6363TIP3   OH240503   1.240   4.710  16.553 -0.0261  0.4270 -0.2315
 6363TIP3    H140504   1.151   4.726  16.519  0.3651  1.7977 -0.6940
 6363TIP3    H240505   1.229   4.708  16.648 -0.4034  1.8240 -0.2235
 6364TIP3   OH240506   3.012   5.925   5.236  0.5688 -0.4027 -0.0748
 6364TIP3    H140507   3.089   5.933   5.181  1.9239 -2.3738  1.4023
 6364TIP3    H240508   3.046   5.909   5.324 -1.4052  4.3201  1.9420
 6365TIP3   OH240509   1.772   5.387   0.815  0.0442  0.1299 -0.0501
 6365TIP3    H140510   1.859   5.381   0.777 -0.0702 -1.4395 -0.1543
 6365TIP3    H240511   1.714   5.398   0.740 -0.0546 -1.5528 -0.2663
 6366TIP3   OH240512   5.055   6.424   1.785 -0.1412 -0.9567 -0.9832
 6366TIP3    H140513   5.084   6.372   1.859 -1.6316 -1.1634 -0.5023
 6366TIP3    H240514   4.981   6.374   1.748  0.0551 -0.4546 -2.1019
 6367TIP3   OH240515   4.937   2.219  14.648 -0.2426 -0.4154  0.0243
 6367TIP3    H140516   4.916   2.301  14.693  1.9000  0.7974 -1.0932
 6367TIP3    H240517   4.970   2.162  14.717 -1.9852 -0.5106  0.8554
 6368TIP3   OH240518   3.573   5.527  13.617 -0.3143  0.3482  0.1103
 6368TIP3    H140519   3.604   5.616  13.599 -0.4602  0.1309 -1.2748
 6368TIP3    H240520   3.568   5.485  13.532  0.0348 -1.1036  0.7815
 6369TIP3   OH240521   3.204   4.615   6.522  0.6629  0.3454 -0.6095
 6369TIP3    H140522   3.169   4.648   6.605 -2.2870  1.4457 -2.1549
 6369TIP3    H240523   3.217   4.522   6.537 -0.0466  0.4766  1.0090
 6370TIP3   OH240524   4.397   5.440  11.304 -0.1319  0.5304  0.4262
 6370TIP3    H140525   4.368   5.361  11.258 -0.2860  0.6618  0.2992
 6370TIP3    H240526   4.329   5.455  11.370 -0.0745  0.5265  0.4863
 6371TIP3   OH240527   5.339   2.111  14.940 -0.3097  0.0469  0.6792
 6371TIP3    H140528   5.323   2.037  14.998  0.3213 -0.8050 -0.2093
 6371TIP3    H240529   5.434   2.120  14.939 -0.3738  0.7850  0.6581
 6372TIP3   OH240530   5.557   0.014   1.969  0.3760  0.5651 -0.0643
 6372TIP3    H140531   5.486   0.054   2.020  1.5327  0.5936  1.5772
 6372TIP3    H240532   5.593   0.087   1.918 -0.9950  0.4697 -1.2679
 6373TIP3   OH240533   2.508   4.537  14.503  0.4796  0.2339 -0.0282
 6373TIP3    H140534   2.581   4.514  14.561  1.1323  0.3366 -0.8056
 6373TIP3    H240535   2.506   4.633  14.505  1.3276  0.2922 -1.1683
 6374TIP3   OH240536   3.842   6.627  14.999 -0.5483 -0.5142 -0.0197
 6374TIP3    H140537   3.852   6.721  15.016 -1.0743 -0.2249 -1.2007
 6374TIP3    H240538   3.762   6.621  14.946 -0.2003 -1.5641 -0.4454
 6375TIP3   OH240539   3.449   1.767  11.131 -0.4794  0.2408  0.1521
 6375TIP3    H140540   3.422   1.679  11.157  0.5097  0.1603  0.9955
 6375TIP3    H240541   3.437   1.769  11.036  0.1447 -1.0562  0.0208
 6376TIP3   OH240542   6.182   5.454   4.133 -0.3490 -0.1594 -0.4176
 6376TIP3    H140543   6.089   5.432   4.137 -0.5478  0.8201  0.7337
 6376TIP3    H240544   6.213   5.442   4.223  0.3804  0.5769 -0.5636
 6377TIP3   OH240545   5.958   2.554  11.235  0.5679  0.3252  0.1703
 6377TIP3    H140546   5.936   2.484  11.295  1.8589 -3.3111 -3.1277
 6377TIP3    H240547   6.054   2.553  11.232  0.7079  3.2971  1.0145
 6378TIP3   OH240548   5.155   5.388   5.146  0.1810 -0.0192  0.0886
 6378TIP3    H140549   5.207   5.323   5.194  2.4757  1.9611  0.4788
 6378TIP3    H240550   5.212   5.415   5.073 -1.0442  0.9779 -0.5364
 6379TIP3   OH240551   1.365   5.208  12.038  0.1472 -0.5520 -0.1818
 6379TIP3    H140552   1.387   5.122  12.074  0.1782 -0.4518  0.0402
 6379TIP3    H240553   1.296   5.241  12.095 -0.3662 -0.7324 -0.6958
 6380TIP3   OH240554   3.137   2.570  16.993 -0.6566 -0.4017 -0.1521
 6380TIP3    H140555   3.207   2.567  16.928  1.8145 -2.2954  2.3676
 6380TIP3    H240556   3.116   2.478  17.010 -1.8587  0.0742  1.1125
 6381TIP3   OH240557   5.428   6.328   1.961 -0.0693 -0.1977  0.3707
 6381TIP3    H140558   5.403   6.414   1.926 -1.8855 -0.8123  0.0238
 6381TIP3    H240559   5.483   6.348   2.037  0.0130  1.2553 -0.0360
 6382TIP3   OH240560   2.068   2.792  12.014  0.0414 -0.1945 -0.3777
 6382TIP3    H140561   2.008   2.861  11.985  0.4589 -0.2539 -1.4596
 6382TIP3    H240562   2.114   2.830  12.089 -0.2779  0.4185 -0.4839
 6383TIP3   OH240563   1.536   2.168   0.785  0.5614  0.0701 -0.1680
 6383TIP3    H140564   1.564   2.087   0.829  2.0268 -0.5084 -2.0187
 6383TIP3    H240565   1.613   2.225   0.789 -0.3114  1.2199  0.7000
 6384TIP3   OH240566   1.937   6.692   3.697  0.2596 -0.2017 -0.1455
 6384TIP3    H140567   1.984   6.629   3.752 -0.3932  0.4105  1.1459
 6384TIP3    H240568   1.893   6.750   3.758  1.9711  2.4321 -1.2257
 6385TIP3   OH240569   3.565   6.593  12.913  0.3952  0.2280  0.8995
 6385TIP3    H140570   3.581   6.499  12.924 -2.8491 -0.7975 -1.8034
 6385TIP3    H240571   3.558   6.606  12.819 -2.2030  2.5927  1.2987
 6386TIP3   OH240572   4.757   0.238   2.013  0.3221  0.0960  0.3072
 6386TIP3    H140573   4.839   0.278   1.982  0.2722 -0.2366 -0.2603
 6386TIP3    H240574   4.783   0.189   2.091  0.4484  0.9408  0.8171
 6387TIP3   OH240575   3.836   2.206  16.301 -0.0733 -0.0246  0.4440
 6387TIP3    H140576   3.790   2.290  16.301 -0.8970 -0.4636  0.3418
 6387TIP3    H240577   3.851   2.187  16.394 -0.6214 -0.1493  0.5113
 6388TIP3   OH240578   3.358   1.997   1.852 -0.0298 -0.4720 -0.5582
 6388TIP3    H140579   3.335   1.955   1.935 -0.0688  1.1798  0.3026
 6388TIP3    H240580   3.308   1.949   1.786 -2.6684  0.2962  0.7614
 6389TIP3   OH240581   6.777   3.335   2.031  0.0713 -0.0668  0.0957
 6389TIP3    H140582   6.842   3.265   2.042  0.2810 -0.0894 -1.2098
 6389TIP3    H240583   6.774   3.378   2.116  0.8421 -0.8875  0.5550
 6390TIP3   OH240584   6.029   6.219  17.186 -0.6805  0.6345  0.0247
 6390TIP3    H140585   5.996   6.221  17.276 -0.3604  1.0183  0.1371
 6390TIP3    H240586   6.033   6.126  17.164  2.0531  0.3001  1.4767
 6391TIP3   OH240587   2.127   4.145  15.974 -0.7201  0.3240 -0.1645
 6391TIP3    H140588   2.184   4.072  15.949  0.1166  0.9871 -0.2510
 6391TIP3    H240589   2.059   4.105  16.028 -0.1979 -0.5015 -0.0953
 6392TIP3   OH240590   5.312   3.106  13.219  0.1453  0.0427 -0.2072
 6392TIP3    H140591   5.251   3.033  13.224 -0.5664  0.6650  0.4889
 6392TIP3    H240592   5.396   3.069  13.247 -0.7722  0.0738  3.0881
 6393TIP3   OH240593   2.796   5.812   4.454 -0.3180 -0.3503  0.6119
 6393TIP3    H140594   2.764   5.877   4.516  1.0735 -1.2749  2.3844
 6393TIP3    H240595   2.889   5.832   4.443 -0.7030  0.4184 -2.0516
 6394TIP3   OH240596   6.338   2.120   5.736 -0.3133  0.5370  0.0539
 6394TIP3    H140597   6.356   2.198   5.683 -0.4400  0.1734 -0.5256
 6394TIP3    H240598   6.256   2.086   5.701 -2.0559  1.9841  2.4369
 6395TIP3   OH240599   1.263   5.648  10.823  0.4496 -0.2183 -0.4321
 6395TIP3    H140600   1.262   5.565  10.776  0.4582 -0.6393  0.2949
 6395TIP3    H240601   1.354   5.658  10.851  0.5366  0.2421 -0.8637
 6396TIP3   OH240602   5.233   0.592  16.123  0.3849  0.0826 -0.0814
 6396TIP3    H140603   5.329   0.587  16.116  0.5142  0.1334  1.3861
 6396TIP3    H240604   5.206   0.503  16.145  0.3416  0.5277  1.8114
 6397TIP3   OH240605   2.449   2.319   1.313  0.6118  0.2739  0.1267
 6397TIP3    H140606   2.490   2.265   1.381 -1.1569  0.5016  1.4462
 6397TIP3    H240607   2.405   2.256   1.256 -1.5269  0.2136  1.7166
 6398TIP3   OH240608   0.086   0.846   5.908  0.0166 -0.0859  0.0151
 6398TIP3    H140609   0.106   0.857   5.815  2.4740 -0.4877  0.4277
 6398TIP3    H240610   0.073   0.935   5.941 -0.0735  0.1165 -0.5621
 6399TIP3   OH240611   4.658   4.617  14.771 -0.0096  0.5539  0.6410
 6399TIP3    H140612   4.570   4.580  14.784 -0.1469  0.2826 -0.9010
 6399TIP3    H240613   4.714   4.541  14.758  0.4292  0.7375  1.4163
 6400TIP3   OH240614   4.865   4.364   5.183 -0.4207 -0.4908  0.2338
 6400TIP3    H140615   4.784   4.371   5.233 -0.8223  0.1476 -0.4779
 6400TIP3    H240616   4.865   4.442   5.127 -0.5325 -1.7116 -1.5504
 6401TIP3   OH240617   2.407   5.630  12.756  0.3104  0.5350  0.3062
 6401TIP3    H140618   2.327   5.676  12.730  1.9733  3.0209 -0.7830
 6401TIP3    H240619   2.432   5.669  12.840 -0.0404 -0.8582  1.0895
 6402TIP3   OH240620   5.701   5.117  11.278  0.0052  0.1934  0.1114
 6402TIP3    H140621   5.790   5.095  11.251 -0.1260 -0.2443  0.0237
 6402TIP3    H240622   5.712   5.164  11.360  0.2552 -1.1167  0.8713
 6403TIP3   OH240623   6.048   0.190   2.047  0.3771  0.3025  0.1264
 6403TIP3    H140624   6.070   0.167   1.956  0.6175 -0.2393  0.3183
 6403TIP3    H240625   6.046   0.106   2.093  1.8612  0.7141  0.9817
 6404TIP3   OH240626   3.677   5.044  14.499  0.6369  0.2504 -0.8430
 6404TIP3    H140627   3.651   4.959  14.534  1.1368  0.4446  0.0319
 6404TIP3    H240628   3.703   5.027  14.409 -3.7423  0.2245 -2.3674
 6405TIP3   OH240629   3.643   0.400  15.254  0.2415  0.0212 -0.3895
 6405TIP3    H140630   3.655   0.306  15.240  1.7155 -0.0455  1.0168
 6405TIP3    H240631   3.551   0.416  15.234 -0.1822 -1.8336 -0.0625
 6406TIP3   OH240632   0.667   6.317  11.991 -0.0485 -0.1390  0.7172
 6406TIP3    H140633   0.686   6.224  11.978  1.3502 -0.0902  2.1072
 6406TIP3    H240634   0.733   6.362  11.940 -1.3972  0.1612 -0.8636
 6407TIP3   OH240635   6.652   2.601   5.471  0.4556 -0.3359 -0.0292
 6407TIP3    H140636   6.711   2.667   5.509  2.8077 -1.0157 -2.2199
 6407TIP3    H240637   6.673   2.521   5.518 -1.1387  0.0342  1.4105
 6408TIP3   OH240638   0.798   4.201   1.967 -0.2645  0.6211  0.3266
 6408TIP3    H140639   0.754   4.285   1.978 -0.2386  0.8039 -0.8224
 6408TIP3    H240640   0.728   4.139   1.945 -0.0159  0.8814 -1.3492
 6409TIP3   OH240641   4.637   1.009  12.962  0.3572 -0.4815  0.3001
 6409TIP3    H140642   4.598   0.944  12.904 -0.8417  0.6252 -0.1601
 6409TIP3    H240643   4.592   0.997  13.045 -1.4215  1.1526 -0.3787
 6410TIP3   OH240644   0.060   2.123   0.189  0.0304  0.4635  0.0874
 6410TIP3    H140645  -0.031   2.150   0.179  0.6109  1.8678 -2.2183
 6410TIP3    H240646   0.106   2.204   0.210  0.8835 -0.0354  0.1841
 6411TIP3   OH240647   5.332   0.025  14.649  0.0619  0.5174  0.3676
 6411TIP3    H140648   5.288   0.092  14.597  0.3618  0.5969  0.2176
 6411TIP3    H240649   5.268   0.001  14.717 -1.8581 -2.2034 -2.1504
 6412TIP3   OH240650   6.158   1.063   4.719 -0.4692 -0.0814  0.5304
 6412TIP3    H140651   6.185   1.152   4.699  0.8160 -0.5292  0.2013
 6412TIP3    H240652   6.120   1.031   4.637 -1.0409  0.1877  0.6824
 6413TIP3   OH240653   3.255   4.162  15.886 -0.2623  0.2665  0.2509
 6413TIP3    H140654   3.280   4.254  15.880  1.4343 -0.2124 -0.5415
 6413TIP3    H240655   3.159   4.164  15.883 -0.2588  1.9831 -0.0343
 6414TIP3   OH240656   1.846   3.861   0.009  0.0890  0.0611 -0.1952
 6414TIP3    H140657   1.787   3.933   0.032 -1.1894 -0.7982 -0.7048
 6414TIP3    H240658   1.791   3.798  -0.037  1.0278 -1.5608  0.8039
 6415TIP3   OH240659   0.111   4.605  14.053  0.1828 -0.5690  0.6036
 6415TIP3    H140660   0.130   4.587  14.145 -0.5450  1.0729  1.1292
 6415TIP3    H240661   0.018   4.586  14.043  0.0758  0.0239  0.4252
 6416TIP3   OH240662   6.517   1.652   1.707 -0.2821  0.4188  0.1127
 6416TIP3    H140663   6.522   1.574   1.762  1.1793  0.8662  0.6570
 6416TIP3    H240664   6.451   1.707   1.750 -1.4728 -0.5788 -0.3890
 6417TIP3   OH240665   5.840   4.414  16.197 -0.1538 -0.1802 -0.4933
 6417TIP3    H140666   5.766   4.461  16.158  0.5516  0.3791 -1.1972
 6417TIP3    H240667   5.907   4.482  16.210 -0.0056 -0.5368  0.7955
 6418TIP3   OH240668   0.949   0.273  11.889  0.3486  0.4536  0.1254
 6418TIP3    H140669   1.013   0.311  11.949  0.2398  0.1607  0.4295
 6418TIP3    H240670   0.971   0.310  11.803  1.2959 -0.0904  0.1192
 6419TIP3   OH240671   0.098   5.620   5.293  0.1223 -0.3158 -0.3018
 6419TIP3    H140672   0.152   5.698   5.284  1.9712 -1.6474 -1.2719
 6419TIP3    H240673   0.156   5.554   5.332 -2.0595 -0.5991  2.8786
 6420TIP3   OH240674   2.095   5.196   4.719 -0.1239 -0.1824  0.0675
 6420TIP3    H140675   2.089   5.132   4.649 -0.7423 -1.0342  0.8733
 6420TIP3    H240676   2.178   5.241   4.704  0.5170 -1.4419 -0.2829
 6421TIP3   OH240677   0.895   3.594  12.275 -0.4008  0.1514 -0.8875
 6421TIP3    H140678   0.845   3.655  12.329  0.8980 -0.6258  1.2864
 6421TIP3    H240679   0.872   3.508  12.308  1.6419 -0.2650 -0.4400
 6422TIP3   OH240680   1.446   3.861  13.444  0.6128  0.2703 -0.2033
 6422TIP3    H140681   1.370   3.863  13.503  0.3030  0.0656 -0.5915
 6422TIP3    H240682   1.521   3.864  13.502  0.3098  0.0540  0.2074
 6423TIP3   OH240683   0.711   3.037  16.789 -0.0972  0.0027  0.2918
 6423TIP3    H140684   0.782   3.045  16.852 -1.1590 -0.6427  1.6418
 6423TIP3    H240685   0.716   3.116  16.736 -0.1975  1.4364  2.3122
 6424TIP3   OH240686   2.379   0.484  13.272  0.0746  0.3010 -0.2207
 6424TIP3    H140687   2.389   0.405  13.325  1.3223  0.9534  0.5560
 6424TIP3    H240688   2.464   0.495  13.229 -0.0987  1.2017 -0.3565
 6425TIP3   OH240689   2.423   1.936  14.019 -0.5597 -0.0886  0.6694
 6425TIP3    H140690   2.331   1.964  14.014 -0.6002  0.2021  2.4144
 6425TIP3    H240691   2.425   1.875  14.093  0.6311 -0.2106  0.5485
 6426TIP3   OH240692   5.945   5.716  12.319  0.1936  0.1276 -0.0588
 6426TIP3    H140693   5.851   5.700  12.310 -0.2182  2.7141 -1.3406
 6426TIP3    H240694   5.952   5.780  12.390  0.5728  2.3155 -1.9359
 6427TIP3   OH240695   4.703   1.934   0.679 -0.0432 -0.5063 -0.0920
 6427TIP3    H140696   4.754   2.013   0.664  2.5822 -1.7247  1.6367
 6427TIP3    H240697   4.767   1.863   0.675 -1.8544 -2.2954  0.8396
 6428TIP3   OH240698   5.289   4.612  12.290 -0.7043 -0.1883 -0.2491
 6428TIP3    H140699   5.328   4.581  12.209  0.1387 -0.2938  0.1880
 6428TIP3    H240700   5.356   4.598  12.357 -1.6024 -0.7058  0.5875
 6429TIP3   OH240701   6.312   3.513  13.242 -0.3066  0.7259  0.5017
 6429TIP3    H140702   6.292   3.420  13.251 -0.2603  0.6774  0.1298
 6429TIP3    H240703   6.246   3.558  13.295 -1.6686  0.5945 -1.0148
 6430TIP3   OH240704   3.289   5.494  12.682 -0.3616 -0.2189  0.0069
 6430TIP3    H140705   3.323   5.553  12.615  2.0491 -0.0542  1.2746
 6430TIP3    H240706   3.255   5.552  12.751  0.5470 -0.2948  0.5377
 6431TIP3   OH240707   5.205   5.240  14.014  0.0856  0.2360 -0.0497
 6431TIP3    H140708   5.247   5.154  14.010 -0.3727 -0.0031  0.2276
 6431TIP3    H240709   5.111   5.221  14.022 -0.0705  0.7634 -0.5396
 6432TIP3   OH240710   3.918   4.214   0.923  0.0412 -0.0295 -0.2563
 6432TIP3    H140711   3.838   4.191   0.970  0.9613 -2.2087  0.4232
 6432TIP3    H240712   3.912   4.308   0.909 -1.8762  0.1312  1.1875
 6433TIP3   OH240713   4.108   3.672  16.808  0.5320 -0.0670 -0.2683
 6433TIP3    H140714   4.110   3.602  16.874 -2.1040  1.4465  1.5666
 6433TIP3    H240715   4.026   3.657  16.760  0.4401  1.1912 -0.5203
 6434TIP3   OH240716   2.983   5.673   3.175  0.1933  0.0124 -0.4611
 6434TIP3    H140717   2.975   5.763   3.207 -0.8011  1.7382 -4.8138
 6434TIP3    H240718   3.076   5.661   3.159  0.3669  0.1125  0.4299
 6435TIP3   OH240719   5.734   4.227   2.667 -0.0617 -0.4073  0.3098
 6435TIP3    H140720   5.736   4.146   2.616  0.1823 -1.7768  2.3566
 6435TIP3    H240721   5.658   4.275   2.633 -1.1971 -2.2522  0.1069
 6436TIP3   OH240722   0.704   1.465  16.118 -0.9427  0.0656  0.0094
 6436TIP3    H140723   0.617   1.503  16.123 -2.0155 -2.3571  1.4870
 6436TIP3    H240724   0.732   1.456  16.209 -0.0452 -1.0945 -0.3534
 6437TIP3   OH240725   5.852   2.455  16.741 -0.0003  0.2695 -0.2424
 6437TIP3    H140726   5.848   2.505  16.822 -0.1173 -0.3029  0.1165
 6437TIP3    H240727   5.816   2.369  16.765 -1.3267  0.5230 -1.2347
 6438TIP3   OH240728   3.346   6.487  15.827  0.3794  0.2297  0.6276
 6438TIP3    H140729   3.280   6.504  15.759  0.2150  0.4118  0.8319
 6438TIP3    H240730   3.331   6.555  15.892  0.7134  0.2160  0.7177
 6439TIP3   OH240731   3.389   1.842   1.409  0.4167 -0.1510  0.3636
 6439TIP3    H140732   3.390   1.843   1.314  0.1543  1.5331  0.3458
 6439TIP3    H240733   3.412   1.931   1.435  1.9680 -0.9268  1.9175
 6440TIP3   OH240734   6.216   4.433   5.121 -0.8782 -0.0610  0.1372
 6440TIP3    H140735   6.272   4.423   5.044  0.5959  0.7751  1.0573
 6440TIP3    H240736   6.242   4.362   5.179 -0.3095  0.7161  0.8399
 6441TIP3   OH240737   0.362   3.895   3.428  0.4436  0.2825  0.4330
 6441TIP3    H140738   0.385   3.805   3.452  0.3814  0.0874 -0.2185
 6441TIP3    H240739   0.278   3.910   3.472  0.6753  0.1828  0.9151
 6442TIP3   OH240740   2.101   1.426  13.778  0.4980 -0.3060  0.6758
 6442TIP3    H140741   2.056   1.488  13.836  1.5868 -0.2589  1.4947
 6442TIP3    H240742   2.078   1.340  13.813  0.0374 -0.3234  0.3322
 6443TIP3   OH240743   4.049   0.892  10.183  0.9208  0.1191 -0.4088
 6443TIP3    H140744   4.104   0.922  10.111 -2.7060 -1.5396 -4.3228
 6443TIP3    H240745   4.054   0.797  10.180 -1.2220 -0.0569 -0.2616
 6444TIP3   OH240746   2.626   3.935  13.639 -0.7233 -0.1085 -0.5611
 6444TIP3    H140747   2.554   3.900  13.691 -1.2778 -0.0500 -1.2704
 6444TIP3    H240748   2.585   3.964  13.558 -0.0443  0.8360 -0.5809
 6445TIP3   OH240749   0.786   4.376  11.573  0.0802 -0.7151 -0.5431
 6445TIP3    H140750   0.873   4.336  11.574 -0.5995 -2.2843 -0.9141
 6445TIP3    H240751   0.795   4.450  11.513  1.1883 -0.7400 -0.4437
 6446TIP3   OH240752   6.215   5.891  14.138  0.4464 -0.1391  0.4964
 6446TIP3    H140753   6.160   5.835  14.193  0.8592 -0.8488  0.1933
 6446TIP3    H240754   6.169   5.894  14.054  1.1448 -1.1912  0.0658
 6447TIP3   OH240755   0.476   1.464   2.725 -0.0945  0.3096 -0.0664
 6447TIP3    H140756   0.451   1.413   2.648 -0.2322  0.3321 -0.0367
 6447TIP3    H240757   0.526   1.402   2.780 -0.5080  0.1220  0.1050
 6448TIP3   OH240758   0.418   1.503  13.975 -0.5447  0.5255 -0.3184
 6448TIP3    H140759   0.377   1.552  14.046  1.7311  0.2577  1.2885
 6448TIP3    H240760   0.430   1.415  14.010  1.6444  0.6827 -0.5373
 6449TIP3   OH240761   5.129   1.766  15.077 -0.2878 -0.7550  0.4053
 6449TIP3    H140762   5.179   1.837  15.116  1.6314 -1.8016 -0.0123
 6449TIP3    H240763   5.194   1.697  15.061 -1.6771 -1.7632 -1.2118
 6450TIP3   OH240764   2.462   3.545  12.419 -0.5631 -0.1965  0.1124
 6450TIP3    H140765   2.436   3.474  12.478  0.3756 -0.8038 -0.1902
 6450TIP3    H240766   2.388   3.607  12.422 -2.0350 -1.8369 -0.6929
 6451TIP3   OH240767   1.260   2.220  13.440 -0.2893 -1.0944  0.3376
 6451TIP3    H140768   1.339   2.189  13.484 -0.4459 -2.3519 -0.2235
 6451TIP3    H240769   1.291   2.259  13.359 -0.0722  0.5015  1.1394
 6452TIP3   OH240770   4.959   3.701  12.622 -0.0850 -0.1124 -0.0097
 6452TIP3    H140771   4.986   3.612  12.600  0.9041  0.3016 -0.5144
 6452TIP3    H240772   4.966   3.704  12.718  1.0044 -0.2415 -0.0666
 6453TIP3   OH240773   2.672   6.754   0.914  0.5993  0.0723  0.2349
 6453TIP3    H140774   2.702   6.808   0.987 -0.8620  0.4118  0.6104
 6453TIP3    H240775   2.619   6.686   0.955 -2.7138  1.9305 -0.6245
 6454TIP3   OH240776   2.654   1.964   2.902 -0.1574 -0.0886  0.4153
 6454TIP3    H140777   2.695   1.908   2.968  2.2218  1.2584  0.1983
 6454TIP3    H240778   2.707   1.950   2.823 -0.4754  1.2984 -0.0684
 6455TIP3   OH240779   1.542   5.156   2.871 -0.1201 -0.1105 -0.2524
 6455TIP3    H140780   1.502   5.212   2.939 -1.5439 -0.9116 -0.3793
 6455TIP3    H240781   1.615   5.113   2.915  0.6253  1.3625  0.0154
 6456TIP3   OH240782   0.672   3.870  14.169  0.0176 -0.5343 -0.0508
 6456TIP3    H140783   0.599   3.919  14.208  1.4849  0.5719  1.4259
 6456TIP3    H240784   0.680   3.905  14.081 -2.1610 -1.7411 -0.8030
 6457TIP3   OH240785   5.605   5.287   4.410  0.1096  0.2932 -0.2562
 6457TIP3    H140786   5.565   5.213   4.365 -0.7123  1.3098 -1.2407
 6457TIP3    H240787   5.583   5.273   4.502 -0.7202 -0.2691 -0.5255
 6458TIP3   OH240788   0.790   5.697  10.957  0.1234 -0.0649  0.4310
 6458TIP3    H140789   0.862   5.706  11.019  0.1790 -2.1951  0.7528
 6458TIP3    H240790   0.822   5.635  10.892 -1.1998 -0.5903  0.2468
 6459TIP3   OH240791   4.824   1.973  15.562  0.2856  0.5823  0.5407
 6459TIP3    H140792   4.835   1.970  15.467 -1.4619  1.2271  0.2848
 6459TIP3    H240793   4.729   1.982  15.575  0.3567 -0.7665  2.3802
 6460TIP3   OH240794   4.847   4.214   4.950  0.6768 -0.2166  0.7457
 6460TIP3    H140795   4.761   4.227   4.911  1.0929 -0.6038 -0.3484
 6460TIP3    H240796   4.840   4.253   5.037 -0.5051  0.0247  0.5633
 6461TIP3   OH240797   2.244   3.763  12.813  0.4038 -0.0878 -0.4881
 6461TIP3    H140798   2.328   3.794  12.848  1.4967 -2.6689 -0.6029
 6461TIP3    H240799   2.179   3.796  12.874  1.4750  1.9798 -0.3911
 6462TIP3   OH240800   4.828   4.572  16.183  0.1989 -0.1901  0.8052
 6462TIP3    H140801   4.741   4.607  16.169  0.3505 -0.0567  0.1876
 6462TIP3    H240802   4.876   4.642  16.228  0.6020  0.5471 -0.7250
 6463TIP3   OH240803   0.234   0.626  14.749  0.1562 -0.5700  0.1835
 6463TIP3    H140804   0.199   0.644  14.661  1.1924  0.7266  0.0072
 6463TIP3    H240805   0.328   0.638  14.740  0.2496 -0.1377  1.5595
 6464TIP3   OH240806   2.448   1.425  11.736 -0.5470 -0.1017 -0.6165
 6464TIP3    H140807   2.482   1.368  11.804  0.3077  1.2383  0.1268
 6464TIP3    H240808   2.437   1.368  11.660  0.8256 -1.1227 -0.0839
 6465TIP3   OH240809   4.423   2.250   1.958  0.2076 -0.4529  0.5488
 6465TIP3    H140810   4.476   2.292   1.890  0.2476 -0.5922  0.4932
 6465TIP3    H240811   4.463   2.277   2.041 -1.0644  1.4117  0.6188
 6466TIP3   OH240812   3.793   4.188  16.073  0.4561 -0.0362 -0.0340
 6466TIP3    H140813   3.839   4.220  16.151  0.3553 -0.9709  0.4300
 6466TIP3    H240814   3.728   4.255  16.053 -0.1331 -0.1955  1.2443
 6467TIP3   OH240815   3.365   3.933  10.883  0.3616  0.6552 -0.5165
 6467TIP3    H140816   3.374   3.879  10.804 -0.0191 -0.3202  0.0981
 6467TIP3    H240817   3.449   3.923  10.929 -0.3734 -0.9644  0.5438
 6468TIP3   OH240818   5.437   2.819   1.242 -0.3729  0.2589  0.0688
 6468TIP3    H140819   5.513   2.865   1.208 -0.4292  0.7976  0.6575
 6468TIP3    H240820   5.363   2.874   1.219 -0.6264 -0.4329 -0.8031
 6469TIP3   OH240821   4.863   1.329  11.109  0.0589 -0.4389  0.1904
 6469TIP3    H140822   4.910   1.340  11.191 -1.7327 -1.0978  1.3753
 6469TIP3    H240823   4.924   1.283  11.052  1.1465 -0.4632  1.3417
 6470TIP3   OH240824   4.814   0.397   3.800 -0.3565 -0.0589  0.6921
 6470TIP3    H140825   4.862   0.316   3.816  0.3879  0.5618  1.6803
 6470TIP3    H240826   4.762   0.410   3.879 -1.2349 -0.0703  0.1339
 6471TIP3   OH240827   5.719   6.282   0.404 -0.3013  0.2575 -0.2973
 6471TIP3    H140828   5.697   6.290   0.311  0.1338 -1.6756 -0.6067
 6471TIP3    H240829   5.800   6.332   0.414 -1.2208  1.8588 -0.5754
 6472TIP3   OH240830   5.864   5.531   3.770  0.0999  0.0435 -0.0819
 6472TIP3    H140831   5.934   5.568   3.824 -0.1716  1.5031 -0.6645
 6472TIP3    H240832   5.793   5.595   3.776 -1.2785 -1.4746  0.6166
 6473TIP3   OH240833   5.280   6.090  11.287  0.5233  0.7339 -0.0753
 6473TIP3    H140834   5.358   6.139  11.261  1.0788 -0.2692 -0.3533
 6473TIP3    H240835   5.300   6.059  11.375  0.1199  1.1064  0.1510
 6474TIP3   OH240836   4.810   4.606  14.489  0.2345  0.4207 -0.2455
 6474TIP3    H140837   4.722   4.593  14.453 -0.4417  1.0803  1.0875
 6474TIP3    H240838   4.868   4.599  14.414 -0.9967  0.3917 -1.2246
 6475TIP3   OH240839   2.945   2.775   3.787  0.0840 -0.3961 -0.2200
 6475TIP3    H140840   2.933   2.699   3.732  1.6267 -2.0802  1.6272
 6475TIP3    H240841   2.940   2.850   3.727  0.4155 -2.0287 -2.3830
 6476TIP3   OH240842   3.955   6.521   3.418  0.1713 -0.5440  0.1739
 6476TIP3    H140843   4.050   6.519   3.411  0.1596 -0.5389 -0.0094
 6476TIP3    H240844   3.931   6.612   3.400  0.0413 -0.8139 -1.1991
 6477TIP3   OH240845   6.032   0.232  15.363  0.1502 -0.0918 -0.2019
 6477TIP3    H140846   5.968   0.198  15.425  0.6435 -0.3860  0.1456
 6477TIP3    H240847   6.094   0.161  15.351 -0.2873 -0.2851 -1.5333
 6478TIP3   OH240848   2.606   3.205  12.479  0.0606 -0.0896 -0.0708
 6478TIP3    H140849   2.648   3.285  12.446 -0.3990 -0.3467 -1.3125
 6478TIP3    H240850   2.523   3.236  12.516 -1.5742 -0.2746 -3.2949
 6479TIP3   OH240851   4.297   3.249  12.244 -0.3627 -0.5036 -0.2810
 6479TIP3    H140852   4.291   3.183  12.312  0.3616 -2.8308 -2.3132
 6479TIP3    H240853   4.207   3.278  12.230 -0.4596  0.5277  2.0142
 6480TIP3   OH240854   5.902   2.756   6.043 -0.2312 -0.3142  0.5242
 6480TIP3    H140855   5.816   2.727   6.074  0.0877 -0.7302  1.0152
 6480TIP3    H240856   5.964   2.698   6.085  0.2206 -0.8740 -0.8513
 6481TIP3   OH240857   1.207   1.195  13.979 -0.5117 -0.3798  0.4115
 6481TIP3    H140858   1.211   1.250  14.057 -0.2961  0.5551 -0.2481
 6481TIP3    H240859   1.297   1.192  13.946 -0.5101 -1.1816  0.4748
 6482TIP3   OH240860   4.495   4.877   1.901 -0.2056  0.1214 -0.0484
 6482TIP3    H140861   4.412   4.924   1.895 -1.0866 -0.9781  2.2169
 6482TIP3    H240862   4.470   4.786   1.919  1.4438 -0.0495  1.7443
 6483TIP3   OH240863   6.772   5.764   1.937  0.3444  0.1268 -0.0599
 6483TIP3    H140864   6.744   5.842   1.984  2.2802  0.4119  0.7021
 6483TIP3    H240865   6.838   5.724   1.994  1.2296 -0.6642 -1.5762
 6484TIP3   OH240866   2.823   3.963   4.121  0.0150 -0.2880 -0.3604
 6484TIP3    H140867   2.768   4.041   4.127  0.5410  0.0399  0.5289
 6484TIP3    H240868   2.907   3.991   4.158  0.1828 -1.2984  0.0569
 6485TIP3   OH240869   3.185   1.329   4.262  0.2180  0.2468  0.6456
 6485TIP3    H140870   3.093   1.353   4.247  0.2788 -0.6638 -1.7037
 6485TIP3    H240871   3.184   1.279   4.343 -1.4513 -0.0921  0.4675
 6486TIP3   OH240872   1.341   4.608   3.083  0.3404 -0.3700 -0.3119
 6486TIP3    H140873   1.289   4.615   3.004  0.7535  0.9234 -0.4893
 6486TIP3    H240874   1.401   4.682   3.079  2.2244 -1.8089 -0.1299
 6487TIP3   OH240875   0.532   2.814  15.666  0.2544  0.6771 -0.3194
 6487TIP3    H140876   0.568   2.727  15.684  1.0617  0.9294 -0.6561
 6487TIP3    H240877   0.549   2.863  15.747  1.4575  1.0373 -0.7690
 6488TIP3   OH240878   4.574   1.819  14.915  0.4219 -0.3606  0.2311
 6488TIP3    H140879   4.605   1.730  14.935 -0.3670 -0.5617  0.5918
 6488TIP3    H240880   4.615   1.840  14.830  2.5476 -0.1153  1.2398
 6489TIP3   OH240881   3.584   6.005  14.762 -0.5813 -0.3491 -0.1576
 6489TIP3    H140882   3.596   6.091  14.722 -1.9205  0.0615  0.2992
 6489TIP3    H240883   3.609   5.943  14.693  0.4262  0.3875 -0.4748
 6490TIP3   OH240884   2.475   0.321  17.012 -0.0219 -0.6850  0.0276
 6490TIP3    H140885   2.440   0.390  17.069  0.2289  0.6010 -1.3231
 6490TIP3    H240886   2.539   0.366  16.957 -0.4378 -1.8201 -1.4509
 6491TIP3   OH240887   3.661   2.177  15.757  0.4636  0.2632  0.4503
 6491TIP3    H140888   3.620   2.091  15.756  2.1276 -0.6046  1.2264
 6491TIP3    H240889   3.732   2.168  15.821  1.8177  1.6619 -0.7823
 6492TIP3   OH240890   4.034   2.504  13.524  0.2910  0.2805  0.1012
 6492TIP3    H140891   3.976   2.429  13.533  0.9582 -0.1182  1.1564
 6492TIP3    H240892   4.047   2.513  13.429 -1.0559  0.0558 -0.1216
 6493TIP3   OH240893   2.938   0.469  17.089  0.3127 -0.1334  0.0610
 6493TIP3    H140894   2.924   0.501  17.178 -2.0856 -0.6782 -0.0684
 6493TIP3    H240895   2.889   0.530  17.033  2.7424  0.9330 -1.1151
 6494TIP3   OH240896   1.437   2.280   2.174 -0.3183  0.1705 -0.6348
 6494TIP3    H140897   1.523   2.312   2.149 -0.9875  1.8491 -0.9333
 6494TIP3    H240898   1.417   2.326   2.256 -1.4365  0.7595 -1.2155
 6495TIP3   OH240899   5.196   5.884  16.871 -0.1045 -0.5125 -0.0147
 6495TIP3    H140900   5.166   5.951  16.931 -0.5105 -0.5266 -0.1972
 6495TIP3    H240901   5.291   5.884  16.880 -0.0399  0.5783 -0.5313
 6496TIP3   OH240902   4.571   0.317  14.555  0.1813 -0.5835  0.4902
 6496TIP3    H140903   4.596   0.406  14.580  0.9870 -0.5172 -0.4849
 6496TIP3    H240904   4.628   0.261  14.609  0.8900 -0.4690 -0.1270
 6497TIP3   OH240905   6.741   1.657  14.210  0.7693  0.0651 -0.1668
 6497TIP3    H140906   6.679   1.632  14.142 -1.0980 -1.1460  1.8552
 6497TIP3    H240907   6.762   1.575  14.255  0.1172  1.0931  2.1441
 6498TIP3   OH240908   6.581   0.966  12.595 -0.9104  0.0946 -0.0867
 6498TIP3    H140909   6.497   0.986  12.554 -2.2475 -0.9821  1.9938
 6498TIP3    H240910   6.631   0.922  12.526 -2.6732 -0.7140 -0.9161
 6499TIP3   OH240911   3.377   3.064  15.470 -0.5312  0.7816 -0.0483
 6499TIP3    H140912   3.335   3.114  15.540 -1.0076  0.6157 -0.2111
 6499TIP3    H240913   3.421   3.130  15.416  0.1507  0.8770  0.6109
 6500TIP3   OH240914   6.572   0.120   1.294 -0.7236 -0.2859  0.4008
 6500TIP3    H140915   6.602   0.050   1.236 -1.0205 -1.8952  2.1073
 6500TIP3    H240916   6.613   0.102   1.378 -3.0875 -0.1325  1.6765
 6501TIP3   OH240917   3.852   0.568   2.570 -0.2667 -0.1075  0.2668
 6501TIP3    H140918   3.931   0.529   2.531  0.2645  0.2702  0.9543
 6501TIP3    H240919   3.832   0.512   2.645 -0.6112 -0.1589  0.1380
 6502TIP3   OH240920   1.349   6.584  13.919  0.5624 -0.7769  0.4468
 6502TIP3    H140921   1.309   6.667  13.894 -0.3898 -1.8537 -1.9870
 6502TIP3    H240922   1.398   6.604  13.998 -2.4719  1.3011  2.0418
 6503TIP3   OH240923   2.819   3.059  12.827 -0.2779  0.0577 -0.0933
 6503TIP3    H140924   2.862   3.023  12.750 -1.2349  1.3725 -1.2966
 6503TIP3    H240925   2.752   2.995  12.850  2.4612 -2.2860  2.1318
 6504TIP3   OH240926   2.891   2.691   2.202 -0.2287  0.3777  0.5986
 6504TIP3    H140927   2.857   2.697   2.291 -0.7646  1.5507  0.3365
 6504TIP3    H240928   2.840   2.755   2.152 -0.5984 -0.9110 -0.7743
 6505TIP3   OH240929   6.553   6.689   3.976 -0.4980 -0.0841  0.7431
 6505TIP3    H140930   6.644   6.680   3.947 -0.3397 -1.9556  1.6492
 6505TIP3    H240931   6.505   6.624   3.924 -1.3054  0.7680  0.3970
 6506TIP3   OH240932   4.083   4.965  15.888 -0.1519  0.1052 -0.9692
 6506TIP3    H140933   4.137   4.886  15.885 -1.1540 -0.5628 -2.4070
 6506TIP3    H240934   4.009   4.946  15.831 -2.7545  0.3644  2.0145
 6507TIP3   OH240935   3.688   4.432  16.687 -0.2732 -0.2340 -0.0037
 6507TIP3    H140936   3.767   4.432  16.741 -1.0100 -0.0043  1.1228
 6507TIP3    H240937   3.674   4.340  16.664  1.9916 -0.0205 -2.8497
 6508TIP3   OH240938   2.630   4.174   4.203 -0.4442  0.8250  0.0841
 6508TIP3    H140939   2.587   4.137   4.126 -2.3014  1.4594  0.7781
 6508TIP3    H240940   2.613   4.110   4.273  0.6712  0.5749  0.1563
 6509TIP3   OH240941   5.348   3.768  15.656  0.0970  0.0602 -0.0340
 6509TIP3    H140942   5.288   3.740  15.586  1.1523  0.7341 -1.2660
 6509TIP3    H240943   5.386   3.687  15.689 -1.7702 -0.4279  1.0857
 6510TIP3   OH240944   3.815   2.537  12.084  0.1243 -0.1483 -0.1835
 6510TIP3    H140945   3.724   2.553  12.107  0.5550  0.6378  1.1295
 6510TIP3    H240946   3.864   2.568  12.161  1.4271 -1.5344 -0.4126
 6511TIP3   OH240947   3.777   3.516  13.565 -0.4279 -0.0598  0.0242
 6511TIP3    H140948   3.698   3.550  13.607 -0.2387  2.4538 -1.4405
 6511TIP3    H240949   3.757   3.424  13.547 -1.7750 -0.3184  2.4568
 6512TIP3   OH240950   3.686   4.947   1.063  0.4930  0.3174  0.0834
 6512TIP3    H140951   3.661   4.921   0.974  0.2229  1.5877 -0.2440
 6512TIP3    H240952   3.692   4.865   1.112 -2.3658 -0.2549 -0.3256
 6513TIP3   OH240953   1.359   2.833  12.728 -0.1119  0.6038 -0.5390
 6513TIP3    H140954   1.423   2.773  12.690  0.7568  0.7889  0.5801
 6513TIP3    H240955   1.280   2.780  12.738 -0.3445  0.5146 -2.4302
 6514TIP3   OH240956   1.768   1.100  12.518  0.3288  0.0984 -0.1165
 6514TIP3    H140957   1.796   1.078  12.606 -0.9771 -3.2222 -0.3822
 6514TIP3    H240958   1.831   1.056  12.460  0.4890  1.2461 -0.8520
 6515TIP3   OH240959   4.200   5.421  11.498 -0.8124 -0.1927 -0.2691
 6515TIP3    H140960   4.129   5.425  11.433 -0.1917  1.9139 -0.8852
 6515TIP3    H240961   4.156   5.398  11.579 -2.1490  0.5756 -0.7422
 6516TIP3   OH240962   6.026   2.278   4.339  0.6385  0.0794  0.1782
 6516TIP3    H140963   6.005   2.308   4.251 -1.2538  0.4171  0.6824
 6516TIP3    H240964   6.092   2.210   4.327 -0.1389 -0.4207 -1.5655
 6517TIP3   OH240965   6.209   3.567  15.139  0.0103  0.6939  0.9620
 6517TIP3    H140966   6.218   3.662  15.134 -0.8018  0.7523  0.3821
 6517TIP3    H240967   6.294   3.534  15.109  0.5110  1.2261  1.7406
 6518TIP3   OH240968   1.403   4.594   3.662  0.5966 -0.0205 -0.2688
 6518TIP3    H140969   1.445   4.524   3.612  0.8502 -0.5026  0.5969
 6518TIP3    H240970   1.310   4.578   3.652  0.6411  0.1967 -1.0193
 6519TIP3   OH240971   4.917   1.875   1.113 -0.0730 -0.4390  0.4659
 6519TIP3    H140972   4.888   1.864   1.203 -2.0605  0.2112 -0.0564
 6519TIP3    H240973   4.852   1.827   1.061 -0.3696  1.2364 -0.7679
 6520TIP3   OH240974   1.002   1.655  10.760  0.4167  0.3860  0.2809
 6520TIP3    H140975   1.079   1.674  10.706 -0.6187  2.7742 -0.4711
 6520TIP3    H240976   0.940   1.725  10.739 -2.1142 -1.6051  0.6401
 6521TIP3   OH240977   0.124   5.820  13.065  0.2090  0.6982  0.4465
 6521TIP3    H140978   0.031   5.831  13.081  0.5984  1.4235  2.4054
 6521TIP3    H240979   0.142   5.729  13.089  0.0449  0.5892  0.1675
 6522TIP3   OH240980   2.546   2.187   2.545 -0.4936 -0.5650  0.0187
 6522TIP3    H140981   2.507   2.114   2.497 -0.0388 -0.4607 -0.5219
 6522TIP3    H240982   2.479   2.255   2.545 -0.9853 -1.0380  0.6747
 6523TIP3   OH240983   5.520   2.123   2.186  0.1825 -0.4811  0.1104
 6523TIP3    H140984   5.589   2.128   2.252 -0.2272  0.3519  0.5006
 6523TIP3    H240985   5.496   2.215   2.169 -0.6553 -0.7423 -0.1896
 6524TIP3   OH240986   5.995   1.200  14.428  0.1556  0.5888 -0.1309
 6524TIP3    H140987   6.053   1.255  14.481 -0.0938 -0.9652  1.8333
 6524TIP3    H240988   5.907   1.233  14.446 -0.0124 -0.5263  1.2086
 6525TIP3   OH240989   6.063   3.729  11.257  0.6686 -0.2714 -0.4192
 6525TIP3    H140990   6.072   3.802  11.196 -0.5991 -0.9686 -1.4921
 6525TIP3    H240991   6.153   3.706  11.280  1.1677  0.2596 -1.7335
 6526TIP3   OH240992   1.337   4.341  11.768 -0.2135 -0.4423  0.4107
 6526TIP3    H140993   1.391   4.390  11.705  0.7830 -1.3157  0.5623
 6526TIP3    H240994   1.307   4.265  11.719  0.2830 -0.9500  0.8846
 6527TIP3   OH240995   0.566   5.021  12.663 -0.1703  0.4646  0.6183
 6527TIP3    H140996   0.489   5.070  12.634 -1.2137 -1.8170 -0.6924
 6527TIP3    H240997   0.539   4.979  12.744 -1.6196 -2.9861 -1.4568
 6528TIP3   OH240998   3.609   1.116  15.800 -0.0409  0.6281 -0.6353
 6528TIP3    H140999   3.692   1.072  15.812 -0.2978  0.2835 -0.0756
 6528TIP3    H241000   3.573   1.124  15.889 -1.5030 -1.0038 -1.0228
 6529TIP3   OH241001   2.589   3.647   1.729  0.3653  0.2455 -0.0715
 6529TIP3    H141002   2.531   3.592   1.783  0.4334  0.6946  0.4732
 6529TIP3    H241003   2.531   3.687   1.665  0.0246  0.8512  0.6004
 6530TIP3   OH241004   0.678   4.148  12.542 -0.0215  0.7575 -0.0624
 6530TIP3    H141005   0.741   4.172  12.474 -0.4774  0.8251 -0.4558
 6530TIP3    H241006   0.611   4.217  12.539  0.9405  1.8770  1.7523
 6531TIP3   OH241007   1.809   6.763   1.985  0.2528 -0.4864  0.1999
 6531TIP3    H141008   1.726   6.777   2.029  0.4190  0.0269  0.3487
 6531TIP3    H241009   1.875   6.779   2.051  0.4686 -1.4590  0.2402
 6532TIP3   OH241010   0.822   4.038   0.153  0.1296 -0.3529  0.2268
 6532TIP3    H141011   0.888   4.107   0.145  0.0102  0.0546  2.2860
 6532TIP3    H241012   0.818   3.999   0.065 -0.7730  3.1004 -1.4477
 6533TIP3   OH241013   5.390   0.193   1.821  0.1181  0.1275 -0.1316
 6533TIP3    H141014   5.321   0.217   1.883  0.6348  1.5257 -0.0564
 6533TIP3    H241015   5.360   0.111   1.781 -0.4846 -0.5345  1.5678
 6534TIP3   OH241016   6.062   6.441   2.186  0.6008  0.0570  0.2370
 6534TIP3    H141017   6.132   6.386   2.221  1.3688  0.4928 -0.5588
 6534TIP3    H241018   5.990   6.381   2.169 -0.1289 -0.0769  3.2315
 6535TIP3   OH241019   3.938   6.023  12.543  0.1166  0.8002  0.3927
 6535TIP3    H141020   3.866   6.028  12.480  0.4990  1.4487 -0.0023
 6535TIP3    H241021   3.975   5.936  12.531  1.2673  1.4820 -1.5264
 6536TIP3   OH241022   5.469   6.158   3.340 -0.0798  0.6696  0.1015
 6536TIP3    H141023   5.558   6.126   3.351 -0.0618  1.1408  1.5423
 6536TIP3    H241024   5.478   6.246   3.304 -0.0184  0.3335 -0.7332
 6537TIP3   OH241025   6.497   2.938  12.849 -0.1357  0.0771 -0.2976
 6537TIP3    H141026   6.485   3.031  12.830 -0.4623 -0.5006 -3.3862
 6537TIP3    H241027   6.567   2.936  12.914  1.0592  2.3955 -1.4025
 6538TIP3   OH241028   3.122   3.467   1.614  0.1686 -0.0635  0.2629
 6538TIP3    H141029   3.125   3.503   1.703  1.5201  0.6117 -0.0268
 6538TIP3    H241030   3.042   3.413   1.613 -2.8822  3.9646  0.3235
 6539TIP3   OH241031   1.462   1.846  13.260  0.6634  0.3379  0.4656
 6539TIP3    H141032   1.520   1.919  13.283 -0.3544  0.9055  1.3064
 6539TIP3    H241033   1.380   1.865  13.306  0.0635 -0.8506 -0.0745
 6540TIP3   OH241034   4.085   0.813  13.845 -0.9284  0.5223  0.9242
 6540TIP3    H141035   4.137   0.814  13.926  0.8622 -1.6446 -0.1094
 6540TIP3    H241036   4.045   0.726  13.843  0.2139 -0.0187 -1.1690
 6541TIP3   OH241037   5.280   6.639   1.153 -0.0180 -0.2436 -0.4875
 6541TIP3    H141038   5.262   6.723   1.111 -2.3162 -1.1032 -1.4218
 6541TIP3    H241039   5.264   6.655   1.246 -2.4188 -0.0378 -0.8682
 6542TIP3   OH241040   6.149   2.568  11.517 -0.5522  0.2389 -0.0073
 6542TIP3    H141041   6.144   2.592  11.609 -1.5113  0.9781 -0.2408
 6542TIP3    H241042   6.134   2.649  11.469  2.7024  0.4633 -0.8826
 6543TIP3   OH241043   4.727   5.031  14.768 -0.5013  0.1309  0.2520
 6543TIP3    H141044   4.729   5.008  14.861  0.2937  0.1984  0.2645
 6543TIP3    H241045   4.754   5.123  14.766 -1.1903  0.3310  0.0039
 6544TIP3   OH241046   1.878   6.133   1.681  0.0717  1.1293 -0.5920
 6544TIP3    H141047   1.852   6.041   1.680  0.6838  0.9271  0.6355
 6544TIP3    H241048   1.925   6.144   1.764 -0.6528  2.7260 -0.3602
 6545TIP3   OH241049   5.858   3.812   4.703  0.1378  0.2354  0.0539
 6545TIP3    H141050   5.832   3.821   4.795  0.1433 -1.1276  0.2093
 6545TIP3    H241051   5.884   3.900   4.677 -0.0377  0.6800  1.3076
 6546TIP3   OH241052   6.789   5.096   1.963 -0.5777 -0.2021  0.6343
 6546TIP3    H141053   6.827   5.152   2.031  0.5294 -1.2404  0.8962
 6546TIP3    H241054   6.835   5.121   1.883 -1.2967  0.4377  0.4057
 6547TIP3   OH241055   0.836   0.432   4.357 -0.4261  0.3072 -0.2933
 6547TIP3    H141056   0.875   0.519   4.343 -1.8546  0.9876 -0.1902
 6547TIP3    H241057   0.851   0.414   4.449  0.9241 -0.1106 -0.5704
 6548TIP3   OH241058   4.673   3.827   2.011 -0.3785  0.6410  0.4863
 6548TIP3    H141059   4.748   3.852   2.065 -0.3555  0.7190  0.4192
 6548TIP3    H241060   4.622   3.907   2.002  0.2258  0.9286 -0.5735
 6549TIP3   OH241061   3.013   6.065  10.578 -0.3919  0.0705 -0.0338
 6549TIP3    H141062   2.973   6.142  10.620 -0.9078 -0.2228  0.0187
 6549TIP3    H241063   3.051   6.099  10.497  2.2399  1.0231  1.4648
 6550TIP3   OH241064   1.999   4.162   2.169 -0.1738 -0.0098  0.0634
 6550TIP3    H141065   1.987   4.247   2.127 -1.9480  0.2380  0.9457
 6550TIP3    H241066   1.978   4.098   2.101 -1.4312  0.3439  0.0946
 6551TIP3   OH241067   4.998   1.985  12.398  0.4248 -0.1244  0.2118
 6551TIP3    H141068   4.973   2.044  12.327  0.1717 -0.3282  0.1299
 6551TIP3    H241069   5.017   1.902  12.355 -1.2255 -0.7098  0.5077
 6552TIP3   OH241070   3.028   4.366   3.044  0.7064 -0.3302  0.2518
 6552TIP3    H141071   2.991   4.278   3.035 -1.9764  0.7989 -0.8982
 6552TIP3    H241072   2.977   4.406   3.114 -1.9754  1.9776 -2.7448
 6553TIP3   OH241073   2.363   4.982  15.875 -0.3001 -0.1064  0.2056
 6553TIP3    H141074   2.307   4.950  15.946 -1.9141 -0.6132 -1.2300
 6553TIP3    H241075   2.321   5.063  15.847  0.2047 -0.0213 -0.3060
 6554TIP3   OH241076   3.903   3.970   4.117  0.4357 -0.5566  0.2806
 6554TIP3    H141077   3.914   4.041   4.180  0.7134 -0.7583  0.4595
 6554TIP3    H241078   3.851   3.904   4.162 -1.5413  0.3617 -0.5378
 6555TIP3   OH241079   3.832   1.272  16.183 -0.4449  0.1226 -0.2808
 6555TIP3    H141080   3.810   1.182  16.209  2.1221 -1.7650 -3.6845
 6555TIP3    H241081   3.912   1.292  16.232 -0.6005  0.2423 -0.0745
 6556TIP3   OH241082   0.058   5.375   5.100  0.2469  0.1957  0.2538
 6556TIP3    H141083   0.129   5.416   5.151  0.7578 -1.2977  0.7992
 6556TIP3    H241084   0.049   5.288   5.138  0.1003 -0.6935 -1.7053
 6557TIP3   OH241085   4.247   2.452   0.161  0.7279  0.5481 -0.7416
 6557TIP3    H141086   4.271   2.491   0.245  0.5359 -1.8725  0.5417
 6557TIP3    H241087   4.155   2.474   0.149  0.9382  1.4901 -0.6847
 6558TIP3   OH241088   5.845   2.925  14.070 -0.0722 -0.3490  0.4518
 6558TIP3    H141089   5.890   2.840  14.073  0.8412  0.1454  1.2462
 6558TIP3    H241090   5.798   2.924  13.987  0.2117 -1.4911  0.2825
 6559TIP3   OH241091   6.703   4.440  12.699  0.0378  0.6524 -0.5841
 6559TIP3    H141092   6.649   4.373  12.658  0.7593 -1.7204  2.0271
 6559TIP3    H241093   6.784   4.440  12.647 -0.3190  0.1299 -1.1546
 6560TIP3   OH241094   6.359   1.397  14.408 -0.4613  0.5315  0.2208
 6560TIP3    H141095   6.286   1.372  14.465 -0.7775  1.0588  0.0545
 6560TIP3    H241096   6.436   1.358  14.450 -0.7582  0.4616  0.7186
 6561TIP3   OH241097   6.731   4.022   0.303 -0.7713 -0.6215  0.0944
 6561TIP3    H141098   6.754   3.958   0.235  1.0304  1.7040 -1.6454
 6561TIP3    H241099   6.643   4.051   0.279 -0.4868 -0.4412 -0.7767
 6562TIP3   OH241100   5.705   4.226  12.525  0.6249 -0.2441  0.7378
 6562TIP3    H141101   5.664   4.162  12.583 -1.9874 -0.3132 -0.9787
 6562TIP3    H241102   5.669   4.310  12.553  0.2206 -0.1495 -0.0206
 6563TIP3   OH241103   3.348   3.865   3.400 -0.1031 -0.4687 -0.3977
 6563TIP3    H141104   3.271   3.919   3.418  0.9340  1.2759 -0.9656
 6563TIP3    H241105   3.376   3.891   3.313  1.2515 -0.8972 -0.1214
 6564TIP3   OH241106   6.655   0.976   1.891 -0.6520 -0.1347 -0.6192
 6564TIP3    H141107   6.667   0.891   1.848 -0.5485  1.2550 -3.5635
 6564TIP3    H241108   6.717   0.975   1.964 -0.4299 -2.4383 -0.7741
 6565TIP3   OH241109   1.208   2.279   5.228  0.2327 -0.0119 -0.3383
 6565TIP3    H141110   1.288   2.239   5.194  0.8131  0.2760  0.6531
 6565TIP3    H241111   1.236   2.325   5.307 -0.9857 -0.2396  0.2472
 6566TIP3   OH241112   3.909   3.134  16.482  0.3085 -0.3040  1.1407
 6566TIP3    H141113   3.979   3.163  16.541  1.5737  2.0137 -1.3243
 6566TIP3    H241114   3.887   3.211  16.430  0.3898 -2.5529 -2.5357
 6567TIP3   OH241115   3.011   0.336  16.870  0.3226  0.1689 -0.2889
 6567TIP3    H141116   3.063   0.400  16.821  2.5786 -1.2761  0.0448
 6567TIP3    H241117   3.003   0.375  16.957  1.2424  0.2524 -0.2283
 6568TIP3   OH241118   0.881   3.043  16.217 -0.7181  0.2155  0.8602
 6568TIP3    H141119   0.911   3.062  16.306  3.5878  0.5939 -0.4738
 6568TIP3    H241120   0.869   3.129  16.177 -0.3651  0.0534  0.4058
 6569TIP3   OH241121   6.329   5.649  16.739 -0.7054  0.6440  0.1269
 6569TIP3    H141122   6.240   5.683  16.732 -0.9068 -0.0377 -0.7727
 6569TIP3    H241123   6.327   5.592  16.816 -0.1755  3.1163  2.1462
 6570TIP3   OH241124   4.911   1.751  16.258  0.1454  0.2254  0.4176
 6570TIP3    H141125   4.849   1.692  16.216  0.6176  0.5451 -0.7801
 6570TIP3    H241126   4.995   1.732  16.216  0.4714  1.1575  0.6036
 6571TIP3   OH241127   4.410   4.451   4.727 -0.1592 -0.4795  0.3960
 6571TIP3    H141128   4.350   4.462   4.801 -1.2330 -1.6906 -0.2426
 6571TIP3    H241129   4.400   4.359   4.703  4.1196 -1.6283  2.0718
 6572TIP3   OH241130   1.894   6.684  11.793  0.0970  0.6495 -0.3301
 6572TIP3    H141131   1.924   6.613  11.849  1.6489 -1.7605 -3.8656
 6572TIP3    H241132   1.807   6.658  11.765 -0.2559  1.3201  0.1204
 6573TIP3   OH241133   2.015   5.941  15.888  0.3335  0.2664  0.4928
 6573TIP3    H141134   2.008   5.978  15.976  1.5707  2.0674 -0.0986
 6573TIP3    H241135   1.983   6.011  15.831  0.6798 -0.4163 -0.5510
 6574TIP3   OH241136   5.066   3.666  16.954 -0.0952 -0.4917 -0.5915
 6574TIP3    H141137   5.081   3.728  16.884 -1.7787 -0.9636 -1.4101
 6574TIP3    H241138   4.973   3.674  16.975  0.0754 -1.3443  0.6363
 6575TIP3   OH241139   0.179   1.330  16.043  0.3143 -0.1167 -0.1673
 6575TIP3    H141140   0.225   1.250  16.065 -1.2422 -0.8363  0.6146
 6575TIP3    H241141   0.130   1.309  15.963 -0.9476 -0.3304  0.6304
 6576TIP3   OH241142   3.064   2.484  12.384  0.2389  0.0651 -0.0203
 6576TIP3    H141143   3.142   2.537  12.403  0.2535  0.0248  0.0332
 6576TIP3    H241144   3.022   2.473  12.469 -0.3792  0.9550 -0.2056
 6577TIP3   OH241145   2.158   0.484   0.452 -0.5087 -0.7900 -0.3959
 6577TIP3    H141146   2.207   0.507   0.531  0.6361  0.3734 -1.4125
 6577TIP3    H241147   2.117   0.565   0.424 -1.3578 -1.3166 -0.7007
 6578TIP3   OH241148   1.444   4.019   4.378  0.0610 -0.1511 -0.2246
 6578TIP3    H141149   1.359   3.995   4.415  0.2814 -0.2903  0.1984
 6578TIP3    H241150   1.424   4.086   4.312 -0.3290  0.1387  0.1859
 6579TIP3   OH241151   5.652   1.229   5.485 -0.0879  1.2239 -0.2104
 6579TIP3    H141152   5.718   1.275   5.537 -0.2142  2.1424 -0.8280
 6579TIP3    H241153   5.570   1.273   5.508 -0.3868  0.5561  0.0252
 6580TIP3   OH241154   1.477   5.728   1.282 -0.1437  0.0340  0.2879
 6580TIP3    H141155   1.402   5.785   1.264 -0.3326  0.6271  2.6858
 6580TIP3    H241156   1.478   5.666   1.209 -2.5043  0.4780 -0.1937
 6581TIP3   OH241157   1.883   0.475  15.974  0.2348 -0.1591  0.1353
 6581TIP3    H141158   1.898   0.395  15.924  0.5515 -0.2748  0.4191
 6581TIP3    H241159   1.790   0.473  15.995  0.0480 -0.0129 -0.6155
 6582TIP3   OH241160   5.385   5.680   2.458 -0.1783  0.2660  0.3421
 6582TIP3    H141161   5.398   5.608   2.518  2.8233 -1.7423 -2.4093
 6582TIP3    H241162   5.331   5.643   2.388 -1.1018  1.6324  0.2954
 6583TIP3   OH241163   0.950   5.817  14.303  0.6975  0.5118 -0.0833
 6583TIP3    H141164   0.959   5.805  14.208  0.2934  1.7936 -0.3073
 6583TIP3    H241165   0.941   5.729  14.337  2.6922 -0.1198 -1.0192
 6584TIP3   OH241166   5.698   0.282  14.171 -0.0390 -0.1934 -0.1908
 6584TIP3    H141167   5.713   0.217  14.238  0.1584 -0.2067 -0.2481
 6584TIP3    H241168   5.721   0.239  14.089  1.4259  0.3852 -0.0997
 6585TIP3   OH241169   2.503   6.566   5.728 -0.5834  0.6865 -0.0384
 6585TIP3    H141170   2.487   6.658   5.752 -1.4670  0.3149  0.9128
 6585TIP3    H241171   2.423   6.539   5.683  0.3841  0.8695 -1.9749
 6586TIP3   OH241172   6.152   4.695  11.189  0.5132  0.1317 -0.4384
 6586TIP3    H141173   6.171   4.621  11.246 -1.9523 -0.6527 -0.5183
 6586TIP3    H241174   6.091   4.660  11.123 -2.2892  2.5571  0.6257
 6587TIP3   OH241175   5.513   2.565   0.048 -0.6631 -0.2779  0.1760
 6587TIP3    H141176   5.529   2.478   0.085  0.9377  0.3582  1.0558
 6587TIP3    H241177   5.543   2.558  -0.043 -1.5560 -0.9348 -0.0766
 6588TIP3   OH241178   5.683   5.094   0.437 -0.0152  0.0872 -0.4957
 6588TIP3    H141179   5.677   5.172   0.492 -0.8194  0.1497 -0.6514
 6588TIP3    H241180   5.603   5.045   0.457 -0.6607  0.4351 -2.0845
 6589TIP3   OH241181   3.251   0.556   5.604  0.4422  0.4258  0.4200
 6589TIP3    H141182   3.271   0.627   5.665 -0.4873 -0.6246  2.0004
 6589TIP3    H241183   3.311   0.486   5.628 -0.9644 -0.5484  1.1677
 6590TIP3   OH241184   3.195   0.855  11.412 -0.0185  0.6894 -0.2420
 6590TIP3    H141185   3.226   0.945  11.422  0.3533  0.5723 -0.3301
 6590TIP3    H241186   3.254   0.816  11.348 -0.6894  0.6195 -0.8318
 6591TIP3   OH241187   2.330   6.152  13.525 -0.1441  0.1692  0.1684
 6591TIP3    H141188   2.406   6.096  13.510  0.2575  0.3499  1.4337
 6591TIP3    H241189   2.276   6.104  13.588 -0.8484  0.2593 -0.3600
 6592TIP3   OH241190   2.369   5.169   0.072 -0.2760 -0.3437 -0.0761
 6592TIP3    H141191   2.363   5.078   0.041 -0.9500 -0.0169 -0.9412
 6592TIP3    H241192   2.343   5.164   0.164  0.1725 -1.0964  0.0187
 6593TIP3   OH241193   2.586   4.879  15.583  0.8910  0.2852  0.2104
 6593TIP3    H141194   2.674   4.872  15.620  0.3319 -2.0442  1.3688
 6593TIP3    H241195   2.537   4.932  15.646  0.8965 -0.4843  0.8841
 6594TIP3   OH241196   5.005   1.967   1.748 -0.2059  0.6795 -0.1750
 6594TIP3    H141197   5.058   2.039   1.716  0.5611 -0.0858 -0.6720
 6594TIP3    H241198   4.961   2.002   1.826  0.0653  1.7032 -0.4750
 6595TIP3   OH241199   3.443   1.796  16.489  0.2390  0.7331 -0.0652
 6595TIP3    H141200   3.352   1.775  16.468  0.5127 -1.8706  1.0256
 6595TIP3    H241201   3.443   1.808  16.584  1.2030 -0.3867  0.0920
 6596TIP3   OH241202   2.913   2.009  14.787  0.4795  0.2010 -0.5144
 6596TIP3    H141203   2.886   2.063  14.861 -1.0566  0.4413 -1.2067
 6596TIP3    H241204   2.921   1.921  14.822  2.4246  0.7334  0.4987
 6597TIP3   OH241205   3.694   4.855  11.324 -0.0105  0.3230  0.1393
 6597TIP3    H141206   3.598   4.861  11.323 -0.0801 -0.5986  0.8744
 6597TIP3    H241207   3.722   4.913  11.252 -1.1109  0.5944 -0.0869
 6598TIP3   OH241208   4.488   4.598  12.170  0.4862 -0.0690  0.2304
 6598TIP3    H141209   4.435   4.642  12.237 -1.2750 -1.9596  0.1692
 6598TIP3    H241210   4.530   4.526  12.217  0.5533 -0.4228 -0.3730
 6599TIP3   OH241211   6.226   5.272   4.854 -0.0823  0.0333 -0.1034
 6599TIP3    H141212   6.252   5.179   4.856  1.1109  0.2267 -2.4496
 6599TIP3    H241213   6.287   5.315   4.913  0.7095 -0.4195 -0.5684
 6600TIP3   OH241214   2.865   2.513   1.904 -0.1139  0.0223 -0.4388
 6600TIP3    H141215   2.878   2.419   1.891 -2.7988 -0.1242 -3.4293
 6600TIP3    H241216   2.942   2.553   1.864  0.7635 -0.8833  0.2983
 6601TIP3   OH241217   0.478   1.809  16.385 -0.2501 -0.1172  0.7519
 6601TIP3    H141218   0.513   1.837  16.469  1.2152 -1.3108  0.5641
 6601TIP3    H241219   0.431   1.728  16.404  0.6823 -0.7722  0.3312
 6602TIP3   OH241220   0.283   1.869   4.363 -0.1428 -1.0183 -0.4946
 6602TIP3    H141221   0.228   1.946   4.347  0.1653 -0.9462 -1.2037
 6602TIP3    H241222   0.230   1.816   4.423 -0.4683 -0.3836 -0.1982
 6603TIP3   OH241223   1.213   5.080  14.282 -0.7493 -0.0636 -0.0320
 6603TIP3    H141224   1.266   5.041  14.351  0.3178  1.9585  0.3684
 6603TIP3    H241225   1.124   5.082  14.318 -0.7057 -1.4406  0.1905
 6604TIP3   OH241226   0.203   5.626   0.949  0.2212 -0.1334 -0.2847
 6604TIP3    H141227   0.219   5.617   1.043  0.4140 -1.3552 -0.4085
 6604TIP3    H241228   0.141   5.556   0.930 -0.2275  0.4463 -0.9802
 6605TIP3   OH241229   5.575   4.908   2.566 -0.2065  0.2574 -0.0012
 6605TIP3    H141230   5.529   4.824   2.564  1.7815 -0.8839  0.1758
 6605TIP3    H241231   5.662   4.888   2.601  0.6632  2.2172 -0.8656
 6606TIP3   OH241232   4.993   2.893  14.876  0.3931 -0.2986  0.3097
 6606TIP3    H141233   5.063   2.914  14.938 -0.2589  0.6975  0.7277
 6606TIP3    H241234   4.915   2.885  14.930 -0.2513  0.9053 -0.4103
 6607TIP3   OH241235   0.824   3.557   5.244 -0.5306 -0.2010 -0.1626
 6607TIP3    H141236   0.851   3.467   5.227 -1.0365 -0.5016  0.5650
 6607TIP3    H241237   0.905   3.607   5.248 -0.1924 -0.7793  0.2486
 6608TIP3   OH241238   6.786   1.021  16.010  0.1461  0.4641  0.2797
 6608TIP3    H141239   6.872   1.001  15.972 -0.7879 -0.4863 -1.4345
 6608TIP3    H241240   6.734   1.053  15.936 -2.2544 -2.9744  0.2682
 6609TIP3   OH241241   0.202   2.437  16.115 -0.2366  0.2630  0.1245
 6609TIP3    H141242   0.122   2.485  16.097  0.1088  0.8410  0.0908
 6609TIP3    H241243   0.199   2.419  16.209 -0.9585 -0.7524 -0.0837
 6610TIP3   OH241244   2.901   0.033   4.760 -0.2498 -0.2198  0.4017
 6610TIP3    H141245   2.810   0.061   4.748  0.2581  1.4455  0.1356
 6610TIP3    H241246   2.932   0.086   4.833  1.4584  1.7700 -1.6201
 6611TIP3   OH241247   0.477   1.468   0.877  0.3921 -0.3055  0.0942
 6611TIP3    H141248   0.487   1.497   0.787 -1.0494 -1.7611 -0.5880
 6611TIP3    H241249   0.489   1.547   0.930 -1.7393  1.2288 -1.5526
 6612TIP3   OH241250   1.848   5.827   2.856 -0.6152  0.0911  0.0629
 6612TIP3    H141251   1.923   5.880   2.826 -0.5249  0.3003  0.6429
 6612TIP3    H241252   1.888   5.756   2.906 -0.6787 -1.0760 -1.4817
 6613TIP3   OH241253   4.948   0.930  10.863  0.7404  0.2013 -0.5154
 6613TIP3    H141254   4.979   0.842  10.884 -2.0889 -0.7141  0.2406
 6613TIP3    H241255   4.943   0.974  10.948  0.6438  0.5545 -0.7054
 6614TIP3   OH241256   1.796   3.899   4.065 -0.4756  0.0107 -0.4478
 6614TIP3    H141257   1.890   3.890   4.078 -0.3938 -0.1996 -1.1523
 6614TIP3    H241258   1.759   3.893   4.153  0.2883  1.8734  0.0536
 6615TIP3   OH241259   1.987   6.344   0.500 -0.0032 -0.3694 -0.3681
 6615TIP3    H141260   2.036   6.301   0.571  0.2925  2.0854  1.0365
 6615TIP3    H241261   1.911   6.287   0.486  0.8666 -1.8604  0.6589
 6616TIP3   OH241262   0.800   2.494  13.012 -0.2814 -0.1983 -0.0806
 6616TIP3    H141263   0.836   2.524  12.928 -1.6049 -2.4226 -1.5712
 6616TIP3    H241264   0.705   2.502  13.000 -0.4984 -0.9435  1.0318
 6617TIP3   OH241265   2.388   3.919  11.963  0.2792  0.2161 -0.0845
 6617TIP3    H141266   2.368   3.865  12.039  0.8260  1.6635  1.1322
 6617TIP3    H241267   2.302   3.941  11.927 -0.0479  0.4783  0.8198
 6618TIP3   OH241268   0.587   5.920   2.815  0.0048 -0.2385 -0.1957
 6618TIP3    H141269   0.606   5.830   2.841  1.4136  0.8141  2.8464
 6618TIP3    H241270   0.535   5.956   2.886  2.1447  2.2254  0.2907
 6619TIP3   OH241271   1.938   2.603   4.866 -0.0046  0.2509  0.6202
 6619TIP3    H141272   2.014   2.632   4.815  0.2482  0.9918  1.3892
 6619TIP3    H241273   1.902   2.684   4.902 -0.7197 -0.1740  0.8668
 6620TIP3   OH241274   2.750   4.572   1.924  0.3500 -0.6860  1.0033
 6620TIP3    H141275   2.844   4.590   1.935  0.7663 -1.7630 -0.5357
 6620TIP3    H241276   2.707   4.652   1.955  1.7438 -0.2710  2.0037
 6621TIP3   OH241277   5.422   2.951   3.292 -0.1168  0.0748  0.2044
 6621TIP3    H141278   5.485   2.946   3.364 -1.1007 -2.5972  1.0363
 6621TIP3    H241279   5.430   3.040   3.258  1.5772  0.9050  2.5351
 6622TIP3   OH241280   6.734   6.378   6.099 -0.0670  0.2215  0.1059
 6622TIP3    H141281   6.672   6.309   6.123  1.0030 -0.5774  0.6403
 6622TIP3    H241282   6.754   6.361   6.007 -2.3242  1.8474 -0.7884
 6623TIP3   OH241283   6.353   5.497  11.451  0.6731 -0.1441  0.6187
 6623TIP3    H141284   6.322   5.571  11.504  2.7235  0.2449  1.3807
 6623TIP3    H241285   6.404   5.537  11.381 -1.2313 -0.7096 -1.1538
 6624TIP3   OH241286   1.523   3.113   0.599  0.1933 -0.0311  0.2379
 6624TIP3    H141287   1.465   3.149   0.666  0.0865  0.8365 -0.3038
 6624TIP3    H241288   1.489   3.025   0.582 -0.2304  0.0260  0.7821
 6625TIP3   OH241289   2.871   2.835   5.234 -0.3624 -0.0386  0.2790
 6625TIP3    H141290   2.790   2.822   5.283  0.1044 -0.8039  0.8598
 6625TIP3    H241291   2.876   2.761   5.174 -1.2638  1.2254 -1.4554
 6626TIP3   OH241292   5.160   1.402   3.527 -0.3818  0.2268  0.2764
 6626TIP3    H141293   5.168   1.326   3.469 -1.5959  0.2784  0.0180
 6626TIP3    H241294   5.180   1.477   3.471  1.6520  0.0795  0.7300
 6627TIP3   OH241295   4.274   4.733  12.320 -0.2628 -0.5224 -0.2403
 6627TIP3    H141296   4.313   4.776  12.396  0.1445 -0.2071 -0.6252
 6627TIP3    H241297   4.257   4.643  12.349  0.3599 -0.5447  0.0618
 6628TIP3   OH241298   5.658   3.170   2.746  0.4040 -0.1121 -0.7418
 6628TIP3    H141299   5.591   3.169   2.678  1.4762 -0.8737 -1.8328
 6628TIP3    H241300   5.641   3.091   2.797  0.1182  0.0023 -0.6606
 6629TIP3   OH241301   5.425   1.069  15.761  0.4302  0.5275 -0.1832
 6629TIP3    H141302   5.417   1.125  15.839  1.3365  0.5080 -0.0658
 6629TIP3    H241303   5.350   1.093  15.707 -0.3664  0.3574  0.8080
 6630TIP3   OH241304   3.498   2.131  10.469 -0.1026  0.2655 -0.2822
 6630TIP3    H141305   3.552   2.196  10.513 -0.0485 -0.0231  0.0895
 6630TIP3    H241306   3.541   2.115  10.386 -1.0691  2.0119 -1.1802
 6631TIP3   OH241307   2.444   4.932   2.963  0.4730 -0.0096 -0.4255
 6631TIP3    H141308   2.490   4.848   2.958  1.6832  0.5437  0.6178
 6631TIP3    H241309   2.506   4.995   2.925  1.0613  0.9069  1.9032
 6632TIP3   OH241310   2.364   0.269  15.347  0.3851 -0.1191  0.9743
 6632TIP3    H141311   2.309   0.245  15.422  0.2379  1.1214  1.2917
 6632TIP3    H241312   2.436   0.319  15.386  0.9859 -0.5310  0.4078
 6633TIP3   OH241313   1.540   5.794   2.518 -0.1491 -0.6573 -0.2662
 6633TIP3    H141314   1.619   5.760   2.475  0.9937  0.2304  1.0515
 6633TIP3    H241315   1.468   5.742   2.480  0.7853 -0.1142 -3.0027
 6634TIP3   OH241316   3.277   1.115  13.385  0.2414 -0.2131 -0.4832
 6634TIP3    H141317   3.291   1.059  13.309 -0.1493 -1.9031  0.6318
 6634TIP3    H241318   3.182   1.125  13.391  0.2564 -0.3458 -0.0276
 6635TIP3   OH241319   2.791   5.800  15.477  0.6284 -0.0548  0.0656
 6635TIP3    H141320   2.756   5.716  15.506  2.1959 -0.2617  1.5277
 6635TIP3    H241321   2.790   5.794  15.381 -0.8738 -1.0234  0.1098
 6636TIP3   OH241322   5.896   1.251  15.346 -0.0894 -0.3387  0.3451
 6636TIP3    H141323   5.889   1.161  15.376 -0.1858 -0.7740 -0.9143
 6636TIP3    H241324   5.906   1.303  15.426  2.8198 -1.7176  1.0038
 6637TIP3   OH241325   6.488   6.657   2.973  0.2737 -0.1124 -0.1668
 6637TIP3    H141326   6.452   6.629   2.889  1.4501 -0.6285 -0.5252
 6637TIP3    H241327   6.527   6.743   2.955 -1.3128  0.7774  0.3864
 6638TIP3   OH241328   5.933   2.749  15.910 -0.2645  0.1209 -0.0320
 6638TIP3    H141329   6.028   2.748  15.896  0.0690  1.4010  1.7320
 6638TIP3    H241330   5.900   2.680  15.853  1.6849 -0.1602 -0.9336
 6639TIP3   OH241331   6.024   3.866  14.588  0.5990  0.1573  0.1479
 6639TIP3    H141332   6.109   3.907  14.576  0.8419 -0.8326 -2.1378
 6639TIP3    H241333   6.027   3.787  14.533 -1.7628  0.0651  0.0213
 6640TIP3   OH241334   0.332   3.166  16.348 -0.0721 -0.1832  0.6125
 6640TIP3    H141335   0.366   3.252  16.321 -0.8166 -0.0736 -0.0241
 6640TIP3    H241336   0.318   3.119  16.265  0.4491 -0.9720  0.9611
 6641TIP3   OH241337   0.556   5.511   1.111 -0.2311 -0.2373 -0.1516
 6641TIP3    H141338   0.525   5.448   1.176 -0.2918  0.1493  0.1974
 6641TIP3    H241339   0.591   5.457   1.040  0.5400 -0.6707  0.5394
 6642TIP3   OH241340   3.105   3.723  14.971  0.3830 -0.0544 -0.0781
 6642TIP3    H141341   3.183   3.680  15.005 -0.4255 -1.5959 -0.0858
 6642TIP3    H241342   3.032   3.674  15.009 -0.5696  0.4345 -1.2074
 6643TIP3   OH241343   2.853   6.316   1.281 -0.9578  0.1581  0.3641
 6643TIP3    H141344   2.913   6.242   1.296 -0.9329 -0.0540 -0.6708
 6643TIP3    H241345   2.799   6.288   1.207 -1.8382  0.6552  0.8077
 6644TIP3   OH241346   3.630   4.513  14.913  0.5770  0.6410 -0.3590
 6644TIP3    H141347   3.692   4.557  14.971 -0.9419  1.2967  0.8297
 6644TIP3    H241348   3.545   4.548  14.937 -0.3328 -0.5313 -1.6688
 6645TIP3   OH241349   4.787   6.442   3.626  0.1983 -0.3821 -0.0381
 6645TIP3    H141350   4.809   6.503   3.696  1.6606 -0.2716 -0.5513
 6645TIP3    H241351   4.694   6.424   3.637 -0.0451  1.2056  0.7001
 6646TIP3   OH241352   3.192   6.582  11.261  0.3616 -0.4522  0.2245
 6646TIP3    H141353   3.124   6.525  11.298  1.0154 -0.0943  2.1042
 6646TIP3    H241354   3.246   6.606  11.337  1.8472  0.2720 -1.0240
 6647TIP3   OH241355   0.011   2.542  13.256 -0.0358 -0.0707  0.4766
 6647TIP3    H141356  -0.070   2.492  13.244  0.9371 -2.1504  2.0419
 6647TIP3    H241357   0.031   2.534  13.349  1.2446  1.6217  0.4022
 6648TIP3   OH241358   4.008   1.411  16.010 -0.2638  0.4558  0.1872
 6648TIP3    H141359   4.022   1.487  16.066  0.3622  1.1150 -0.8235
 6648TIP3    H241360   3.948   1.355  16.059  0.9902  0.5617  1.9096
 6649TIP3   OH241361   6.191   6.561   2.836 -0.1954 -0.0592  0.1230
 6649TIP3    H141362   6.137   6.508   2.778  1.1349 -0.7298 -0.5508
 6649TIP3    H241363   6.196   6.646   2.792  0.5741 -0.4787 -0.6413
 6650TIP3   OH241364   6.031   3.509   5.314 -0.5220  0.1032 -0.2202
 6650TIP3    H141365   6.065   3.444   5.253 -0.7635  0.1827 -0.4445
 6650TIP3    H241366   5.936   3.501   5.306 -0.5610 -0.0871  0.3619
 6651TIP3   OH241367   4.003   1.971  11.667  0.5532 -0.4623 -0.5470
 6651TIP3    H141368   4.070   2.031  11.634  0.9556  0.7338  2.1535
 6651TIP3    H241369   4.044   1.884  11.663  2.3995  0.2442  1.1311
 6652TIP3   OH241370   5.325   0.282  13.695  0.1113  0.0803  0.1408
 6652TIP3    H141371   5.315   0.302  13.602  0.2506 -0.0811  0.0898
 6652TIP3    H241372   5.242   0.307  13.734  1.2822  3.7349  0.6396
 6653TIP3   OH241373   0.706   2.848   3.010  0.0973 -0.4911 -0.2531
 6653TIP3    H141374   0.665   2.851   3.096  0.1327  0.3350 -0.2534
 6653TIP3    H241375   0.769   2.776   3.015  1.3169  0.5885  0.9823
 6654TIP3   OH241376   2.096   3.429   5.362 -0.2282 -0.5614  0.5390
 6654TIP3    H141377   2.130   3.508   5.319 -1.5626  0.0825  0.6085
 6654TIP3    H241378   2.030   3.461   5.423 -0.4587 -1.7054  0.9204
 6655TIP3   OH241379   4.251   6.177  12.659 -0.1667  0.3870  0.2361
 6655TIP3    H141380   4.277   6.252  12.606  1.4951 -0.3530 -0.0525
 6655TIP3    H241381   4.174   6.207  12.707  1.7953  3.1188  1.9401
 6656TIP3   OH241382   4.910   4.575   0.480 -0.8911 -0.2164 -0.4476
 6656TIP3    H141383   4.946   4.491   0.450  1.2972  0.3548  0.3776
 6656TIP3    H241384   4.971   4.640   0.446 -2.4660  1.0504 -0.9200
 6657TIP3   OH241385   4.906   5.369  14.759  0.3088 -0.4014  0.1856
 6657TIP3    H141386   4.876   5.320  14.835 -1.4113 -2.1852 -1.5166
 6657TIP3    H241387   4.826   5.388  14.709  1.3854  0.5484 -1.2733
 6658TIP3   OH241388   1.494   1.438   3.892  0.0131 -0.5413  0.4169
 6658TIP3    H141389   1.479   1.388   3.972 -2.6114 -0.4237  0.0896
 6658TIP3    H241390   1.422   1.501   3.889  0.5435  0.0498 -1.5972
 6659TIP3   OH241391   1.380   5.254   4.704  0.3687 -0.0060  0.0633
 6659TIP3    H141392   1.438   5.326   4.682  0.2961  0.2167  0.5832
 6659TIP3    H241393   1.424   5.209   4.777 -0.8728  1.1539  1.5900
 6660TIP3   OH241394   4.813   1.271   3.855 -0.3473  0.2320 -0.1032
 6660TIP3    H141395   4.842   1.335   3.790 -2.1095 -0.1773 -1.3978
 6660TIP3    H241396   4.717   1.279   3.855 -0.4086  0.4464  2.7430
 6661TIP3   OH241397   2.984   6.425  11.413  0.2417  0.4494  0.3504
 6661TIP3    H141398   2.937   6.500  11.450  0.0771 -0.9879  3.2788
 6661TIP3    H241399   2.931   6.398  11.338 -0.7042  2.0902  0.3841
 6662TIP3   OH241400   2.664   5.657  13.358  0.4897 -0.1404  0.5183
 6662TIP3    H141401   2.760   5.649  13.355  0.4672 -0.3316 -1.9539
 6662TIP3    H241402   2.646   5.747  13.331 -0.0325  0.0824  1.5710
 6663TIP3   OH241403   1.072   4.335  15.186  0.5257  0.0164 -1.4517
 6663TIP3    H141404   1.000   4.273  15.172 -0.7671  1.1575 -0.0915
 6663TIP3    H241405   1.137   4.285  15.235 -1.0536  0.0190  0.7608
 6664TIP3   OH241406   0.741   0.409   4.101  0.5081  0.4570  0.9895
 6664TIP3    H141407   0.808   0.404   4.033  0.3088  0.4361  0.7937
 6664TIP3    H241408   0.790   0.422   4.182  0.7158  0.9597  0.7829
 6665TIP3   OH241409   0.805   0.556   3.631 -0.1619  0.4634  0.0110
 6665TIP3    H141410   0.817   0.461   3.625  0.7479  0.5933 -0.5514
 6665TIP3    H241411   0.847   0.580   3.714 -1.1029  0.2794  0.5457
 6666TIP3   OH241412   6.081   3.327   1.354  0.0613 -0.1358 -0.0186
 6666TIP3    H141413   6.100   3.261   1.289  3.2005  1.3240 -0.7520
 6666TIP3    H241414   6.092   3.282   1.438  1.0574 -0.8035 -0.4963
 6667TIP3   OH241415   4.432   0.090   3.833  0.2173 -0.0617  0.2198
 6667TIP3    H141416   4.342   0.107   3.861  0.2478  0.5366 -0.0348
 6667TIP3    H241417   4.473   0.177   3.831  0.8209 -0.3393  0.4078
 6668TIP3   OH241418   5.844   0.325   3.825 -0.5459  0.8520 -0.2325
 6668TIP3    H141419   5.880   0.395   3.879  0.1603  1.0102 -0.8838
 6668TIP3    H241420   5.762   0.301   3.867 -0.3315  1.4257  0.5258
 6669TIP3   OH241421   1.961   2.340  13.565 -0.2053 -0.1728 -0.6059
 6669TIP3    H141422   2.036   2.373  13.516  0.0318  0.9993  0.4939
 6669TIP3    H241423   1.899   2.412  13.566  0.0633  0.0823  1.3415
 6670TIP3   OH241424   3.502   0.291  10.892 -0.0383  0.6183  0.1250
 6670TIP3    H141425   3.533   0.279  10.802  0.1684 -0.1730  0.2906
 6670TIP3    H241426   3.416   0.332  10.883 -0.5296 -0.4887 -0.4839
 6671TIP3   OH241427   1.571   0.756  11.217 -0.1823  0.4123  0.3475
 6671TIP3    H141428   1.499   0.816  11.236  0.6785  2.5151 -2.3470
 6671TIP3    H241429   1.607   0.788  11.134  1.3451 -2.9601 -0.4509
 6672TIP3   OH241430   6.295   2.683   6.052  0.2523 -0.3261  0.1919
 6672TIP3    H141431   6.357   2.651   5.987 -2.3302 -0.0532 -2.6569
 6672TIP3    H241432   6.314   2.776   6.060  0.0058 -0.1607 -0.9626
 6673TIP3   OH241433   6.656   5.787  11.667 -0.4720 -0.0162  0.5763
 6673TIP3    H141434   6.696   5.703  11.648 -1.1080 -0.4037  0.9179
 6673TIP3    H241435   6.667   5.798  11.762 -0.7303  0.1031  0.5937
 6674TIP3   OH241436   6.562   1.608   1.439  0.5715 -0.1504 -0.0750
 6674TIP3    H141437   6.538   1.675   1.374  0.3933 -0.0708  0.0727
 6674TIP3    H241438   6.584   1.659   1.518  1.1049 -0.2265 -0.1677
 6675TIP3   OH241439   1.759   6.138  14.910 -0.2776 -0.2419  0.6743
 6675TIP3    H141440   1.757   6.233  14.898 -2.3847 -0.3514 -0.1302
 6675TIP3    H241441   1.734   6.125  15.002  1.2197 -0.0197  1.1499
 6676TIP3   OH241442   4.395   2.660  15.581 -0.5122 -0.3755  0.0780
 6676TIP3    H141443   4.350   2.670  15.665 -0.3557  0.3359  0.0785
 6676TIP3    H241444   4.475   2.612  15.602 -0.4921 -0.2352  0.3281
 6677TIP3   OH241445   3.729   5.343   1.230  0.3223  0.3490 -0.0665
 6677TIP3    H141446   3.801   5.282   1.245  0.9786  0.2061 -3.1002
 6677TIP3    H241447   3.667   5.294   1.176 -1.1117  1.1147  0.8147
 6678TIP3   OH241448   4.994   2.717   5.552 -0.5027 -0.1505 -0.6396
 6678TIP3    H141449   4.979   2.728   5.646 -0.0320  0.0220 -0.5789
 6678TIP3    H241450   5.001   2.807   5.518  0.2842 -0.2098 -0.6680
 6679TIP3   OH241451   2.912   0.858   6.196 -0.1386  0.3185  0.3479
 6679TIP3    H141452   2.932   0.928   6.257 -0.7938  2.0477 -1.3121
 6679TIP3    H241453   2.937   0.778   6.242  1.3638  1.6653  2.0104
 6680TIP3   OH241454   6.057   2.135   0.068 -0.2533  0.1422 -0.0461
 6680TIP3    H141455   6.121   2.069   0.039 -0.9709  0.0414 -1.5395
 6680TIP3    H241456   6.061   2.132   0.163  0.3209 -1.4929 -0.0789
 6681TIP3   OH241457   2.850   4.276   5.699  0.4450  0.2826  0.2881
 6681TIP3    H141458   2.855   4.305   5.790  0.8372 -1.0184  0.6939
 6681TIP3    H241459   2.931   4.228   5.684 -0.6805 -1.6058  0.0048
 6682TIP3   OH241460   0.967   4.343   3.314  0.6698  0.4491  0.3139
 6682TIP3    H141461   0.952   4.355   3.408 -0.1045  0.0331  0.2469
 6682TIP3    H241462   0.923   4.417   3.273  0.7362  0.4554  0.2530
 6683TIP3   OH241463   1.039   6.539   4.324 -0.2719  0.0683  0.2451
 6683TIP3    H141464   1.038   6.459   4.271 -3.4536  0.1787 -0.0648
 6683TIP3    H241465   0.994   6.514   4.405 -0.9838  1.4568  0.2888
 6684TIP3   OH241466   2.739   1.944  11.489 -0.0081  0.1240 -0.2077
 6684TIP3    H141467   2.777   1.856  11.491  0.2936  0.2669  1.4553
 6684TIP3    H241468   2.763   1.979  11.404 -0.1457 -1.4039 -0.9069
 6685TIP3   OH241469   6.478   1.992  15.110 -0.1431  0.4547  0.3170
 6685TIP3    H141470   6.551   2.000  15.172  1.0128  0.7351 -1.0267
 6685TIP3    H241471   6.505   2.046  15.035 -0.6208 -1.3634 -1.2306
 6686TIP3   OH241472   2.142   2.220   4.678 -0.4798  0.0125 -0.3184
 6686TIP3    H141473   2.095   2.295   4.642 -0.9262 -0.8688 -1.6522
 6686TIP3    H241474   2.163   2.166   4.602  2.5542  0.2410  0.2265
 6687TIP3   OH241475   6.165   4.511  14.339 -0.7371  0.2348 -0.0251
 6687TIP3    H141476   6.170   4.433  14.393 -0.4919 -0.1196 -0.5508
 6687TIP3    H241477   6.176   4.584  14.401 -0.1270 -0.1733  0.3582
 6688TIP3   OH241478   3.026   2.889   1.088 -0.1866  0.1689 -0.1839
 6688TIP3    H141479   3.087   2.824   1.053 -0.4542  0.3953 -1.1237
 6688TIP3    H241480   3.036   2.884   1.183  0.5296 -0.5269 -0.2871
 6689TIP3   OH241481   2.652   6.714  16.784  0.1705  0.3033  0.3860
 6689TIP3    H141482   2.701   6.632  16.775 -0.9652 -0.3039 -0.5867
 6689TIP3    H241483   2.699   6.763  16.852  1.2398 -0.8738  0.5355
 6690TIP3   OH241484   1.982   5.767  11.606  0.8142 -0.1880 -0.8074
 6690TIP3    H141485   2.061   5.771  11.552  1.7083 -1.3035  0.3407
 6690TIP3    H241486   2.013   5.785  11.695 -0.1386 -1.0142 -0.2788
 6691TIP3   OH241487   4.139   1.714  11.573  0.3399  0.1567 -0.3252
 6691TIP3    H141488   4.103   1.632  11.606 -0.0787  0.9187  1.1974
 6691TIP3    H241489   4.190   1.749  11.646 -1.7942  2.6110  0.1250
 6692TIP3   OH241490   1.181   2.868  15.981  0.6832 -0.0612  0.2053
 6692TIP3    H141491   1.102   2.858  15.928 -1.3458  4.1963  1.9435
 6692TIP3    H241492   1.171   2.804  16.051 -0.7104 -0.3212 -0.2014
 6693TIP3   OH241493   1.789   5.673  16.250 -0.3477 -0.6471  0.4080
 6693TIP3    H141494   1.881   5.686  16.275 -0.3107  1.0481 -0.4314
 6693TIP3    H241495   1.783   5.581  16.225  1.1777 -0.7341  0.2801
 6694TIP3   OH241496   0.285   0.282   2.823  0.1125  0.3501  0.7639
 6694TIP3    H141497   0.359   0.304   2.767 -0.9598 -0.0953 -0.9132
 6694TIP3    H241498   0.277   0.187   2.817 -0.9197  0.4395  0.4484
 6695TIP3   OH241499   6.547   3.711   3.919 -0.3307  0.2992  0.0549
 6695TIP3    H141500   6.531   3.801   3.891 -1.4648  0.4845  1.2077
 6695TIP3    H241501   6.543   3.659   3.839  1.6598  1.4004 -0.8306
 6696TIP3   OH241502   4.192   0.159  12.258  0.8080  0.0446 -0.3562
 6696TIP3    H141503   4.204   0.228  12.193  1.7276 -0.9952 -1.3431
 6696TIP3    H241504   4.114   0.111  12.228  1.7047 -0.9409 -1.2213
 6697TIP3   OH241505   1.824   6.181   0.811  0.1280  0.5494  0.5024
 6697TIP3    H141506   1.841   6.110   0.873 -0.8468 -0.6058 -0.5180
 6697TIP3    H241507   1.909   6.222   0.798  1.2040 -1.8589 -0.6184
 6698TIP3   OH241508   2.020   3.539   3.793  0.1505 -0.2698 -0.7509
 6698TIP3    H141509   1.929   3.567   3.790  0.2306  0.3224  1.0444
 6698TIP3    H241510   2.065   3.607   3.843  1.2927 -1.2564 -0.3747
 6699TIP3   OH241511   0.733   2.823   4.705  0.2811  0.0909 -0.2405
 6699TIP3    H141512   0.804   2.759   4.703  1.0545  0.8864  0.7365
 6699TIP3    H241513   0.716   2.838   4.798 -1.1789 -0.0729 -0.4499
 6700TIP3   OH241514   0.018   6.191   2.002  0.2000  0.3534 -0.5968
 6700TIP3    H141515   0.086   6.257   1.987  1.8610 -1.0284  0.4055
 6700TIP3    H241516  -0.033   6.189   1.921  1.9448  0.8013 -1.7589
 6701TIP3   OH241517   4.511   2.022  11.775 -0.2638 -0.3738 -0.6380
 6701TIP3    H141518   4.489   2.113  11.755  1.5502  0.3475  0.4318
 6701TIP3    H241519   4.552   1.989  11.695  0.2670  0.1690 -0.5957
 6702TIP3   OH241520   6.370   1.269  15.644 -0.0225  0.0137 -0.2537
 6702TIP3    H141521   6.287   1.257  15.690 -0.7905 -1.0720 -1.8379
 6702TIP3    H241522   6.375   1.363  15.627 -1.9742 -0.1281 -1.9415
 6703TIP3   OH241523   4.759   5.564  12.409 -0.1401  0.6241 -0.1332
 6703TIP3    H141524   4.769   5.475  12.443 -0.4160  0.4517 -0.5000
 6703TIP3    H241525   4.803   5.562  12.324 -0.9507  0.5792 -0.5639
 6704TIP3   OH241526   5.343   3.004   0.982  0.2357 -0.1416 -0.2438
 6704TIP3    H141527   5.262   2.971   1.022  0.3190 -0.6218 -0.4689
 6704TIP3    H241528   5.412   2.975   1.042  0.3397 -0.6669 -0.6114
 6705TIP3   OH241529   0.520   4.765   1.919 -0.1380 -0.2229  0.1599
 6705TIP3    H141530   0.468   4.779   1.841 -0.1199  0.7788  0.3220
 6705TIP3    H241531   0.463   4.715   1.977 -0.1113 -1.0637 -0.5227
 6706TIP3   OH241532   0.738   6.005  13.327  0.1599  0.4999 -0.0449
 6706TIP3    H141533   0.665   6.050  13.285 -1.5248 -1.3498  0.7495
 6706TIP3    H241534   0.792   6.076  13.363 -0.7716  1.9416 -1.3740
 6707TIP3   OH241535   3.086   2.114  16.703  0.0623 -0.2216 -0.8455
 6707TIP3    H141536   3.039   2.183  16.655  1.1807  0.6536 -0.7237
 6707TIP3    H241537   3.022   2.043  16.710 -1.7791  1.4298  0.5543
 6708TIP3   OH241538   1.634   3.628  16.377 -0.5100 -0.2521  0.2833
 6708TIP3    H141539   1.695   3.653  16.446  0.3344 -0.3038 -0.4239
 6708TIP3    H241540   1.625   3.533  16.385 -1.8878 -0.0615  1.4874
 6709TIP3   OH241541   1.643   3.913   1.789  0.0556 -0.5084 -0.8290
 6709TIP3    H141542   1.592   3.870   1.720  0.4552 -3.3786  0.5042
 6709TIP3    H241543   1.597   3.890   1.870  1.0283  0.6018  0.0782
 6710TIP3   OH241544   5.373   2.245   3.202 -0.6892 -0.0006 -0.2806
 6710TIP3    H141545   5.281   2.262   3.182 -0.4592 -0.2935 -1.6905
 6710TIP3    H241546   5.371   2.194   3.283 -1.5997  2.5859  1.4363
 6711TIP3   OH241547   5.498   0.264  11.458 -0.1275  0.0894  0.4646
 6711TIP3    H141548   5.421   0.317  11.437  1.1870  1.8015 -0.2351
 6711TIP3    H241549   5.556   0.323  11.506  0.7818 -1.1652  0.9747
 6712TIP3   OH241550   0.934   0.886   2.435 -0.1631 -0.3798  0.0817
 6712TIP3    H141551   0.949   0.792   2.441  0.5327 -0.3589 -1.0122
 6712TIP3    H241552   0.849   0.894   2.392 -0.3553 -0.5049  0.4354
 6713TIP3   OH241553   3.623   3.064  14.290 -0.6804  0.2458  0.3145
 6713TIP3    H141554   3.538   3.099  14.318  0.6682  2.2436  2.3284
 6713TIP3    H241555   3.668   3.041  14.372  0.0448 -2.6599 -0.7844
 6714TIP3   OH241556   2.597   3.069  10.958  0.2978  0.3989 -0.0700
 6714TIP3    H141557   2.561   3.106  11.038  0.2958 -1.5244  0.8954
 6714TIP3    H241558   2.525   3.019  10.920  0.4153  0.9761 -1.0670
 6715TIP3   OH241559   2.607   0.063   1.831 -0.3312 -0.5521 -0.1718
 6715TIP3    H141560   2.696   0.090   1.809 -0.5095 -0.5306 -0.8913
 6715TIP3    H241561   2.589  -0.011   1.773 -0.3662 -1.3101  0.7882
 6716TIP3   OH241562   5.050   5.354   2.866  0.1784 -0.1037 -0.1850
 6716TIP3    H141563   5.015   5.437   2.835 -0.2099  0.2879  1.2394
 6716TIP3    H241564   5.126   5.378   2.919  0.6085 -0.7283 -0.4981
 6717TIP3   OH241565   5.620   4.186   0.223  0.3578  0.1502  0.2866
 6717TIP3    H141566   5.644   4.121   0.288 -1.4894 -0.3314  0.5392
 6717TIP3    H241567   5.680   4.170   0.150  0.6900 -1.0807  0.8048
 6718TIP3   OH241568   3.240   1.277   1.385 -0.2935  0.3168 -0.3387
 6718TIP3    H141569   3.173   1.301   1.449  1.5111  1.1199  1.3440
 6718TIP3    H241570   3.260   1.185   1.406 -0.5851  0.1928 -0.5938
 6719TIP3   OH241571   2.061   3.507  10.562  0.0534 -0.1008  0.0298
 6719TIP3    H141572   2.086   3.437  10.622  0.2049  0.3426  0.4960
 6719TIP3    H241573   1.966   3.502  10.557  0.1577 -1.5482 -1.4439
 6720TIP3   OH241574   6.355   3.979   0.414  0.5299 -0.0191 -0.0974
 6720TIP3    H141575   6.264   4.003   0.435  0.8745 -0.2051  1.8765
 6720TIP3    H241576   6.376   4.030   0.336 -1.3449 -0.1630 -0.7552
 6721TIP3   OH241577   0.322   6.205   5.674  0.8456  0.3768 -0.3584
 6721TIP3    H141578   0.247   6.246   5.631  1.5631  0.7332 -1.3224
 6721TIP3    H241579   0.316   6.235   5.765 -1.2919 -1.2333  0.1065
 6722TIP3   OH241580   2.236   2.016  14.771  0.4263 -0.3007  0.0908
 6722TIP3    H141581   2.294   2.089  14.790 -1.4793  1.9377 -1.9236
 6722TIP3    H241582   2.165   2.024  14.835  0.5375 -0.8232  0.2867
 6723TIP3   OH241583   5.192   0.617  13.126 -0.0814  0.4157 -0.5185
 6723TIP3    H141584   5.261   0.566  13.084 -0.1979  0.2601 -0.5229
 6723TIP3    H241585   5.200   0.704  13.088  0.6031  0.6086  0.0369
 6724TIP3   OH241586   6.186   4.171   3.373  0.1511 -0.4477 -0.0987
 6724TIP3    H141587   6.098   4.191   3.341 -0.1579  0.2567  1.1465
 6724TIP3    H241588   6.224   4.256   3.393  2.0347 -0.5310 -2.8367
 6725TIP3   OH241589   6.187   5.950  14.604 -0.3953  0.0303  0.1395
 6725TIP3    H141590   6.232   6.025  14.643  1.2319 -0.3937 -0.8079
 6725TIP3    H241591   6.153   5.900  14.678 -1.2924  1.5587  0.7873
 6726TIP3   OH241592   4.095   4.478  15.514  0.7204  0.3146  0.1524
 6726TIP3    H141593   4.026   4.420  15.549  2.1066 -1.0127  0.8228
 6726TIP3    H241594   4.149   4.499  15.591  1.8599  0.1591 -0.5842
 6727TIP3   OH241595   1.712   4.183   3.198  0.4000  0.3156 -0.0301
 6727TIP3    H141596   1.751   4.196   3.284 -0.8937 -1.5507  0.8979
 6727TIP3    H241597   1.626   4.225   3.203 -1.0072 -2.4226  0.7554
 6728TIP3   OH241598   2.759   0.694  14.832  0.7270 -0.3763 -0.2941
 6728TIP3    H141599   2.683   0.672  14.778 -0.0465  0.7625  0.2797
 6728TIP3    H241600   2.745   0.786  14.857  0.4947 -1.0962  2.6784
 6729TIP3   OH241601   6.402   5.208   2.522 -0.1310  0.7998 -0.3116
 6729TIP3    H141602   6.321   5.172   2.557  0.1428  1.3104  0.8790
 6729TIP3    H241603   6.454   5.132   2.498 -0.8589  0.4653 -0.8685
 6730TIP3   OH241604   6.606   3.836   5.685  0.1921  0.2992 -0.0538
 6730TIP3    H141605   6.624   3.916   5.736 -1.2598  0.2103  0.6636
 6730TIP3    H241606   6.611   3.766   5.750 -2.5288  0.2658  0.2661
 6731TIP3   OH241607   6.674   2.853   2.800 -0.2470 -0.1618 -0.2038
 6731TIP3    H141608   6.684   2.853   2.705  0.0442 -0.2320 -0.1755
 6731TIP3    H241609   6.644   2.942   2.820 -0.5116 -0.2093 -0.3784
 6732TIP3   OH241610   0.881   0.118  13.326  0.5557 -0.0526  0.3627
 6732TIP3    H141611   0.951   0.163  13.372 -0.7612  2.7706 -0.2016
 6732TIP3    H241612   0.804   0.132  13.381 -0.1276 -0.6176 -0.4345
 6733TIP3   OH241613   2.405   0.688   1.684 -0.3089  0.1880  0.6494
 6733TIP3    H141614   2.449   0.662   1.765  0.5680  1.8025  0.7448
 6733TIP3    H241615   2.423   0.617   1.622  0.0092 -0.5059  1.5245
 6734TIP3   OH241616   1.137   2.429  11.451  0.3381  0.2607 -0.8036
 6734TIP3    H141617   1.086   2.369  11.397 -0.4789  0.7323 -0.5865
 6734TIP3    H241618   1.228   2.412  11.427  0.1109 -0.8587 -0.9425
 6735TIP3   OH241619   2.569   2.973  13.444  0.1268  0.4939  0.2124
 6735TIP3    H141620   2.537   3.046  13.498  1.0564  0.5418  0.7148
 6735TIP3    H241621   2.623   2.921  13.504 -0.8950 -0.8718 -0.0245
 6736TIP3   OH241622   2.941   2.847  16.448 -0.2134  0.3565 -0.3513
 6736TIP3    H141623   2.939   2.822  16.540  0.9390  0.0565 -0.3902
 6736TIP3    H241624   2.956   2.765  16.401  1.6166  0.7986 -0.6169
 6737TIP3   OH241625   3.745   1.239  14.754 -0.3438 -0.2543 -0.2625
 6737TIP3    H141626   3.802   1.191  14.814 -2.3456 -1.3279  0.8880
 6737TIP3    H241627   3.720   1.175  14.687 -0.6504  0.0284 -0.4239
 6738TIP3   OH241628   2.031   6.673  11.545  0.3461 -0.0013 -0.0565
 6738TIP3    H141629   2.028   6.592  11.495 -2.1289 -0.2832  0.4145
 6738TIP3    H241630   1.972   6.658  11.619  1.3432  1.5570  1.1253
 6739TIP3   OH241631   4.288   5.810   4.767  0.0776  0.0553  0.0360
 6739TIP3    H141632   4.195   5.786   4.761  0.2864 -1.1071  1.0925
 6739TIP3    H241633   4.291   5.901   4.739 -1.4487  0.2296  0.3637
 6740TIP3   OH241634   6.396   5.788   2.348  0.2821  0.7747  0.0585
 6740TIP3    H141635   6.353   5.737   2.416  0.2024  1.3215  0.4320
 6740TIP3    H241636   6.471   5.735   2.321  0.7209  0.8613  1.0754
 6741TIP3   OH241637   6.128   3.184  14.454 -0.6048 -0.4660 -0.1604
 6741TIP3    H141638   6.053   3.166  14.511 -0.5969  1.0069  0.3429
 6741TIP3    H241639   6.106   3.140  14.371 -1.3125 -1.3348  0.4690
 6742TIP3   OH241640   4.420   3.298   0.613  0.2704 -0.7951 -0.2818
 6742TIP3    H141641   4.407   3.203   0.613  1.1262 -0.9250 -0.8082
 6742TIP3    H241642   4.501   3.312   0.662  0.3894 -0.3779 -0.5876
 6743TIP3   OH241643   0.255   1.774   4.093 -0.7933 -0.1782 -0.3890
 6743TIP3    H141644   0.192   1.845   4.086 -0.8563 -0.2298 -0.3336
 6743TIP3    H241645   0.301   1.791   4.175 -1.8797 -1.0897  0.4321
 6744TIP3   OH241646   0.018   0.754   2.790  0.3007  0.4134  0.0880
 6744TIP3    H141647  -0.016   0.761   2.879  1.0219 -0.4325  0.4372
 6744TIP3    H241648   0.052   0.665   2.783 -0.7594  0.0734 -1.4063
 6745TIP3   OH241649   5.764   2.511   1.524 -0.4408  0.2194  0.1097
 6745TIP3    H141650   5.785   2.418   1.535 -0.3687  0.2861  0.5832
 6745TIP3    H241651   5.800   2.552   1.603  2.0998  1.0868 -1.4069
 6746TIP3   OH241652   2.703   3.535  15.198 -0.4165  0.5589 -0.1506
 6746TIP3    H141653   2.661   3.621  15.211 -0.6925  0.2969  0.7465
 6746TIP3    H241654   2.659   3.477  15.259  1.3217  0.2827  0.8999
 6747TIP3   OH241655   4.096   3.486  13.908 -0.0171  0.1409  0.9374
 6747TIP3    H141656   4.004   3.500  13.929  0.5721 -0.0079  4.1530
 6747TIP3    H241657   4.128   3.571  13.878 -1.2269  0.0819 -0.6560
 6748TIP3   OH241658   3.112   5.565   0.721  0.3603  0.0391 -0.1413
 6748TIP3    H141659   3.087   5.478   0.688  1.6280 -0.9468  1.3502
 6748TIP3    H241660   3.155   5.608   0.648 -0.3586 -0.5418 -0.9248
 6749TIP3   OH241661   1.472   6.166   0.784  0.0066 -0.2200  0.1496
 6749TIP3    H141662   1.506   6.081   0.809  1.0656  0.4128  0.9354
 6749TIP3    H241663   1.377   6.158   0.795  0.1966 -0.8952  1.4741
 6750TIP3   OH241664   6.143   3.248   2.576  0.4354 -0.2722  0.0669
 6750TIP3    H141665   6.105   3.178   2.522 -1.6666  1.4809 -0.8378
 6750TIP3    H241666   6.114   3.329   2.535  1.2272  1.1586  2.1813
 6751TIP3   OH241667   3.143   0.529   2.896  0.0237 -0.9265  0.6416
 6751TIP3    H141668   3.064   0.534   2.842  0.1992 -0.6419  0.4081
 6751TIP3    H241669   3.175   0.439   2.883 -0.1283 -0.9670  0.5453
 6752TIP3   OH241670   2.965   0.740  15.176  0.4023  0.1491  0.5831
 6752TIP3    H141671   3.019   0.719  15.100  0.0714  0.2566  0.3212
 6752TIP3    H241672   3.003   0.687  15.247  0.4711 -0.2421  0.2579
 6753TIP3   OH241673   1.505   3.495  14.999  0.0235 -0.4013 -0.0254
 6753TIP3    H141674   1.537   3.527  15.083  1.1962 -0.5781 -0.3795
 6753TIP3    H241675   1.572   3.524  14.936 -0.6795 -0.5306 -0.8477
 6754TIP3   OH241676   5.613   2.749   0.746 -0.3519 -0.2507 -0.1335
 6754TIP3    H141677   5.629   2.827   0.692  0.7918 -0.2941  0.1128
 6754TIP3    H241678   5.518   2.747   0.757 -0.4348  0.9064 -0.4363
 6755TIP3   OH241679   6.429   6.111   3.560 -0.2084  0.1385 -0.4847
 6755TIP3    H141680   6.421   6.164   3.481 -1.8858 -0.0605 -0.4777
 6755TIP3    H241681   6.339   6.093   3.586  0.3203 -0.3397  1.1176
 6756TIP3   OH241682   0.216   3.433   1.147  0.0332  0.0553  0.3588
 6756TIP3    H141683   0.235   3.443   1.054 -0.0794 -0.8792  0.2276
 6756TIP3    H241684   0.152   3.502   1.166  0.1600  0.3387 -0.2151
 6757TIP3   OH241685   3.966   3.651  13.251  0.0046  0.1037  0.4102
 6757TIP3    H141686   4.027   3.587  13.215  0.6337  0.9414 -0.0526
 6757TIP3    H241687   3.895   3.655  13.187  0.0894  0.0665  0.3145
 6758TIP3   OH241688   6.318   0.170   0.231 -0.0076 -0.1938 -0.5115
 6758TIP3    H141689   6.318   0.223   0.152 -2.2178  2.1158  0.8830
 6758TIP3    H241690   6.334   0.233   0.302  2.2127 -2.2174  0.9357
 6759TIP3   OH241691   0.037   5.916  11.210 -0.3637  0.1529  0.4282
 6759TIP3    H141692  -0.009   5.945  11.131  0.8708 -1.6350 -1.0277
 6759TIP3    H241693   0.009   5.978  11.278  0.6415  3.5893 -1.9907
 6760TIP3   OH241694   3.774   4.026   5.169 -0.3859  0.3916  0.0478
 6760TIP3    H141695   3.812   4.014   5.256  1.0708  0.7547 -0.4944
 6760TIP3    H241696   3.686   4.060   5.184 -0.0003  0.8403  1.3721
 6761TIP3   OH241697   5.276   3.550   1.377 -0.4225 -0.1293 -0.3665
 6761TIP3    H141698   5.357   3.518   1.337  1.9425  3.8403  0.6586
 6761TIP3    H241699   5.218   3.567   1.303 -0.6849 -3.5524 -1.0886
 6762TIP3   OH241700   0.676   0.663  15.748 -0.4163 -0.1288  0.5477
 6762TIP3    H141701   0.608   0.672  15.682  0.5209  0.4597 -0.3696
 6762TIP3    H241702   0.758   0.683  15.702  0.1625  1.3888  2.1103
 6763TIP3   OH241703   4.306   1.237  15.504  0.7269  0.4307  0.0589
 6763TIP3    H141704   4.304   1.222  15.409  4.1008 -0.8417  0.0660
 6763TIP3    H241705   4.341   1.326  15.513 -1.5420  1.3781  0.1883
 6764TIP3   OH241706   0.400   3.411  12.710  0.1463  0.1611 -0.4267
 6764TIP3    H141707   0.433   3.330  12.747  1.0514  1.5379  1.9816
 6764TIP3    H241708   0.461   3.432  12.639  0.4024 -0.8171 -0.4993
 6765TIP3   OH241709   1.558   3.835   1.546  0.2325 -0.5051  0.3750
 6765TIP3    H141710   1.584   3.766   1.486  0.3507 -0.8326  0.8040
 6765TIP3    H241711   1.567   3.916   1.495 -0.5069 -0.8480 -0.3301
 6766TIP3   OH241712   1.044   1.540   6.051  0.6637  0.6875  0.3260
 6766TIP3    H141713   1.122   1.559   6.105 -0.4463  0.4623  2.0792
 6766TIP3    H241714   1.033   1.445   6.058 -0.2760  0.8210  0.8727
 6767TIP3   OH241715   1.653   0.982  16.427  0.2416  0.1511 -0.2291
 6767TIP3    H141716   1.561   0.984  16.455  0.2037  0.0113 -0.3413
 6767TIP3    H241717   1.696   0.923  16.489  0.0712 -0.4963 -0.7179
 6768TIP3   OH241718   6.425   6.741  13.183 -0.4646 -0.1481 -0.3818
 6768TIP3    H141719   6.428   6.648  13.202  1.9510 -0.2394 -0.9017
 6768TIP3    H241720   6.333   6.764  13.191 -1.0621 -2.4740  0.1698
 6769TIP3   OH241721   3.026   0.587   4.564  0.9646  0.3426  0.0534
 6769TIP3    H141722   2.992   0.578   4.475  1.1048  0.7578 -0.0432
 6769TIP3    H241723   2.969   0.650   4.606 -0.0227 -0.9521  0.7358
 6770TIP3   OH241724   2.718   0.283   5.450 -0.1454 -0.4071  0.1132
 6770TIP3    H141725   2.694   0.204   5.499 -1.3593 -0.3154 -0.3077
 6770TIP3    H241726   2.753   0.250   5.367  0.9037 -0.5321  0.5908
 6771TIP3   OH241727   1.323   6.186  16.999 -0.3300  0.0379  0.2673
 6771TIP3    H141728   1.259   6.254  16.979  0.0241  0.1458 -0.5359
 6771TIP3    H241729   1.279   6.104  16.980  0.3022  0.1557 -2.0116
 6772TIP3   OH241730   5.743   1.150   4.250  0.2249  0.9320  0.1914
 6772TIP3    H141731   5.837   1.132   4.257  0.0917  0.0782 -0.0769
 6772TIP3    H241732   5.714   1.097   4.175 -0.2145  2.2535 -0.6150
 6773TIP3   OH241733   5.573   2.629  13.209 -0.4694  0.4933  0.0594
 6773TIP3    H141734   5.496   2.572  13.203 -0.2268  0.0190  1.2798
 6773TIP3    H241735   5.551   2.705  13.155 -1.2004 -0.3006 -0.7772
 6774TIP3   OH241736   3.842   4.125   5.727 -0.5467 -0.1035 -0.0124
 6774TIP3    H141737   3.810   4.111   5.816  1.0684  1.5229  0.8876
 6774TIP3    H241738   3.889   4.045   5.705 -0.4018 -0.2613  0.8678
 6775TIP3   OH241739   3.415   3.008   5.488  0.1294 -0.1630 -0.0800
 6775TIP3    H141740   3.398   3.067   5.415  0.5346 -0.2955 -0.2839
 6775TIP3    H241741   3.488   2.953   5.458  1.9160  1.3109  1.2592
 6776TIP3   OH241742   3.947   6.623  12.572 -0.2063  0.7072 -0.3765
 6776TIP3    H141743   3.997   6.596  12.649  1.2076  0.3354 -1.4002
 6776TIP3    H241744   3.995   6.698  12.537 -1.3067  1.4084 -0.4545
 6777TIP3   OH241745   5.327   3.041  11.801 -0.6738 -0.0652 -0.4955
 6777TIP3    H141746   5.319   3.104  11.729  0.7896  1.1978  0.3862
 6777TIP3    H241747   5.419   3.047  11.828 -1.4220  0.4093  2.2526
 6778TIP3   OH241748   4.955   6.685  13.023  0.8875  0.4223  0.1214
 6778TIP3    H141749   5.027   6.632  12.989 -1.1096 -2.0067 -0.5849
 6778TIP3    H241750   4.930   6.741  12.949  1.1697  0.2955 -0.0735
 6779TIP3   OH241751   3.023   4.045   5.631 -0.1142  0.4441 -0.6267
 6779TIP3    H141752   3.031   4.007   5.719 -0.9121  0.6553 -0.4448
 6779TIP3    H241753   3.057   3.978   5.572 -0.1844  0.0303 -0.2035
 6780TIP3   OH241754   4.138   6.445   6.177  0.2427 -0.4423 -0.0023
 6780TIP3    H141755   4.202   6.448   6.248  0.6036 -0.2798 -0.3315
 6780TIP3    H241756   4.060   6.489   6.212  1.0380  1.3112 -0.3206
 6781TIP3   OH241757   6.036   6.707   5.057 -0.4279  0.2477 -0.0974
 6781TIP3    H141758   6.071   6.738   4.973 -0.2265 -1.8805 -0.8643
 6781TIP3    H241759   5.947   6.742   5.060 -0.5873  0.0056 -1.4202
 6782TIP3   OH241760   3.902   4.633   3.802  0.7735 -0.0328 -0.2262
 6782TIP3    H141761   3.942   4.654   3.718  0.6435  0.9927 -0.0380
 6782TIP3    H241762   3.936   4.546   3.823  0.1256 -0.6858 -1.7391
 6783TIP3   OH241763   1.160   2.375   4.002  0.3064 -0.5293 -0.0833
 6783TIP3    H141764   1.234   2.430   4.027  1.5197 -1.9142 -0.4996
 6783TIP3    H241765   1.083   2.430   4.017  1.4238  1.0648  0.0319
 6784TIP3   OH241766   6.679   3.939   4.725 -0.8861  0.2111  0.0423
 6784TIP3    H141767   6.586   3.934   4.747 -0.7783 -0.9760  0.2645
 6784TIP3    H241768   6.685   4.014   4.666 -1.9655  0.3742  0.1200
 6785TIP3   OH241769   0.339   0.612   5.779  0.2697  0.6404  0.0810
 6785TIP3    H141770   0.358   0.581   5.868 -0.3773  1.6828  0.5979
 6785TIP3    H241771   0.393   0.690   5.768 -0.0184  0.7969 -0.2574
 6786TIP3   OH241772   0.307   4.836   0.159 -0.3930  0.4068  0.4024
 6786TIP3    H141773   0.276   4.747   0.145 -1.4620  0.8196  0.0425
 6786TIP3    H241774   0.353   4.858   0.077  0.4431 -0.0296  0.7429
 6787TIP3   OH241775   2.671   4.817  14.025  0.3297 -0.3179 -0.1053
 6787TIP3    H141776   2.597   4.835  13.968  1.6563 -0.1803 -1.8582
 6787TIP3    H241777   2.745   4.802  13.966  2.3787  2.2798  1.5228
 6788TIP3   OH241778   1.943   0.446  16.329  0.8543  0.2782  0.1351
 6788TIP3    H141779   1.905   0.527  16.292  0.3803  0.7045  1.4930
 6788TIP3    H241780   1.937   0.383  16.258  0.3848  1.1920 -0.6716
 6789TIP3   OH241781   2.567   5.038   6.585  0.3928  0.4315  0.4630
 6789TIP3    H141782   2.589   5.076   6.670  0.4510  1.1869  0.1137
 6789TIP3    H241783   2.616   4.955   6.583  0.2689  0.3332  1.2256
 6790TIP3   OH241784   1.736   4.558  15.785 -0.1583  0.1286  0.2995
 6790TIP3    H141785   1.699   4.623  15.846 -0.9719  0.0985 -0.1538
 6790TIP3    H241786   1.830   4.562  15.801 -0.3945 -0.3188  2.0003
 6791TIP3   OH241787   3.313   1.754   5.717  0.0140 -0.2074  0.4171
 6791TIP3    H141788   3.269   1.680   5.674 -0.5519  1.3279 -1.8379
 6791TIP3    H241789   3.321   1.820   5.648  2.2755  1.1192  1.8238
 6792TIP3   OH241790   0.694   5.644   4.798  0.1110  0.1264 -0.0813
 6792TIP3    H141791   0.752   5.594   4.855  1.4515  1.0063 -0.6268
 6792TIP3    H241792   0.733   5.636   4.711  1.0645  3.0217 -0.0187
 6793TIP3   OH241793   2.941   1.234   2.580 -0.0068 -0.7647 -0.1568
 6793TIP3    H141794   2.925   1.246   2.486  0.8426  1.4776 -0.0793
 6793TIP3    H241795   2.854   1.226   2.619 -0.4123 -0.7834 -1.0416
 6794TIP3   OH241796   3.453   0.398  11.612  0.5629  0.2019 -0.5611
 6794TIP3    H141797   3.419   0.324  11.662  1.5642 -0.0522 -0.2350
 6794TIP3    H241798   3.395   0.470  11.633  0.7591  0.0032  0.7096
 6795TIP3   OH241799   3.251   6.116  13.452 -0.2682 -0.1547 -0.7047
 6795TIP3    H141800   3.315   6.059  13.410  1.6124  0.8935  0.5398
 6795TIP3    H241801   3.270   6.108  13.546 -1.0543  1.2348 -0.3949
 6796TIP3   OH241802   3.598   3.625  12.977  0.2443  0.2197 -0.4138
 6796TIP3    H141803   3.555   3.650  12.895 -2.3776  0.1162  0.8344
 6796TIP3    H241804   3.527   3.594  13.033  2.0996 -0.7318  1.5478
 6797TIP3   OH241805   3.273   0.652  14.024 -0.5054  0.5087 -0.0225
 6797TIP3    H141806   3.301   0.617  14.108 -2.4414 -0.4398  0.2727
 6797TIP3    H241807   3.226   0.580  13.982 -0.1636  1.1816 -1.6273
 6798TIP3   OH241808   0.414   2.061   4.995  0.5687 -0.1296  0.8157
 6798TIP3    H141809   0.413   2.156   5.010  3.3148  0.3528 -1.3616
 6798TIP3    H241810   0.331   2.043   4.950  0.1392  1.2694  0.9973
 6799TIP3   OH241811   4.278   0.625  14.733  0.5102 -0.3773  0.7356
 6799TIP3    H141812   4.326   0.546  14.756  0.9641 -0.4055 -0.2835
 6799TIP3    H241813   4.333   0.696  14.767  0.9849 -0.4325  0.0889
 6800TIP3   OH241814   1.527   1.984   4.280  0.0880  0.0454 -0.2386
 6800TIP3    H141815   1.608   1.936   4.298 -0.7206 -1.9447 -1.4263
 6800TIP3    H241816   1.476   1.977   4.361 -0.1144 -1.4388 -0.4525
 6801TIP3   OH241817   4.395   4.099  12.256 -0.1306 -0.1711  0.1152
 6801TIP3    H141818   4.440   4.149  12.324  1.3253 -0.5055 -0.5601
 6801TIP3    H241819   4.323   4.155  12.228  1.6670  1.7343 -0.8862
 6802TIP3   OH241820   1.940   4.843   0.629 -0.3062  0.2580 -0.2738
 6802TIP3    H141821   1.873   4.853   0.696 -0.2422 -2.2686  0.2739
 6802TIP3    H241822   1.980   4.758   0.647  2.6434  1.3460 -0.9620
 6803TIP3   OH241823   5.261   0.039   1.630  0.0205 -0.5968  0.0542
 6803TIP3    H141824   5.184   0.061   1.683  0.6062  0.6963  0.4095
 6803TIP3    H241825   5.253  -0.055   1.613 -1.6021 -0.4922  0.1308
 6804TIP3   OH241826   1.296   0.765  10.649 -0.7879  0.2410  0.2923
 6804TIP3    H141827   1.281   0.673  10.627 -4.9830  0.4807  1.3172
 6804TIP3    H241828   1.266   0.813  10.571 -2.6628  0.7414  1.2619
 6805TIP3   OH241829   3.919   3.595   3.560 -0.3419 -1.1853 -0.2120
 6805TIP3    H141830   3.900   3.673   3.507  1.9516 -1.2815 -1.3108
 6805TIP3    H241831   3.993   3.554   3.515  0.8292 -2.0294  2.3346
 6806TIP3   OH241832   1.478   6.026  11.938 -0.3634  0.3045  0.2588
 6806TIP3    H141833   1.445   5.990  12.020 -1.0481 -1.4807 -0.7357
 6806TIP3    H241834   1.562   5.982  11.925 -0.6888 -0.1345 -0.4301
 6807TIP3   OH241835   1.866   5.961   6.652 -0.1844  0.0295  0.5615
 6807TIP3    H141836   1.926   6.020   6.697  1.2287 -2.2000  1.8012
 6807TIP3    H241837   1.786   5.964   6.704  0.3112 -0.0465  1.3510
 6808TIP3   OH241838   4.243   2.513  14.200  1.2038  0.2525  0.7220
 6808TIP3    H141839   4.329   2.490  14.234  1.1105  0.1309  0.8786
 6808TIP3    H241840   4.256   2.529  14.107  0.9122 -2.3931  0.1598
 6809TIP3   OH241841   6.595   1.159   0.548  0.2697  0.1553 -0.2800
 6809TIP3    H141842   6.572   1.243   0.588  3.2710  1.1088 -0.2524
 6809TIP3    H241843   6.597   1.098   0.622 -0.6237  0.3657 -0.0727
 6810TIP3   OH241844   6.249   0.588   0.552  0.6351 -0.0524 -0.0604
 6810TIP3    H141845   6.161   0.614   0.525  0.0919  0.1712  1.8434
 6810TIP3    H241846   6.274   0.651   0.619  1.1478 -1.7078  1.3792
 6811TIP3   OH241847   5.699   3.386  16.815  0.3300  0.0074  0.5761
 6811TIP3    H141848   5.701   3.479  16.839 -1.3537  0.9148 -2.2230
 6811TIP3    H241849   5.623   3.350  16.861 -1.0070  0.9389 -0.7716
 6812TIP3   OH241850   0.398   1.507  16.101 -0.0661  0.6719  0.0789
 6812TIP3    H141851   0.371   1.475  16.187 -0.0465  0.2829 -0.0598
 6812TIP3    H241852   0.324   1.490  16.044  0.3379 -0.0969 -0.2290
 6813TIP3   OH241853   4.748   0.193  11.707  0.0175  0.6737  0.1298
 6813TIP3    H141854   4.654   0.207  11.713  0.0262  0.0192  3.2743
 6813TIP3    H241855   4.760   0.098  11.715  0.9625  0.7268 -0.3804
 6814TIP3   OH241856   6.382   1.569  15.652  0.3910  0.2355 -0.0343
 6814TIP3    H141857   6.398   1.623  15.730  0.5374  0.4873 -0.2401
 6814TIP3    H241858   6.462   1.576  15.601  0.5814 -0.5288  0.1417
 6815TIP3   OH241859   2.581   5.678  13.639  0.5199 -0.0772  0.2941
 6815TIP3    H141860   2.611   5.768  13.652  2.5914 -0.6978  0.0766
 6815TIP3    H241861   2.654   5.634  13.597 -0.7523 -1.6951 -0.3263
 6816TIP3   OH241862   1.287   6.770   4.071 -0.2421  0.2084 -0.4108
 6816TIP3    H141863   1.309   6.863   4.062 -0.1540  0.1146 -1.2841
 6816TIP3    H241864   1.359   6.725   4.028  0.4476 -0.3404  1.2713
 6817TIP3   OH241865   5.505   5.291   4.665  0.5476 -0.1946  0.2275
 6817TIP3    H141866   5.429   5.342   4.637  0.4516 -1.0943 -1.2579
 6817TIP3    H241867   5.468   5.212   4.705  0.6032 -1.5267 -2.1544
 6818TIP3   OH241868   4.267   6.040  16.517  0.0026  0.0267 -0.0778
 6818TIP3    H141869   4.189   6.075  16.561 -0.5159  0.4629 -1.3067
 6818TIP3    H241870   4.260   5.945  16.529  0.0734  0.1536  1.0808
 6819TIP3   OH241871   4.178   2.096  12.003  0.1047 -0.0316 -0.2354
 6819TIP3    H141872   4.147   2.153  11.933  0.3144  1.6337  0.9666
 6819TIP3    H241873   4.116   2.022  12.003 -1.1030  0.9382 -0.8630
 6820TIP3   OH241874   0.895   1.738  15.388 -0.5098 -0.6358  0.5747
 6820TIP3    H141875   0.955   1.811  15.374 -1.6846  0.6247  1.7528
 6820TIP3    H241876   0.819   1.759  15.333 -0.5153 -1.4070  0.2816
 6821TIP3   OH241877   0.527   5.039   1.319 -0.1148  0.4599  0.4325
 6821TIP3    H141878   0.545   5.005   1.231 -1.2082 -0.4407  0.5364
 6821TIP3    H241879   0.503   4.962   1.370  0.3695  0.9983  1.5030
 6822TIP3   OH241880   1.771   5.925   6.414  0.1770  0.4764 -0.3854
 6822TIP3    H141881   1.826   5.935   6.492  1.2957  2.5063 -1.3501
 6822TIP3    H241882   1.686   5.898   6.448  0.5571  1.5413  1.5929
 6823TIP3   OH241883   0.779   3.258   4.444  0.4505 -0.0647  0.3713
 6823TIP3    H141884   0.789   3.163   4.445  0.1717 -0.0955  0.5106
 6823TIP3    H241885   0.835   3.288   4.373  0.3619 -0.3549  0.1769
 6824TIP3   OH241886   3.174   0.632  15.713  0.0245 -0.1191  0.1647
 6824TIP3    H141887   3.087   0.603  15.686 -0.4468 -0.5243  1.9513
 6824TIP3    H241888   3.161   0.664  15.802  1.9118 -1.2891  0.9148
 6825TIP3   OH241889   1.534   1.123   3.301 -0.7777  0.8876  0.3969
 6825TIP3    H141890   1.444   1.095   3.314  0.1638 -2.1790  0.9858
 6825TIP3    H241891   1.541   1.140   3.207 -1.6006 -0.3845  0.0777
 6826TIP3   OH241892   0.090   3.656  12.971 -0.2705 -0.2156  0.7234
 6826TIP3    H141893   0.139   3.731  12.937 -0.7514 -1.1762 -2.3961
 6826TIP3    H241894   0.001   3.689  12.983 -0.1690  0.0646  0.7105
 6827TIP3   OH241895   0.538   4.198   2.422 -0.0311  0.1180  0.1369
 6827TIP3    H141896   0.541   4.289   2.391  0.3380  0.0682  0.0275
 6827TIP3    H241897   0.446   4.174   2.413  0.3685 -0.6032 -3.0217
 6828TIP3   OH241898   1.885   6.564   4.306  0.6015 -0.0659  0.1403
 6828TIP3    H141899   1.948   6.586   4.375  1.6839 -2.4130  0.0115
 6828TIP3    H241900   1.898   6.471   4.291 -2.6051 -0.5557 -0.2905
 6829TIP3   OH241901   4.623   2.564  13.550  0.6395 -0.2058  0.5646
 6829TIP3    H141902   4.639   2.657  13.568  1.0035 -0.2865  0.6825
 6829TIP3    H241903   4.621   2.557  13.455  0.7114 -0.0892  0.5539
 6830TIP3   OH241904   0.521   0.754  16.512 -0.5373 -0.1660  0.4623
 6830TIP3    H141905   0.507   0.692  16.440  0.5731  1.7247 -1.5075
 6830TIP3    H241906   0.587   0.712  16.568  1.2374 -0.2542 -1.5741
 6831TIP3   OH241907   4.716   1.656  17.113 -0.5332 -0.0948  0.0466
 6831TIP3    H141908   4.637   1.680  17.064 -1.1311  0.8350  1.4074
 6831TIP3    H241909   4.687   1.588  17.173 -0.3023  0.2459  0.5469
 6832TIP3   OH241910   4.663   0.082   4.458 -0.3412  0.1823 -0.1512
 6832TIP3    H141911   4.669   0.029   4.538 -0.1466  0.9357  0.3443
 6832TIP3    H241912   4.665   0.172   4.489  1.0582  0.5057 -1.0986
 6833TIP3   OH241913   5.981   3.798  11.557 -0.3606 -0.4129 -0.0963
 6833TIP3    H141914   5.937   3.866  11.506 -1.1342 -1.6383 -1.1525
 6833TIP3    H241915   5.996   3.727  11.494 -0.7947 -1.7583  1.2489
 6834TIP3   OH241916   5.754   3.436  16.104  0.5371  0.9064 -0.0395
 6834TIP3    H141917   5.826   3.407  16.160  1.9792  1.0466 -1.7222
 6834TIP3    H241918   5.797   3.481  16.031 -1.3356  2.2017 -0.4342
 6835TIP3   OH241919   6.043   6.245  11.596  0.4342 -0.0371  0.1145
 6835TIP3    H141920   6.122   6.205  11.633  0.3601 -0.6661 -0.3843
 6835TIP3    H241921   6.030   6.325  11.647  1.2846 -0.0254  0.3290
 6836TIP3   OH241922   1.049   1.979   5.560 -0.0458 -0.0112 -0.2076
 6836TIP3    H141923   1.141   1.999   5.574 -0.0974  0.2358 -0.2106
 6836TIP3    H241924   1.013   2.058   5.518 -0.2003 -0.2069 -0.4441
 6837TIP3   OH241925   6.615   2.467   1.276  0.4408  0.0153 -0.8719
 6837TIP3    H141926   6.602   2.551   1.319  2.1633  0.3317 -0.9208
 6837TIP3    H241927   6.531   2.422   1.286  0.3221  0.6493  1.5109
 6838TIP3   OH241928   0.956   2.960  13.092 -0.7513  0.0827 -0.4049
 6838TIP3    H141929   0.946   3.051  13.120  2.2806  1.0952 -2.1551
 6838TIP3    H241930   0.879   2.943  13.038 -2.0470  1.1045  1.0445
 6839TIP3   OH241931   0.198   5.756   4.422  0.4204  0.1927 -0.3052
 6839TIP3    H141932   0.273   5.771   4.364  0.1707  2.0582 -0.2170
 6839TIP3    H241933   0.222   5.800   4.504  0.1998 -1.2450  0.5632
 6840TIP3   OH241934   6.116   3.008   2.744  0.7887  0.0067 -0.3290
 6840TIP3    H141935   6.136   3.101   2.736 -0.2564  0.4069  1.1961
 6840TIP3    H241936   6.043   2.994   2.684 -1.2978  0.9925  1.8208
 6841TIP3   OH241937   4.831   5.255  14.989  0.2587  0.4436  0.1783
 6841TIP3    H141938   4.900   5.201  15.029 -1.2962 -1.6423  0.2033
 6841TIP3    H241939   4.814   5.322  15.055 -0.8109 -1.7072  2.2651
 6842TIP3   OH241940   0.724   2.454  16.004 -0.0532  0.4583  0.3260
 6842TIP3    H141941   0.701   2.502  15.924 -2.3643  0.2292  0.7768
 6842TIP3    H241942   0.669   2.492  16.072  1.1525 -0.0201  1.6245
 6843TIP3   OH241943   6.245   6.184  16.041 -0.3461  0.8330 -0.1971
 6843TIP3    H141944   6.225   6.156  16.131 -0.9363 -0.7539 -0.7901
 6843TIP3    H241945   6.162   6.218  16.007 -0.8089 -0.9993 -0.9776
 6844TIP3   OH241946   5.039   4.706  13.201 -0.4519 -0.0907  0.1671
 6844TIP3    H141947   5.077   4.782  13.245  0.3416 -0.5321  0.2721
 6844TIP3    H241948   5.043   4.636  13.267  0.0656 -0.5655 -0.3479
 6845TIP3   OH241949   6.686   4.189  15.755  0.2491  0.0773 -0.5065
 6845TIP3    H141950   6.750   4.150  15.816  0.7691  3.3245  1.2611
 6845TIP3    H241951   6.739   4.228  15.686 -0.0090  0.4000 -0.5259
 6846TIP3   OH241952   2.329   4.624  15.544 -0.0291  0.3244  0.1505
 6846TIP3    H141953   2.370   4.692  15.598  1.7130 -1.8510  1.7648
 6846TIP3    H241954   2.382   4.623  15.463 -0.3502  1.1488 -0.0826
 6847TIP3   OH241955   6.736   5.553  13.046 -0.1717  0.4558 -0.2845
 6847TIP3    H141956   6.669   5.493  13.012 -0.6220  1.2432 -0.8348
 6847TIP3    H241957   6.759   5.518  13.131 -2.8595  1.3095  0.9158
 6848TIP3   OH241958   2.104   2.579  15.524 -0.0642 -0.5775  0.2441
 6848TIP3    H141959   2.057   2.568  15.441  0.0152 -1.5871  0.3123
 6848TIP3    H241960   2.166   2.505  15.525  1.5861  0.7432  0.1158
 6849TIP3   OH241961   4.098   0.857   0.542 -0.2391 -0.0947 -0.1827
 6849TIP3    H141962   4.039   0.909   0.596 -2.9883 -2.0292 -1.1183
 6849TIP3    H241963   4.046   0.832   0.466  1.4302 -2.7457 -0.6101
 6850TIP3   OH241964   5.520   2.054   0.842  0.0493 -0.1104 -0.6422
 6850TIP3    H141965   5.517   2.001   0.762 -0.2263  1.7738 -1.9396
 6850TIP3    H241966   5.436   2.099   0.844  0.3129  0.3451  0.3714
 6851TIP3   OH241967   1.828   0.483   0.588  0.1492  0.3150  0.0814
 6851TIP3    H141968   1.886   0.550   0.624  1.7934 -1.0815  0.1182
 6851TIP3    H241969   1.782   0.447   0.664  0.5917  0.1712  0.2821
 6852TIP3   OH241970   1.059   2.390  15.280  0.4479 -0.2164  0.6249
 6852TIP3    H141971   1.131   2.331  15.305  0.0344 -1.1871 -0.3750
 6852TIP3    H241972   1.066   2.463  15.341  0.1764 -1.9108  2.8129
 6853TIP3   OH241973   0.874   5.862   4.262 -0.1256 -0.1663 -0.6729
 6853TIP3    H141974   0.818   5.901   4.194 -0.5563  0.1527 -0.1449
 6853TIP3    H241975   0.838   5.895   4.344  0.6590 -0.2028 -0.3075
 6854TIP3   OH241976   6.379   2.338   5.997  0.5673 -0.2487 -0.2937
 6854TIP3    H141977   6.288   2.343   5.969  1.0628 -1.2929 -2.3124
 6854TIP3    H241978   6.419   2.420   5.967  1.0814 -1.3320 -2.8833
 6855TIP3   OH241979   4.737   1.673   4.507  0.2179  0.0123  0.2945
 6855TIP3    H141980   4.726   1.648   4.415  0.0993  0.5331  0.1618
 6855TIP3    H241981   4.666   1.628   4.553  1.1629 -1.4635  0.3735
 6856TIP3   OH241982   3.133   5.060  14.560  0.6516 -0.0941  0.2602
 6856TIP3    H141983   3.220   5.058  14.599  2.2019  4.5260 -2.1251
 6856TIP3    H241984   3.143   5.016  14.475  0.5740  0.0944  0.1511
 6857TIP3   OH241985   1.218   2.374  13.016  0.0428 -0.0790 -0.1589
 6857TIP3    H141986   1.197   2.448  12.958  2.2593  0.3320 -0.5291
 6857TIP3    H241987   1.312   2.363  13.007  0.1033 -1.4900  1.6750
 6858TIP3   OH241988   0.301   0.232  15.899 -0.1674 -0.2955  0.5688
 6858TIP3    H141989   0.253   0.307  15.863 -1.3227  0.0104  2.5551
 6858TIP3    H241990   0.353   0.269  15.971  0.0722 -1.2388  0.9007
 6859TIP3   OH241991   0.668   6.319   4.852 -0.2621  0.3511 -0.1850
 6859TIP3    H141992   0.675   6.279   4.765 -1.6160  1.9895 -1.1014
 6859TIP3    H241993   0.575   6.340   4.862 -0.4617 -1.3682  2.4362
 6860TIP3   OH241994   0.616   3.609   4.125 -0.2625 -0.0554 -0.2267
 6860TIP3    H141995   0.552   3.565   4.070 -1.0407  0.3903  0.3093
 6860TIP3    H241996   0.685   3.635   4.064 -0.3847 -0.8919 -0.7451
 6861TIP3   OH241997   3.820   6.409  16.342  0.3058 -0.1304 -0.0311
 6861TIP3    H141998   3.838   6.319  16.317  0.4770  0.2509 -1.3504
 6861TIP3    H241999   3.898   6.436  16.391 -0.5471 -1.2697  2.0728
 6862TIP3   OH242000   1.896   3.540   2.245 -0.5374 -0.2538  0.1115
 6862TIP3    H142001   1.833   3.593   2.196  0.3260  1.1025  0.4058
 6862TIP3    H242002   1.957   3.604   2.284  0.6206 -1.4676  0.3946
 6863TIP3   OH242003   3.294   2.787  16.562  0.3883  0.0678 -0.4423
 6863TIP3    H142004   3.202   2.773  16.587 -0.3193  1.1285 -2.2941
 6863TIP3    H242005   3.302   2.881  16.551  2.0398  0.1163  0.7770
 6864TIP3   OH242006   5.460   0.418  16.678 -0.1722 -0.0447  0.2430
 6864TIP3    H142007   5.467   0.491  16.617  0.9973 -0.1907  0.1877
 6864TIP3    H242008   5.438   0.459  16.762  0.0955  0.3359  0.1294
 6865TIP3   OH242009   1.142   0.921  15.105  0.0027 -0.1747  0.0940
 6865TIP3    H142010   1.128   0.828  15.117 -1.4408  0.1168  0.8821
 6865TIP3    H242011   1.220   0.941  15.156  0.6046 -1.0155 -0.4781
 6866TIP3   OH242012   5.994   5.643   2.097  0.3396 -0.0243  0.0879
 6866TIP3    H142013   5.948   5.572   2.052 -0.5510  0.6567 -0.1095
 6866TIP3    H242014   6.015   5.706   2.028  0.6938  0.1292  0.3312
 6867TIP3   OH242015   3.873   1.975  16.125 -0.1872 -0.2247 -0.3049
 6867TIP3    H142016   3.847   1.897  16.175  1.6437 -0.2715  0.6776
 6867TIP3    H242017   3.851   2.048  16.182  0.3619 -0.1744 -0.1563
 6868TIP3   OH242018   5.454   4.004   6.226  0.4020 -0.3747  0.1121
 6868TIP3    H142019   5.500   4.085   6.247  1.4999 -1.4316  2.1429
 6868TIP3    H242020   5.498   3.971   6.147  1.8005 -0.3104  0.8260
 6869TIP3   OH242021   2.322   6.580   3.678 -0.4145  0.3088 -0.2242
 6869TIP3    H142022   2.408   6.550   3.704  0.2753  1.5414 -0.9718
 6869TIP3    H242023   2.261   6.515   3.713  0.8298 -0.7099  0.0832
 6870TIP3   OH242024   4.583   3.758   0.070  0.9618  0.7509 -0.0044
 6870TIP3    H142025   4.530   3.817   0.017  2.6164  2.0861 -0.2611
 6870TIP3    H242026   4.568   3.786   0.160  0.4948  0.4836  0.0041
 6871TIP3   OH242027   5.087   5.838  12.602 -0.1985 -0.5576 -0.0116
 6871TIP3    H142028   4.995   5.826  12.628 -0.7200 -2.4391 -2.3909
 6871TIP3    H242029   5.136   5.776  12.655 -0.3967 -0.1740  0.6349
 6872TIP3   OH242030   0.328   6.664   0.527 -0.0041 -0.3527 -0.1616
 6872TIP3    H142031   0.265   6.735   0.511 -0.4349 -0.6742  0.0748
 6872TIP3    H242032   0.357   6.677   0.616  0.0834 -0.3416 -0.1923
 6873TIP3   OH242033   2.297   0.035   1.180  0.0977  0.3509 -0.6039
 6873TIP3    H142034   2.238   0.039   1.105 -1.4395 -4.0401  0.0526
 6873TIP3    H242035   2.306  -0.059   1.198  1.4639  1.1043  3.8857
 6874TIP3   OH242036   0.504   3.148  13.061  0.3857 -0.2098  0.1513
 6874TIP3    H142037   0.509   3.083  13.130  0.9373  0.3904  0.6957
 6874TIP3    H242038   0.416   3.185  13.069  0.6490  0.2797  0.9416
 6875TIP3   OH242039   6.222   0.635  11.223 -0.0559  0.0038  0.4437
 6875TIP3    H142040   6.227   0.719  11.177  1.1107  0.0725  0.6666
 6875TIP3    H242041   6.147   0.645  11.282 -0.1510  0.7508  0.2093
 6876TIP3   OH242042   4.602   3.102   4.126  0.6608  0.3171  0.4261
 6876TIP3    H142043   4.580   3.069   4.040  0.7211  0.4810  0.3471
 6876TIP3    H242044   4.678   3.159   4.111 -2.6336  5.0372 -0.3784
 6877TIP3   OH242045   3.869   2.201  15.940  0.0976  0.5282 -0.3611
 6877TIP3    H142046   3.892   2.108  15.948  2.4170  1.0289 -0.5532
 6877TIP3    H242047   3.929   2.246  15.999 -1.5698  1.8682  0.3730
 6878TIP3   OH242048   5.210   1.122   1.646  0.0245 -0.2279  0.1477
 6878TIP3    H142049   5.158   1.079   1.714  1.9755 -1.6090  0.8735
 6878TIP3    H242050   5.274   1.056   1.620  2.3428  1.7823  0.3484
 6879TIP3   OH242051   2.808   4.850   3.225  0.0959  0.0270 -0.7027
 6879TIP3    H142052   2.840   4.814   3.308  0.0800  2.1886  0.2980
 6879TIP3    H242053   2.865   4.811   3.158  1.1868 -0.4762  0.4845
 6880TIP3   OH242054   4.492   2.446   4.968  0.1042 -0.2405 -0.1360
 6880TIP3    H142055   4.485   2.352   4.985 -1.5885  0.1194  1.4296
 6880TIP3    H242056   4.423   2.464   4.905 -2.0098  0.4594  2.2179
 6881TIP3   OH242057   5.881   5.400   3.227 -0.2325  0.2267 -0.4445
 6881TIP3    H142058   5.909   5.325   3.279  0.4466  1.1622  0.5667
 6881TIP3    H242059   5.789   5.411   3.249 -0.9200 -1.5135 -2.1304
 6882TIP3   OH242060   4.466   1.369  13.706 -0.6060  0.1120 -0.2900
 6882TIP3    H142061   4.478   1.455  13.746  0.9698 -0.6363  0.9354
 6882TIP3    H242062   4.449   1.388  13.614 -1.9362  1.7839  0.2386
 6883TIP3   OH242063   4.113   6.617  16.176  0.5442  0.1674 -0.1202
 6883TIP3    H142064   4.056   6.662  16.114  2.0004  2.0989 -0.1537
 6883TIP3    H242065   4.056   6.552  16.217 -0.9542  0.1654 -2.0485
 6884TIP3   OH242066   0.833   1.379  15.883 -0.0613  0.3835 -0.1997
 6884TIP3    H142067   0.786   1.296  15.871 -0.1070  0.1433  1.4305
 6884TIP3    H242068   0.806   1.410  15.970 -1.1512  2.8359 -1.3019
 6885TIP3   OH242069   2.976   6.612   3.717 -0.9219 -0.1407  0.4028
 6885TIP3    H142070   2.973   6.623   3.622  0.1614 -1.0111  0.2502
 6885TIP3    H242071   2.894   6.651   3.748 -1.4251 -0.0976 -0.9060
 6886TIP3   OH242072   1.273   1.211   4.489  0.2399 -0.1168 -0.1981
 6886TIP3    H142073   1.341   1.152   4.457 -0.4473 -0.2500 -1.4816
 6886TIP3    H242074   1.315   1.261   4.559  2.8980  2.4436 -3.2528
 6887TIP3   OH242075   5.300   5.677  15.870  0.4689  0.2065 -0.1104
 6887TIP3    H142076   5.358   5.722  15.931 -2.4984  1.2800  2.1311
 6887TIP3    H242077   5.305   5.728  15.789  2.2302  0.5027  0.1436
 6888TIP3   OH242078   2.616   5.333   5.692  0.1004  0.1463  0.1023
 6888TIP3    H142079   2.588   5.282   5.768  0.6934 -0.7007 -0.2320
 6888TIP3    H242080   2.605   5.424   5.719 -2.3807 -0.1182  0.1921
 6889TIP3   OH242081   2.198   6.713  13.449 -0.4462 -0.4575 -0.6745
 6889TIP3    H142082   2.268   6.761  13.405  0.0570  1.2745  1.7623
 6889TIP3    H242083   2.244   6.642  13.496 -0.6562 -0.8504 -1.0630
 6890TIP3   OH242084   6.338   2.299  14.584 -0.0430 -0.0412 -0.2105
 6890TIP3    H142085   6.352   2.265  14.496 -0.7991 -1.4117  0.1702
 6890TIP3    H242086   6.257   2.258  14.613  1.5052 -1.7561  2.1064
 6891TIP3   OH242087   5.171   4.677  15.205 -0.2890 -0.0569 -0.4823
 6891TIP3    H142088   5.103   4.731  15.244 -0.1044  0.7415 -1.2232
 6891TIP3    H242089   5.245   4.736  15.193  0.4445 -0.8497  0.0630
 6892TIP3   OH242090   6.023   3.382  15.133 -0.8128  0.5227  0.1559
 6892TIP3    H142091   6.036   3.373  15.039  0.4059 -1.6211  0.4759
 6892TIP3    H242092   6.077   3.458  15.157 -0.0588  0.2811 -0.6911
 6893TIP3   OH242093   2.840   2.133  12.314  0.5391  0.2266 -0.3363
 6893TIP3    H142094   2.790   2.052  12.321  1.0353 -0.1292 -0.8935
 6893TIP3    H242095   2.881   2.143  12.400 -0.3675  0.4533  0.0835
 6894TIP3   OH242096   5.365   6.445  16.616 -0.3707 -0.2069  0.5932
 6894TIP3    H142097   5.426   6.372  16.624 -1.4342 -1.5492 -2.3270
 6894TIP3    H242098   5.289   6.408  16.572 -1.7186  2.2745  0.6750
 6895TIP3   OH242099   1.191   2.034   0.138 -0.3729 -0.2426  0.1553
 6895TIP3    H142100   1.228   1.955   0.099  1.2385 -0.5264  2.0589
 6895TIP3    H242101   1.107   2.047   0.094  0.0548 -2.1103 -1.2910
 6896TIP3   OH242102   2.318   1.258  15.957  0.1632  0.0451  0.2254
 6896TIP3    H142103   2.225   1.241  15.941 -0.2248  1.1387  1.1954
 6896TIP3    H242104   2.319   1.317  16.032  1.7208 -1.1189  1.1639
 6897TIP3   OH242105   0.817   6.451  15.880 -0.1093  0.4205  0.2537
 6897TIP3    H142106   0.862   6.530  15.851  0.5965  0.3740  1.1692
 6897TIP3    H242107   0.729   6.480  15.905 -0.0176  0.8270  0.1000
 6898TIP3   OH242108   2.504   2.229  16.969  0.1923  0.0675  0.0106
 6898TIP3    H142109   2.590   2.202  17.001  0.0253 -1.5349 -0.7653
 6898TIP3    H242110   2.524   2.284  16.893  0.5432  0.1401  0.1516
 6899TIP3   OH242111   3.403   4.667  12.648  0.6848 -0.4671 -0.1389
 6899TIP3    H142112   3.325   4.684  12.701  0.5716 -2.6827  0.5058
 6899TIP3    H242113   3.377   4.691  12.559  0.8467  3.2220  0.6590
 6900TIP3   OH242114   3.956   1.828   3.154  0.1026 -0.3349 -0.3947
 6900TIP3    H142115   3.985   1.919   3.160 -0.8323 -0.0795  0.6305
 6900TIP3    H242116   3.927   1.818   3.064  1.9188 -0.1702 -1.0295
 6901TIP3   OH242117   1.848   3.795   1.297 -0.3191 -0.1574  0.3613
 6901TIP3    H142118   1.860   3.868   1.236  0.4455 -0.9439 -0.4502
 6901TIP3    H242119   1.833   3.719   1.241  1.8007 -1.1724  1.0588
 6902TIP3   OH242120   1.227   3.937  11.850  0.2384  0.1465  0.2594
 6902TIP3    H142121   1.160   3.957  11.785  0.5189  0.8252  0.1623
 6902TIP3    H242122   1.264   3.854  11.822  0.4546  0.5011 -0.5411
 6903TIP3   OH242123   6.488   0.983  11.529 -0.2969  0.0370  0.1280
 6903TIP3    H142124   6.401   0.944  11.536 -0.5732  0.7098  0.5994
 6903TIP3    H242125   6.502   1.026  11.614  0.3358  0.2645 -0.0804
 6904TIP3   OH242126   1.918   0.278  12.174 -0.1770  0.0980  0.5493
 6904TIP3    H142127   1.898   0.337  12.101  1.0736  2.4070  1.9803
 6904TIP3    H242128   1.943   0.196  12.131 -0.7354  0.9621 -1.5681
 6905TIP3   OH242129   3.726   2.127   0.745 -0.3850 -0.0192  0.1965
 6905TIP3    H142130   3.729   2.222   0.731  0.5386 -0.1301 -0.4053
 6905TIP3    H242131   3.768   2.090   0.668 -0.0449 -0.8895  0.7897
 6906TIP3   OH242132   3.422   5.629   2.963  0.2603 -0.0661  0.0283
 6906TIP3    H142133   3.385   5.606   2.878 -1.6703 -1.9363  1.2907
 6906TIP3    H242134   3.493   5.567   2.977  1.1810  0.8189 -0.5541
 6907TIP3   OH242135   6.374   4.800  16.357 -0.7344 -0.2463  0.1495
 6907TIP3    H142136   6.432   4.856  16.408  1.0574 -2.3420  0.5560
 6907TIP3    H242137   6.333   4.859  16.293  2.3954  1.2211 -0.6700
 6908TIP3   OH242138   2.752   1.124   2.782 -0.1008  0.5031 -0.1616
 6908TIP3    H142139   2.741   1.029   2.787 -0.8211  0.2802 -3.4431
 6908TIP3    H242140   2.778   1.150   2.870 -1.1423 -2.5440  1.1815
 6909TIP3   OH242141   1.084   0.952   3.641 -0.3225  0.2862  0.0528
 6909TIP3    H142142   1.117   0.970   3.729  0.7367  1.4349 -0.5469
 6909TIP3    H242143   1.161   0.923   3.591 -0.6730  0.7188 -0.7679
 6910TIP3   OH242144   0.960   5.448  14.970 -0.2804 -0.3292  0.5963
 6910TIP3    H142145   0.919   5.507  14.907  0.1064 -0.9464 -0.2569
 6910TIP3    H242146   0.906   5.455  15.049 -1.7504 -0.7606 -0.3317
 6911TIP3   OH242147   1.874   4.694  16.164  0.0794  0.0935  0.3051
 6911TIP3    H142148   1.890   4.772  16.110  2.9824  0.9195  2.1755
 6911TIP3    H242149   1.802   4.720  16.222  0.2667  0.9622  0.1626
 6912TIP3   OH242150   2.035   4.863   0.928 -0.1050  0.2869  0.6938
 6912TIP3    H142151   1.976   4.823   0.992  0.0247 -1.6986 -0.3634
 6912TIP3    H242152   1.983   4.871   0.848 -0.2459  2.6838  0.9511
 6913TIP3   OH242153   4.241   3.150  13.336 -0.5085  0.3869  0.0049
 6913TIP3    H142154   4.332   3.181  13.338 -0.6087  0.7839 -0.8589
 6913TIP3    H242155   4.233   3.092  13.412  0.0940  1.3754  0.8471
 6914TIP3   OH242156   2.162   0.972   0.753 -0.5556  0.1948  0.5330
 6914TIP3    H142157   2.078   0.990   0.710  0.2569  2.0010 -0.4107
 6914TIP3    H242158   2.181   1.052   0.802 -0.7910 -1.3082  3.2731
 6915TIP3   OH242159   1.882   4.328   4.664 -0.0015 -0.2537 -0.0324
 6915TIP3    H142160   1.934   4.331   4.744  0.4284 -2.0079 -0.2024
 6915TIP3    H242161   1.794   4.354   4.691  0.4702  0.6471  0.6900
 6916TIP3   OH242162   3.647   2.302   6.473 -0.2854 -0.1977  0.8632
 6916TIP3    H142163   3.608   2.365   6.412 -0.8528 -1.0481  0.3217
 6916TIP3    H242164   3.705   2.355   6.528 -0.5558  0.7546  0.2658
 6917TIP3   OH242165   3.650   4.321  13.029  0.2716  0.1237  0.5923
 6917TIP3    H142166   3.641   4.366  13.113 -2.5060  0.8938 -0.0027
 6917TIP3    H242167   3.657   4.391  12.965  0.0725 -0.3962 -0.0088
 6918TIP3   OH242168   2.358   2.791   4.436 -0.5540  0.4258  0.1359
 6918TIP3    H142169   2.309   2.747   4.505  0.0099 -0.4735 -0.0159
 6918TIP3    H242170   2.292   2.820   4.373 -1.2630  2.7467  1.8025
 6919TIP3   OH242171   4.540   5.321   4.656  0.4373 -0.5004 -0.4165
 6919TIP3    H142172   4.476   5.300   4.725  0.5806 -0.3136 -0.2230
 6919TIP3    H242173   4.553   5.415   4.664 -0.4195 -0.2768 -1.4632
 6920TIP3   OH242174   4.339   3.029  13.761  0.2501 -0.3172  0.1346
 6920TIP3    H142175   4.281   3.023  13.836  0.6805 -0.4993  0.4541
 6920TIP3    H242176   4.375   3.118  13.765 -0.1968 -0.1193 -0.2070
 6921TIP3   OH242177   3.087   3.830  13.234 -0.2401 -0.2433 -0.1626
 6921TIP3    H142178   3.079   3.739  13.205 -0.3189 -0.4179  0.3974
 6921TIP3    H242179   3.177   3.854  13.212  0.4793 -1.1620  1.6282
 6922TIP3   OH242180   0.869   1.269  16.439  0.5875  0.5229 -0.1992
 6922TIP3    H142181   0.832   1.221  16.365 -3.4248 -0.9319  2.4167
 6922TIP3    H242182   0.836   1.359  16.428  0.0924  0.3395 -0.2281
 6923TIP3   OH242183   2.545   2.217   2.199 -0.1284 -0.3818  0.6601
 6923TIP3    H142184   2.551   2.144   2.138 -1.2947 -0.3490  0.4861
 6923TIP3    H242185   2.630   2.218   2.244  0.4715 -0.8574 -0.4365
 6924TIP3   OH242186   0.539   0.322  16.661  0.0174 -0.1394  0.0594
 6924TIP3    H142187   0.604   0.379  16.700  0.0746  0.4572 -0.8832
 6924TIP3    H242188   0.586   0.276  16.591 -0.2131 -0.7906  0.3220
 6925TIP3   OH242189   6.210   3.336   3.385  0.1589 -0.1045 -0.2712
 6925TIP3    H142190   6.133   3.320   3.330  0.3024  1.3668 -0.9440
 6925TIP3    H242191   6.262   3.399   3.336  2.7109 -2.3445 -0.6802
 6926TIP3   OH242192   1.305   5.854   0.026 -0.7141 -0.2255  0.3391
 6926TIP3    H142193   1.273   5.829   0.113 -1.7130 -1.0492 -0.2469
 6926TIP3    H242194   1.251   5.929   0.001 -1.4803 -0.9397 -0.1952
 6927TIP3   OH242195   5.021   6.140  16.010  0.5949  0.1024  0.1511
 6927TIP3    H142196   4.998   6.068  16.068 -1.5902  1.9143  1.7053
 6927TIP3    H242197   5.006   6.107  15.922 -0.4309 -1.3309  0.8332
 6928TIP3   OH242198   1.822   1.467   3.378  0.5587 -0.1648 -0.0355
 6928TIP3    H142199   1.906   1.511   3.367  1.2165 -1.2514  0.4906
 6928TIP3    H242200   1.787   1.500   3.460  0.9802 -0.5069  0.2833
 6929TIP3   OH242201   3.815   4.617  15.439 -0.1567  1.1010 -0.2861
 6929TIP3    H142202   3.861   4.563  15.503 -0.7398  0.6815 -0.2128
 6929TIP3    H242203   3.876   4.689  15.420  0.5441  0.5288 -0.2361
 6930TIP3   OH242204   6.593   5.815  13.088  0.3072 -0.1338  0.5487
 6930TIP3    H142205   6.643   5.733  13.083  0.9718  0.3404 -1.5994
 6930TIP3    H242206   6.547   5.820  13.004 -1.0656  0.9034  1.3205
 6931TIP3   OH242207   5.971   5.434   1.704  0.7952  0.4653  0.4153
 6931TIP3    H142208   6.016   5.479   1.632  1.0345  1.0489  0.9208
 6931TIP3    H242209   6.038   5.421   1.770 -0.0941  3.0900  2.0148
 6932TIP3   OH242210   3.077   6.342  14.750 -0.2037  0.4133 -0.5043
 6932TIP3    H142211   3.162   6.316  14.716 -0.3002 -0.8329  0.1425
 6932TIP3    H242212   3.018   6.272  14.721 -0.8750  0.9082 -0.3565
 6933TIP3   OH242213   6.125   4.931   4.889  0.0691 -0.3698 -0.0858
 6933TIP3    H142214   6.048   4.893   4.932 -0.2172 -0.6255 -0.8218
 6933TIP3    H242215   6.110   4.917   4.796  0.9523 -0.3077 -0.2394
 6934TIP3   OH242216   5.042   0.293   0.612 -0.3796 -0.5598  0.8303
 6934TIP3    H142217   5.011   0.203   0.614  2.4239 -1.7301  4.7071
 6934TIP3    H242218   4.985   0.339   0.673 -0.3877 -0.2827  0.6151
 6935TIP3   OH242219   4.614   0.405  15.442 -0.1570  0.2413  0.0939
 6935TIP3    H142220   4.682   0.360  15.391  1.0892  1.8600  0.2475
 6935TIP3    H242221   4.623   0.370  15.530 -0.1939 -0.2712 -0.1016
 6936TIP3   OH242222   1.894   3.491  15.278 -0.6069 -0.0803 -0.3469
 6936TIP3    H142223   1.929   3.579  15.290  0.0322 -0.4023  0.2160
 6936TIP3    H242224   1.904   3.473  15.185 -2.5022  1.1624 -0.8535
 6937TIP3   OH242225   5.586   2.126  13.876 -0.0908 -0.6088 -0.6521
 6937TIP3    H142226   5.673   2.145  13.912 -0.1497 -0.4399 -0.5978
 6937TIP3    H242227   5.573   2.033  13.894 -0.5870 -0.2958  0.7911
 6938TIP3   OH242228   1.215   2.805  16.997  0.5841  0.2234 -0.1287
 6938TIP3    H142229   1.258   2.777  16.916  0.9379  1.2043 -0.2940
 6938TIP3    H242230   1.133   2.756  16.999  1.3643 -1.1425 -0.1820
 6939TIP3   OH242231   6.682   4.014  15.203  0.7362  0.4622 -0.0546
 6939TIP3    H142232   6.647   3.969  15.279 -1.4319 -0.8885 -1.7395
 6939TIP3    H242233   6.750   3.955  15.169 -0.4558 -0.4781 -0.8920
 6940TIP3   OH242234   2.218   0.095  13.951 -0.2094  0.5240 -0.0685
 6940TIP3    H142235   2.250   0.119  13.865 -0.4309  0.3517 -0.2007
 6940TIP3    H242236   2.256   0.009  13.967  0.5376  0.9250  0.3780
 6941TIP3   OH242237   5.507   2.250   1.530  0.2834  0.3814  0.1381
 6941TIP3    H142238   5.588   2.200   1.536  0.8063  1.4067  2.4733
 6941TIP3    H242239   5.451   2.198   1.471  0.9922 -2.6616  1.9446
 6942TIP3   OH242240   4.735   2.324  14.891  0.0781  0.1082 -0.0342
 6942TIP3    H142241   4.733   2.229  14.895  0.3787  0.1370  1.4638
 6942TIP3    H242242   4.697   2.346  14.806 -3.1871 -1.2454  0.9453
 6943TIP3   OH242243   2.184   5.129  12.574  0.2328 -0.5199  0.3691
 6943TIP3    H142244   2.090   5.134  12.591  0.3384  0.8716  0.6157
 6943TIP3    H242245   2.190   5.120  12.478 -0.1474 -0.5384  0.3440
 6944TIP3   OH242246   3.707   0.497  13.760  0.4460  0.2235 -0.2305
 6944TIP3    H142247   3.693   0.507  13.666 -1.2729  0.0137 -0.0330
 6944TIP3    H242248   3.708   0.402  13.774  0.2293  0.2552  0.0093
 6945TIP3   OH242249   5.135   0.159  15.740 -0.1230 -0.5035 -0.3557
 6945TIP3    H142250   5.047   0.125  15.723  0.0017 -0.7038 -0.6145
 6945TIP3    H242251   5.162   0.197  15.657 -0.1472 -0.0286 -0.1461
 6946TIP3   OH242252   4.381   1.448   6.211  0.2428 -0.0231  0.4581
 6946TIP3    H142253   4.466   1.492   6.212 -0.0827  0.6323  0.4563
 6946TIP3    H242254   4.392   1.374   6.152  0.0351  1.7337 -1.9776
 6947TIP3   OH242255   6.224   3.167  12.130 -0.5752 -0.0205  0.4912
 6947TIP3    H142256   6.289   3.121  12.184 -0.5006 -1.3039 -0.6280
 6947TIP3    H242257   6.264   3.252  12.111  0.2026 -0.2801  0.9212
 6948TIP3   OH242258   5.632   2.665  13.746  0.7869 -0.3579 -0.1446
 6948TIP3    H142259   5.544   2.679  13.780  0.6594 -0.5027 -0.4147
 6948TIP3    H242260   5.619   2.630  13.658  1.1217  0.2827 -0.4563
 6949TIP3   OH242261   2.230   1.942  16.896  0.1414  0.1792 -0.3592
 6949TIP3    H142262   2.269   1.954  16.809  1.6837 -0.5277  0.1880
 6949TIP3    H242263   2.188   2.026  16.915 -0.2204  0.3447 -1.7839
 6950TIP3   OH242264   3.550   4.355   2.170 -0.0766 -0.1427 -0.6559
 6950TIP3    H142265   3.592   4.276   2.137  2.2919  0.3574  0.9339
 6950TIP3    H242266   3.501   4.326   2.248 -2.0402 -0.5529 -1.9654
 6951TIP3   OH242267   3.412   4.378   5.574  0.4875  0.0682  0.0760
 6951TIP3    H142268   3.501   4.345   5.587  1.1386  1.3119 -1.0275
 6951TIP3    H242269   3.388   4.417   5.658  0.1937 -1.9843  0.9957
 6952TIP3   OH242270   1.020   1.656   2.102  0.0017 -0.3678  0.7696
 6952TIP3    H142271   1.070   1.595   2.048  0.5778  0.0918  0.7847
 6952TIP3    H242272   1.078   1.731   2.115 -1.2797  0.9444 -0.6305
 6953TIP3   OH242273   5.669   3.255   6.034  0.1964  0.1515 -0.0056
 6953TIP3    H142274   5.615   3.333   6.038 -1.3591 -0.9308  1.6290
 6953TIP3    H242275   5.719   3.256   6.116 -0.6412 -1.0541  0.5600
 6954TIP3   OH242276   3.851   3.360   1.890  0.4119 -0.1729 -0.1947
 6954TIP3    H142277   3.873   3.298   1.821 -0.8167 -0.8863  0.0292
 6954TIP3    H242278   3.801   3.428   1.846 -1.3368 -1.1873  0.1212
 6955TIP3   OH242279   3.119   2.608   0.049 -0.0953  0.1369 -0.7242
 6955TIP3    H142280   3.063   2.532   0.040  0.8528 -0.7538  0.5974
 6955TIP3    H242281   3.137   2.635  -0.042 -1.8995 -0.0605 -1.1814
 6956TIP3   OH242282   2.831   3.398  13.429 -0.7122  0.3295  0.8534
 6956TIP3    H142283   2.918   3.431  13.451 -0.3350 -0.5408  0.7199
 6956TIP3    H242284   2.771   3.467  13.457 -0.0510  0.4860  1.9501
 6957TIP3   OH242285   0.365   0.397   5.096 -0.3496 -0.0814 -0.1077
 6957TIP3    H142286   0.333   0.326   5.040  0.4934 -1.1020  0.6578
 6957TIP3    H242287   0.310   0.393   5.174 -0.6805  0.5076 -0.2991
 6958TIP3   OH242288   6.203   0.659   2.995 -0.4017  0.3738  0.5364
 6958TIP3    H142289   6.240   0.574   2.971  1.0643  1.6036 -1.9754
 6958TIP3    H242290   6.245   0.682   3.078  1.0028 -0.3093  0.0275
 6959TIP3   OH242291   5.861   1.675  10.725 -0.6033 -0.4027 -0.0566
 6959TIP3    H142292   5.923   1.680  10.652 -0.3649 -4.3306 -0.3537
 6959TIP3    H242293   5.777   1.654  10.683 -0.9517 -0.4766  0.6641
 6960TIP3   OH242294   2.621   2.193   1.514 -0.3406  0.4968 -0.0751
 6960TIP3    H142295   2.711   2.224   1.519 -0.4830  0.9259 -0.0554
 6960TIP3    H242296   2.577   2.237   1.587 -1.3462  3.0445 -2.0315
 6961TIP3   OH242297   6.415   4.710  16.626  0.1221  0.2446  0.1470
 6961TIP3    H142298   6.423   4.658  16.545  0.3824 -0.5985  0.7009
 6961TIP3    H242299   6.420   4.801  16.596 -2.6928  0.0850 -1.1268
 6962TIP3   OH242300   2.234   3.462   0.184  0.2605 -0.1593 -0.1083
 6962TIP3    H142301   2.281   3.457   0.267  1.2670 -0.2187 -0.6639
 6962TIP3    H242302   2.248   3.377   0.142  0.1868  0.0462 -0.5627
 6963TIP3   OH242303   4.715   1.467  14.394 -0.3781  0.9629  0.1899
 6963TIP3    H142304   4.723   1.561  14.409 -2.4066  1.2838 -0.4248
 6963TIP3    H242305   4.724   1.428  14.481  1.2554  1.6134  0.3573
 6964TIP3   OH242306   2.064   4.650  14.220  0.2896  0.0733 -1.2026
 6964TIP3    H142307   2.143   4.602  14.245  1.1873  2.1634  0.2634
 6964TIP3    H242308   2.092   4.741  14.211 -1.7839  0.7519 -1.5630
 6965TIP3   OH242309   1.606   3.303  12.737 -0.0315 -0.2776  0.6369
 6965TIP3    H142310   1.616   3.223  12.787 -1.7327 -1.5452 -0.9138
 6965TIP3    H242311   1.525   3.290  12.687  0.1502  2.0173 -0.3727
 6966TIP3   OH242312   6.242   4.972   3.412  0.0955 -0.3835  0.3952
 6966TIP3    H142313   6.308   5.039   3.431  0.1256 -0.2676 -0.1042
 6966TIP3    H242314   6.166   5.022   3.381 -0.3125 -0.4993  1.1883
 6967TIP3   OH242315   1.689   0.808  10.901 -0.2456  0.3008 -1.0786
 6967TIP3    H142316   1.596   0.807  10.878 -0.8617 -1.8635  1.0526
 6967TIP3    H242317   1.731   0.753  10.835 -0.9798 -0.9093 -0.5793
 6968TIP3   OH242318   1.345   4.199  13.134 -0.4072  0.2731 -0.3648
 6968TIP3    H142319   1.436   4.222  13.155 -0.2417 -0.2750 -0.4869
 6968TIP3    H242320   1.294   4.231  13.209 -0.3877  2.4596 -1.1916
 6969TIP3   OH242321   1.963   2.358   0.557 -0.7347 -0.4466  0.4198
 6969TIP3    H142322   2.031   2.424   0.569  0.1669 -1.3049  0.1281
 6969TIP3    H242323   1.895   2.382   0.619  0.4878 -0.4010  1.7908
 6970TIP3   OH242324   2.111   3.665  13.865  0.0377  0.5048 -0.3995
 6970TIP3    H142325   2.117   3.577  13.828  0.0126  0.5206 -0.4400
 6970TIP3    H242326   2.076   3.719  13.795 -0.5700  0.4181 -0.1665
 6971TIP3   OH242327   3.635   0.028   6.211  0.3768 -0.2157 -0.1218
 6971TIP3    H142328   3.723   0.045   6.243  0.1519 -2.5721  2.0367
 6971TIP3    H242329   3.611  -0.057   6.248 -1.9385 -0.7684 -2.5436
 6972TIP3   OH242330   1.363   1.235  16.765 -0.0018 -0.1010 -0.3437
 6972TIP3    H142331   1.297   1.216  16.699 -1.2263 -1.1050  1.0780
 6972TIP3    H242332   1.321   1.212  16.848  1.5352  0.9112  0.7755
 6973TIP3   OH242333   2.059   6.602   1.652  0.3030  0.4819 -0.1495
 6973TIP3    H142334   2.062   6.533   1.718  0.7647 -0.1683 -0.8323
 6973TIP3    H242335   1.970   6.637   1.657 -0.3913 -1.1236 -0.7467
 6974TIP3   OH242336   2.818   2.612  16.654 -0.1469 -0.4147 -0.3914
 6974TIP3    H142337   2.776   2.539  16.699  0.2828 -0.8356 -0.6699
 6974TIP3    H242338   2.772   2.689  16.686 -0.9364 -0.8457 -0.4748
 6975TIP3   OH242339   4.208   4.741  15.788  0.2607 -0.5439  0.4097
 6975TIP3    H142340   4.257   4.660  15.772 -0.1301 -0.6882 -0.0998
 6975TIP3    H242341   4.122   4.711  15.819  0.1107 -0.3314  0.2065
 6976TIP3   OH242342   3.491   3.790   4.139  0.4662  0.3096  0.4954
 6976TIP3    H142343   3.567   3.733   4.137 -0.2483 -0.6739  0.4799
 6976TIP3    H242344   3.423   3.737   4.181 -0.3249  1.0157  0.1305
 6977TIP3   OH242345   2.888   5.475   0.412 -0.2267  0.1020  0.0318
 6977TIP3    H142346   2.812   5.524   0.445 -0.1766 -0.2904  0.7540
 6977TIP3    H242347   2.922   5.429   0.489  0.7723  0.2994 -0.2799
 6978TIP3   OH242348   2.782   2.407   2.535 -0.0648  0.1026  0.1028
 6978TIP3    H142349   2.769   2.428   2.627  0.1169 -0.0348  0.1596
 6978TIP3    H242350   2.710   2.346   2.515  0.4355 -0.5980  0.3999
 6979TIP3   OH242351   0.007   6.390  13.594  0.2592 -0.7964 -0.1991
 6979TIP3    H142352   0.076   6.449  13.626 -1.9063  0.6535  2.2476
 6979TIP3    H242353  -0.003   6.325  13.663 -0.5642 -1.1832 -0.6654
 6980TIP3   OH242354   5.521   1.147  13.803 -0.0240 -0.0946  0.0530
 6980TIP3    H142355   5.522   1.218  13.867  0.1849  1.1378 -1.2837
 6980TIP3    H242356   5.494   1.070  13.854  1.2731  0.5796  1.8637
 6981TIP3   OH242357   2.848   2.809  16.101 -0.5227 -0.0760  0.1569
 6981TIP3    H142358   2.884   2.746  16.163 -0.2410 -0.5759 -0.5006
 6981TIP3    H242359   2.768   2.842  16.143  0.4238  0.6849  1.4097
 6982TIP3   OH242360   5.847   0.862   3.188  0.3602  0.0488 -0.6353
 6982TIP3    H142361   5.865   0.952   3.159 -1.4002  0.2314 -1.2652
 6982TIP3    H242362   5.778   0.831   3.130  2.2721 -2.4646 -1.7455
 6983TIP3   OH242363   5.779   4.594  14.636 -0.2566 -0.4743 -0.3790
 6983TIP3    H142364   5.761   4.628  14.549 -0.3364  0.5921  0.0356
 6983TIP3    H242365   5.863   4.634  14.660  0.7886 -2.3297 -0.7452
 6984TIP3   OH242366   1.758   2.030  13.931 -0.9008 -0.4152 -0.7833
 6984TIP3    H142367   1.755   2.054  14.024 -0.7596  2.2060 -1.3602
 6984TIP3    H242368   1.672   1.992  13.913 -1.0429 -0.6635  0.3451
 6985TIP3   OH242369   1.883   1.273   4.538 -0.7119 -0.3171  0.3576
 6985TIP3    H142370   1.977   1.282   4.525 -0.7506 -0.2842  0.0989
 6985TIP3    H242371   1.859   1.349   4.592 -0.5673 -0.4081  0.5533
 6986TIP3   OH242372   4.222   6.679  11.301 -0.3264 -0.3249 -0.7135
 6986TIP3    H142373   4.210   6.695  11.394  0.9670 -0.4861 -0.5069
 6986TIP3    H242374   4.246   6.764  11.264 -0.8674 -0.2539 -0.9237
 6987TIP3   OH242375   4.630   4.612   1.085 -0.0674 -0.0018 -0.4204
 6987TIP3    H142376   4.645   4.630   1.178 -1.7857  0.8451 -0.2693
 6987TIP3    H242377   4.607   4.520   1.081 -0.3441  0.0410  0.0619
 6988TIP3   OH242378   3.472   6.497  17.159 -0.3212  0.0616  1.0109
 6988TIP3    H142379   3.536   6.426  17.157  0.0303  0.3046 -2.5108
 6988TIP3    H242380   3.417   6.477  17.235  1.6845 -2.1466  2.0326
 6989TIP3   OH242381   2.587   0.106  13.642  0.0907  0.3010 -0.4329
 6989TIP3    H142382   2.560   0.165  13.712 -0.3544  0.1870 -0.5088
 6989TIP3    H242383   2.536   0.026  13.657 -0.6716  0.5834 -1.3998
 6990TIP3   OH242384   3.876   3.782   0.334  0.2321 -0.0316  0.2333
 6990TIP3    H142385   3.891   3.764   0.427 -1.3084 -1.4433  0.2424
 6990TIP3    H242386   3.964   3.778   0.296  0.7686 -0.6254  1.4405
 6991TIP3   OH242387   4.380   2.883   0.895  0.2211  0.4766  0.0372
 6991TIP3    H142388   4.339   2.804   0.930  1.1782  0.1809  0.5180
 6991TIP3    H242389   4.349   2.953   0.952 -0.2426  0.3788 -0.0902
 6992TIP3   OH242390   1.459   4.847   2.707 -0.1350  0.4547 -0.4018
 6992TIP3    H142391   1.387   4.796   2.669 -1.5473  2.2942 -0.2927
 6992TIP3    H242392   1.519   4.780   2.741 -0.5851 -1.1847 -2.5820
 6993TIP3   OH242393   5.822   5.448   6.560 -0.1241 -0.9588  0.4400
 6993TIP3    H142394   5.912   5.478   6.554  0.8900 -3.6753  0.5871
 6993TIP3    H242395   5.780   5.508   6.621  1.7576 -0.0025  0.8537
 6994TIP3   OH242396   3.110   0.577  12.693 -0.2910 -0.3669 -0.3816
 6994TIP3    H142397   3.063   0.497  12.718 -1.3766 -0.2585 -1.9685
 6994TIP3    H242398   3.088   0.639  12.763 -0.5675 -1.0331  0.1399
 6995TIP3   OH242399   3.859   1.426  13.377 -0.0565  0.2503  0.0436
 6995TIP3    H142400   3.859   1.346  13.325  0.1756  0.8783 -0.9510
 6995TIP3    H242401   3.945   1.464  13.361 -0.7446  1.5210 -0.8104
 6996TIP3   OH242402   2.447   2.717   5.105 -1.1063  0.0010 -0.0394
 6996TIP3    H142403   2.526   2.759   5.072 -2.4881  2.0225 -1.0117
 6996TIP3    H242404   2.416   2.774   5.175 -2.0201 -0.4144 -0.0831
 6997TIP3   OH242405   0.830   3.336  12.354 -0.2933 -0.1099  0.3249
 6997TIP3    H142406   0.793   3.275  12.289 -0.5132 -0.7114  0.9944
 6997TIP3    H242407   0.781   3.317  12.435  0.0851  0.5097  0.7090
 6998TIP3   OH242408   1.056   0.896   2.956 -0.6837  0.5797 -0.6919
 6998TIP3    H142409   1.135   0.842   2.967 -0.4243  1.2383  0.8725
 6998TIP3    H242410   1.003   0.878   3.034 -1.1968  1.5936 -0.7912
 6999TIP3   OH242411   5.731   4.444   4.667 -0.4405  0.2819 -0.2293
 6999TIP3    H142412   5.734   4.349   4.659 -0.6652  0.2292  0.2956
 6999TIP3    H242413   5.823   4.472   4.664 -0.3659  0.0340 -0.2198
 7000TIP3   OH242414   2.523   3.562  14.022  0.4671 -0.5197  0.1544
 7000TIP3    H142415   2.547   3.505  14.094 -1.2984 -2.2960 -0.5487
 7000TIP3    H242416   2.497   3.644  14.063  2.9203 -0.2012  1.2047
 7001TIP3   OH242417   4.803   3.772   5.030  0.8157  0.4301 -0.1506
 7001TIP3    H142418   4.763   3.719   4.961  0.8284 -0.1789  0.3018
 7001TIP3    H242419   4.755   3.749   5.109  0.5468  1.4086 -0.0167
 7002TIP3   OH242420   1.833   4.360  14.859  0.0823 -0.2020 -0.3854
 7002TIP3    H142421   1.891   4.288  14.885  1.5088  0.5845 -1.2689
 7002TIP3    H242422   1.765   4.362  14.927  0.5536 -1.7524  0.1726
 7003TIP3   OH242423   0.999   1.639  14.967 -0.2128  0.4204  0.1588
 7003TIP3    H142424   1.076   1.689  14.938 -0.8345  0.7220 -1.0375
 7003TIP3    H242425   1.034   1.580  15.033  0.8215  1.4069  0.5499
 7004TIP3   OH242426   1.469   2.250  16.421 -0.8822  0.4063 -0.0106
 7004TIP3    H142427   1.461   2.263  16.516  0.2326  1.7545 -0.0768
 7004TIP3    H242428   1.515   2.166  16.413  0.5367  1.0859  0.7044
 7005TIP3   OH242429   5.496   5.978  12.561 -0.2264 -0.1940 -0.5364
 7005TIP3    H142430   5.487   6.073  12.551  0.2226 -0.1678 -0.6733
 7005TIP3    H242431   5.538   5.949  12.480 -0.8959 -0.5892 -0.7515
 7006TIP3   OH242432   1.636   3.392   0.801 -0.1998  0.6114  0.6839
 7006TIP3    H142433   1.615   3.448   0.877 -2.0661  1.2975 -0.2624
 7006TIP3    H242434   1.665   3.454   0.734  0.6685  0.0923  0.5770
 7007TIP3   OH242435   5.650   3.634   1.625 -0.0839 -0.0922  0.2628
 7007TIP3    H142436   5.626   3.654   1.535 -0.4688 -0.8800  0.1842
 7007TIP3    H242437   5.661   3.539   1.627  0.3957 -0.0317  0.9339
 7008TIP3   OH242438   1.682   1.091   5.723  0.5217  0.2525  0.0013
 7008TIP3    H142439   1.658   1.001   5.699  0.0701 -0.3804  2.5058
 7008TIP3    H242440   1.771   1.101   5.690 -0.3313 -0.1185 -2.6602
 7009TIP3   OH242441   3.098   0.174  15.896 -0.2183  0.2665 -0.4220
 7009TIP3    H142442   3.052   0.109  15.948  0.7817 -0.1505 -0.0332
 7009TIP3    H242443   3.087   0.144  15.805 -2.5871  1.3924 -0.5775
 7010TIP3   OH242444   2.795   2.858   1.973 -0.2123  0.1210  0.7746
 7010TIP3    H142445   2.706   2.879   1.947 -0.1530 -1.5543 -1.0213
 7010TIP3    H242446   2.826   2.797   1.906  2.4523  0.9861  1.0855
 7011TIP3   OH242447   4.648   2.604   0.598 -0.2587  0.0903 -0.1275
 7011TIP3    H142448   4.721   2.663   0.614  1.3949 -1.9575  0.3127
 7011TIP3    H242449   4.679   2.547   0.527 -2.5716  0.9507 -1.9605
 7012TIP3   OH242450   6.306   2.348  17.121  0.2920  0.3829 -0.1775
 7012TIP3    H142451   6.232   2.287  17.114  0.8563 -0.2943 -0.3610
 7012TIP3    H242452   6.265   2.432  17.141 -0.5060 -0.0482  0.0751
 7013TIP3   OH242453   3.949   2.536  12.379 -0.5650 -0.0572 -0.3509
 7013TIP3    H142454   4.018   2.507  12.320 -0.9681 -1.6969 -0.0774
 7013TIP3    H242455   3.994   2.557  12.460  0.2582  4.0109 -1.6313
 7014TIP3   OH242456   1.033   0.231   6.517  0.7031  0.1859  0.0073
 7014TIP3    H142457   1.067   0.152   6.476  1.1385 -0.2867  1.2357
 7014TIP3    H242458   0.942   0.210   6.539  0.2853  0.6498 -1.2257
 7015TIP3   OH242459   0.225   1.968  10.829  0.4308 -0.5444  0.4504
 7015TIP3    H142460   0.302   1.971  10.773 -0.4948 -1.3836 -0.9030
 7015TIP3    H242461   0.188   2.056  10.822 -0.0859 -0.8511 -0.8673
 7016TIP3   OH242462   2.148   2.160   0.353 -0.2457 -0.3406  0.4716
 7016TIP3    H142463   2.180   2.191   0.269  0.0007  0.3682  0.8162
 7016TIP3    H242464   2.054   2.176   0.351 -0.4159 -1.3198 -0.0765
 7017TIP3   OH242465   6.094   2.346   2.245 -0.0356  0.4371 -0.0442
 7017TIP3    H142466   6.087   2.378   2.155  0.7069  1.7190  0.3335
 7017TIP3    H242467   6.078   2.423   2.299 -1.2580 -0.4728  0.9522
 7018TIP3   OH242468   3.640   0.562  16.296 -0.1456  0.0422  0.2213
 7018TIP3    H142469   3.587   0.610  16.232  0.2229 -1.9226 -1.6976
 7018TIP3    H242470   3.650   0.475  16.257  0.7490 -1.0117  2.6558
 7019TIP3   OH242471   5.539   0.122  13.172 -0.3059 -0.3758 -0.2877
 7019TIP3    H142472   5.606   0.072  13.124  1.6967 -0.2188  2.1194
 7019TIP3    H242473   5.507   0.061  13.238 -0.3961  0.4666  0.4525
 7020TIP3   OH242474   6.239   3.889  15.233  0.0055 -0.2483 -0.9133
 7020TIP3    H142475   6.152   3.853  15.249 -0.1367  0.0878 -0.9224
 7020TIP3    H242476   6.256   3.869  15.141 -0.8169  1.2484 -1.4219
 7021TIP3   OH242477   6.419   2.337   1.898 -0.5507 -0.0447 -0.3492
 7021TIP3    H142478   6.352   2.283   1.938 -0.3067  1.0352  1.6423
 7021TIP3    H242479   6.488   2.344   1.965  1.0006 -0.1281 -1.8660
 7022TIP3   OH242480   3.458   2.795   6.242 -0.1441  0.0173  0.0673
 7022TIP3    H142481   3.386   2.834   6.193  0.2658  0.7377  0.0272
 7022TIP3    H242482   3.534   2.849   6.220  0.1395  0.0663  1.1371
 7023TIP3   OH242483   4.919   6.772  13.938 -0.7438 -0.4574  0.6237
 7023TIP3    H142484   4.852   6.768  14.006  0.2226  0.8064  1.7290
 7023TIP3    H242485   4.874   6.750  13.857 -2.4260  0.1261  1.3627
 7024TIP3   OH242486   4.977   4.419   4.670 -0.4932 -0.0591 -0.0856
 7024TIP3    H142487   4.920   4.344   4.657 -0.2947 -0.2102 -0.0915
 7024TIP3    H242488   4.924   4.481   4.720 -0.2408 -0.7162  1.0298
 7025TIP3   OH242489   1.161   6.130   0.342  0.3335  0.4148  0.1686
 7025TIP3    H142490   1.154   6.042   0.306  2.9065 -0.3666  1.3489
 7025TIP3    H242491   1.080   6.143   0.390 -1.0580 -0.3834 -1.8240
 7026TIP3   OH242492   0.195   1.006   4.939  0.0666 -0.4902 -0.0858
 7026TIP3    H142493   0.111   1.042   4.909  1.6386  1.2656 -2.8234
 7026TIP3    H242494   0.224   0.951   4.866  0.3566 -2.9364  1.7462
 7027TIP3   OH242495   1.258   4.262   6.608 -0.0656 -0.3483  0.6019
 7027TIP3    H142496   1.284   4.265   6.700  0.6908  4.0019  0.4376
 7027TIP3    H242497   1.326   4.211   6.565  0.7679 -0.5748  2.1292
 7028TIP3   OH242498   0.577   4.290   2.688 -0.0712  0.3918  0.3747
 7028TIP3    H142499   0.613   4.370   2.726  0.1210 -0.2438  1.5832
 7028TIP3    H242500   0.552   4.315   2.599  0.3638  1.6816  0.5903
 7029TIP3   OH242501   4.420   1.741   5.738 -0.3231  0.2332  0.0631
 7029TIP3    H142502   4.422   1.695   5.654  0.5656  0.3558  0.0076
 7029TIP3    H242503   4.383   1.827   5.718  2.9473  1.5563 -0.9071
 7030TIP3   OH242504   4.594   1.775  12.967  0.4601 -0.0697 -0.5644
 7030TIP3    H142505   4.538   1.734  12.901  2.6378  0.5989 -3.0177
 7030TIP3    H242506   4.682   1.767  12.931  1.6349  1.4943  1.7150
 7031TIP3   OH242507   5.314   6.270   4.001  0.3004  0.3536 -0.6738
 7031TIP3    H142508   5.255   6.200   3.973  0.1304  0.6035 -0.9388
 7031TIP3    H242509   5.258   6.347   4.012  0.3166  0.2091  0.5995
 7032TIP3   OH242510   1.081   5.204  14.057  0.3287  0.0259 -0.1958
 7032TIP3    H142511   1.115   5.138  14.117 -2.4516 -0.5232  0.9514
 7032TIP3    H242512   1.158   5.254  14.030  1.8447  0.1606  3.6656
 7033TIP3   OH242513   4.957   3.116   5.841  0.2063 -0.0638  0.0986
 7033TIP3    H142514   5.021   3.049   5.819  0.3485 -0.6514  2.0927
 7033TIP3    H242515   5.004   3.176   5.899 -0.6463  0.3103  0.4249
 7034TIP3   OH242516   5.060   6.583   2.408  0.5145 -0.2501 -0.4867
 7034TIP3    H142517   5.010   6.524   2.464 -0.8281  0.5715 -0.7805
 7034TIP3    H242518   5.069   6.664   2.458 -0.3871  0.3669 -1.2701
 7035TIP3   OH242519   3.925   4.291   4.715 -0.3856 -0.0462 -0.4307
 7035TIP3    H142520   3.994   4.293   4.780 -0.2720  0.6805 -0.5665
 7035TIP3    H242521   3.923   4.379   4.678 -3.2902  0.8717  1.5784
 7036TIP3   OH242522   2.743   4.436   6.297 -0.0688  0.6787 -0.0998
 7036TIP3    H142523   2.804   4.366   6.318 -1.6358 -0.7598 -0.1342
 7036TIP3    H242524   2.681   4.436   6.370  0.2250  2.4464  0.1916
 7037TIP3   OH242525   4.733   0.895   1.762  0.1434 -0.2214 -0.0914
 7037TIP3    H142526   4.780   0.955   1.820  0.4543 -0.2499 -0.3120
 7037TIP3    H242527   4.782   0.898   1.680  1.4964 -2.5078  0.5790
 7038TIP3   OH242528   3.207   2.456   4.129  0.1592 -0.1414  0.6057
 7038TIP3    H142529   3.282   2.515   4.136  1.9109 -2.2401  0.3833
 7038TIP3    H242530   3.171   2.474   4.042 -0.7755  2.1453  1.3994
 7039TIP3   OH242531   1.042   5.449  15.290  0.0788  0.9009  0.4637
 7039TIP3    H142532   1.118   5.391  15.300  0.4031  1.4085  0.9737
 7039TIP3    H242533   0.968   5.399  15.324  0.2922  0.6514  0.5608
 7040TIP3   OH242534   6.722   2.086  13.942 -0.8092 -0.6848 -0.0431
 7040TIP3    H142535   6.679   2.065  14.025 -0.1338 -1.0546  0.2215
 7040TIP3    H242536   6.790   2.019  13.932 -0.0217  0.1108 -0.2435
 7041TIP3   OH242537   3.308   5.012  12.765  0.0965  0.0805  0.0447
 7041TIP3    H142538   3.312   5.107  12.779 -0.9814  0.3284 -1.1229
 7041TIP3    H242539   3.396   4.988  12.740  0.3494  0.7984  0.2127
 7042TIP3   OH242540   5.200   2.696  14.948 -0.0470  0.2638  0.4089
 7042TIP3    H142541   5.265   2.723  14.882 -1.8751 -1.1309 -2.1173
 7042TIP3    H242542   5.195   2.770  15.008  0.4191  2.4496 -2.0755
 7043TIP3   OH242543   2.869   2.314   1.592 -0.8144 -0.2750 -0.2529
 7043TIP3    H142544   2.916   2.375   1.535  1.0327  1.1422  2.5730
 7043TIP3    H242545   2.934   2.248   1.616  0.0296  1.6537  3.6411
 7044TIP3   OH242546   6.577   3.037  16.088 -0.0989  0.3477 -0.2119
 7044TIP3    H142547   6.597   3.041  16.181  2.3936  0.9495 -0.7077
 7044TIP3    H242548   6.500   2.980  16.082 -0.0914  0.0042  2.1513
 7045TIP3   OH242549   4.163   6.709  14.460  0.0996  0.1447 -0.1213
 7045TIP3    H142550   4.174   6.773  14.530  1.7858  1.5027 -1.5382
 7045TIP3    H242551   4.212   6.632  14.490 -0.8735 -0.0492  1.0350
 7046TIP3   OH242552   6.249   3.563   3.220 -0.4208  0.5259 -0.4070
 7046TIP3    H142553   6.211   3.617   3.289 -1.0045  0.7526 -0.8948
 7046TIP3    H242554   6.196   3.582   3.143 -0.2497 -0.2785 -0.7372
 7047TIP3   OH242555   1.836   4.763  13.303  0.0892 -0.1292 -0.2827
 7047TIP3    H142556   1.917   4.714  13.302 -0.3320 -0.8459 -0.0117
 7047TIP3    H242557   1.792   4.741  13.221 -0.9788 -1.7482  0.6623
 7048TIP3   OH242558   0.808   0.934   1.217  0.6188 -0.6087  0.0631
 7048TIP3    H142559   0.770   1.022   1.228  0.0292 -0.9728  1.0344
 7048TIP3    H242560   0.823   0.927   1.123 -1.8314 -0.4637 -0.4114
 7049TIP3   OH242561   1.632   5.345  15.691 -0.2862  0.1088 -0.1846
 7049TIP3    H142562   1.701   5.301  15.741 -1.3309 -0.8301  0.4625
 7049TIP3    H242563   1.609   5.283  15.622  1.2007  1.4275 -1.9644
 7050TIP3   OH242564   3.402   0.191  15.666 -0.4181 -0.4891  0.2110
 7050TIP3    H142565   3.401   0.213  15.759 -1.2595  1.0529 -0.1269
 7050TIP3    H242566   3.313   0.160  15.647 -0.2719 -0.7277 -0.1075
 7051TIP3   OH242567   2.517   0.788   0.989 -0.3070  0.1734  0.1077
 7051TIP3    H142568   2.584   0.764   1.053  0.0364  0.4695 -0.1348
 7051TIP3    H242569   2.468   0.707   0.973 -1.2427  0.3928  1.7176
 7052TIP3   OH242570   4.028   5.462  14.200 -0.5207 -0.6947  0.4455
 7052TIP3    H142571   4.085   5.517  14.146 -2.0624  0.3748 -0.1513
 7052TIP3    H242572   4.067   5.466  14.287  2.0707 -2.5241 -0.5058
 7053TIP3   OH242573   5.724   0.002   1.208 -0.3648 -0.0543  0.1955
 7053TIP3    H142574   5.795   0.061   1.233  1.9536 -2.2537 -0.7729
 7053TIP3    H242575   5.650   0.060   1.189  0.7329  2.2706  2.4480
 7054TIP3   OH242576   3.819   1.391   0.073  0.4817  0.1175  0.0634
 7054TIP3    H142577   3.830   1.432   0.159 -0.6352  0.0841  0.2360
 7054TIP3    H242578   3.734   1.423   0.042  1.4092  1.1329 -1.5927
 7055TIP3   OH242579   1.648   0.758  11.853  0.7883 -0.2147  0.3112
 7055TIP3    H142580   1.652   0.826  11.920  0.3939 -1.0697  1.2364
 7055TIP3    H242581   1.701   0.686  11.889 -0.1736 -1.0354  0.1240
 7056TIP3   OH242582   5.108   2.531  13.869 -0.1151 -0.3248 -0.1182
 7056TIP3    H142583   5.019   2.497  13.858  0.2355 -0.9887 -1.0222
 7056TIP3    H242584   5.103   2.587  13.947 -1.2683 -0.5261 -0.0315
 7057TIP3   OH242585   3.797   2.499  11.389  0.4832 -0.0765 -0.0527
 7057TIP3    H142586   3.721   2.450  11.357 -0.2885 -0.2139  1.8814
 7057TIP3    H242587   3.811   2.467  11.478  2.7944 -0.0132 -0.3144
 7058TIP3   OH242588   3.820   5.074   4.470  0.3293  0.3959  0.3286
 7058TIP3    H142589   3.858   5.000   4.518 -0.2845 -0.1996 -0.0813
 7058TIP3    H242590   3.893   5.112   4.422  0.8023  0.5279  1.1211
 7059TIP3   OH242591   1.974   0.932  11.518 -0.4334  0.7613 -0.4953
 7059TIP3    H142592   1.908   0.864  11.528  0.1864 -0.0571 -1.7095
 7059TIP3    H242593   2.056   0.884  11.507 -0.1537  1.6431 -2.6427
 7060TIP3   OH242594   2.539   6.508  15.163 -0.4448 -0.4082 -0.0761
 7060TIP3    H142595   2.522   6.601  15.151  0.0682 -0.1825  0.8447
 7060TIP3    H242596   2.603   6.504  15.233  0.2728 -1.4180 -0.7621
 7061TIP3   OH242597   4.802   0.410  16.572  0.7131 -0.0420  0.4870
 7061TIP3    H142598   4.868   0.347  16.544  2.0291  1.9065 -1.0309
 7061TIP3    H242599   4.724   0.357  16.590  1.8745 -2.1169 -0.3367
 7062TIP3   OH242600   4.803   2.631   3.507 -0.0799 -0.1491  0.6405
 7062TIP3    H142601   4.866   2.701   3.491  1.1843 -1.3907 -0.0443
 7062TIP3    H242602   4.857   2.553   3.519 -1.4413 -0.9998  1.5118
 7063TIP3   OH242603   6.754   0.439   3.168  0.5298 -0.6913  0.2239
 7063TIP3    H142604   6.803   0.372   3.121 -1.4987 -1.2701 -1.1758
 7063TIP3    H242605   6.695   0.477   3.103  1.1187  2.0126  1.1447
 7064TIP3   OH242606   6.093   2.942   1.951 -0.6798  0.1413 -0.9028
 7064TIP3    H142607   6.165   2.905   1.900  1.1334  0.4551  1.2764
 7064TIP3    H242608   6.110   3.037   1.952 -0.3988  0.1024  0.5919
 7065TIP3   OH242609   2.573   3.785   3.044 -0.2566 -0.2886  0.2282
 7065TIP3    H142610   2.523   3.842   2.986 -0.1318 -0.0081  0.3939
 7065TIP3    H242611   2.617   3.845   3.105 -0.1040 -0.5590  0.3869
 7066TIP3   OH242612   1.489   0.973   4.241  0.0439  0.1217 -0.3488
 7066TIP3    H142613   1.411   0.926   4.212 -0.4077  0.0937  0.8303
 7066TIP3    H242614   1.501   0.945   4.332  0.8642  0.8646 -0.2110
 7067TIP3   OH242615   5.233   5.895  10.485  0.2677  0.2786 -0.6002
 7067TIP3    H142616   5.138   5.908  10.476 -0.0697 -0.7838  1.0112
 7067TIP3    H242617   5.267   5.981  10.511 -0.3503  0.5157 -0.5579
 7068TIP3   OH242618   6.677   6.703   6.031 -0.2955  0.2527 -0.1936
 7068TIP3    H142619   6.710   6.785   6.067 -0.2016  0.2769 -0.3329
 7068TIP3    H242620   6.718   6.635   6.084  0.9146  0.2358 -1.1052
 7069TIP3   OH242621   2.080   1.224   2.021  0.1443 -0.5780 -0.8830
 7069TIP3    H142622   2.099   1.159   2.089  0.4002  0.0969 -0.2996
 7069TIP3    H242623   2.121   1.304   2.052 -2.0492  0.4593 -0.5065
 7070TIP3   OH242624   5.637   1.836   4.795 -0.4716 -0.0298 -0.0647
 7070TIP3    H142625   5.633   1.865   4.704  0.2824  0.4183  0.0318
 7070TIP3    H242626   5.726   1.858   4.823 -1.4041  2.0314  1.4956
 7071TIP3   OH242627   6.073   1.287   1.311 -1.0083  0.2546  0.1063
 7071TIP3    H142628   6.066   1.192   1.309 -0.9630  0.2523 -2.2990
 7071TIP3    H242629   5.987   1.317   1.340 -1.2548 -0.4977  0.1687
 7072TIP3   OH242630   6.125   2.321  12.225 -0.3343 -0.2160  0.3193
 7072TIP3    H142631   6.178   2.395  12.253 -0.8365  0.4721 -0.5272
 7072TIP3    H242632   6.038   2.337  12.264 -1.4209  1.4069 -2.5070
 7073TIP3   OH242633   5.767   1.282  16.634 -0.1097 -0.2331 -0.3134
 7073TIP3    H142634   5.736   1.234  16.711 -0.1861 -0.3113 -0.3928
 7073TIP3    H242635   5.689   1.327  16.601  0.0006  0.0919 -0.1334
 7074TIP3   OH242636   0.134   5.265   0.689 -0.0829 -0.2429  0.2644
 7074TIP3    H142637   0.099   5.353   0.705  1.1094  0.7286 -2.0186
 7074TIP3    H242638   0.229   5.275   0.699  0.1138 -1.1426 -0.5180
 7075TIP3   OH242639   4.098   0.725   1.401 -0.3021  0.7895  0.1159
 7075TIP3    H142640   4.114   0.751   1.310 -0.6108  1.5834  0.2832
 7075TIP3    H242641   4.154   0.648   1.414 -0.3477  0.5918 -0.7824
 7076TIP3   OH242642   5.204   0.488   3.231 -0.1399  0.2285 -0.1093
 7076TIP3    H142643   5.206   0.546   3.154  1.5592 -1.0516 -1.1068
 7076TIP3    H242644   5.258   0.413   3.205 -0.5252 -0.8047  1.9220
 7077TIP3   OH242645   4.864   5.575  14.065 -0.0431  0.3584  0.4933
 7077TIP3    H142646   4.835   5.511  14.001 -0.6825  0.9138  0.2137
 7077TIP3    H242647   4.937   5.532  14.111 -0.9523 -0.8798  0.8515
 7078TIP3   OH242648   3.369   3.710   4.530 -0.2197  0.0739 -0.2766
 7078TIP3    H142649   3.394   3.791   4.487  0.3812 -0.4516 -0.9373
 7078TIP3    H242650   3.402   3.719   4.620  1.5738 -0.2385 -0.8848
 7079TIP3   OH242651   6.650   2.518  13.722  0.2502  0.3022  0.6840
 7079TIP3    H142652   6.596   2.591  13.692 -0.5639 -0.7874 -0.6556
 7079TIP3    H242653   6.720   2.511  13.657 -0.6244 -1.1016 -0.1562
 7080TIP3   OH242654   6.316   2.239  15.136 -0.0671  0.5184 -0.8286
 7080TIP3    H142655   6.360   2.296  15.073  0.9590  0.4603 -0.1925
 7080TIP3    H242656   6.367   2.158  15.135  0.4191  0.7748  0.5858
 7081TIP3   OH242657   4.418   4.980  14.595 -1.1608  0.9486 -0.7497
 7081TIP3    H142658   4.464   5.064  14.584 -0.3615  0.4550 -1.2944
 7081TIP3    H242659   4.457   4.941  14.673  1.4789 -0.7461 -2.7257
 7082TIP3   OH242660   1.972   0.723   2.990  0.2740 -0.0340  0.3488
 7082TIP3    H142661   1.941   0.704   3.079 -1.5412  0.8989 -0.0450
 7082TIP3    H242662   1.992   0.816   2.990  1.2721 -0.2305  0.0365
 7083TIP3   OH242663   3.570   2.703   1.125 -0.9286  0.3671 -0.0312
 7083TIP3    H142664   3.605   2.636   1.183 -0.6571 -0.1058 -0.7223
 7083TIP3    H242665   3.644   2.762   1.109 -0.9934  0.4769  0.0714
 7084TIP3   OH242666   0.660   6.008  15.485 -0.4546  0.5226  0.4047
 7084TIP3    H142667   0.724   6.065  15.442 -1.7103  0.8331 -1.1275
 7084TIP3    H242668   0.611   6.066  15.543 -1.0181  0.7851 -0.3347
 7085TIP3   OH242669   6.294   3.379   3.878  0.5009  0.0479  0.0299
 7085TIP3    H142670   6.237   3.440   3.923  0.1701  1.0472 -1.6505
 7085TIP3    H242671   6.254   3.293   3.892  0.2185  0.3703  1.2725
 7086TIP3   OH242672   6.738   0.531   0.317  0.1268 -0.3102  0.3266
 7086TIP3    H142673   6.813   0.484   0.352 -0.1842 -0.9628  0.1288
 7086TIP3    H242674   6.777   0.601   0.263  0.6244  1.1692  2.4642
 7087TIP3   OH242675   0.462   3.361   1.270 -0.9200  0.5976 -0.1628
 7087TIP3    H142676   0.374   3.386   1.243 -0.6457  1.3340 -0.3841
 7087TIP3    H242677   0.484   3.423   1.340 -0.4017  0.7144 -0.4257
 7088TIP3   OH242678   0.780   1.764   1.406 -0.2620 -0.3276  0.3261
 7088TIP3    H142679   0.776   1.757   1.311 -0.1945 -2.1152  0.4073
 7088TIP3    H242680   0.689   1.782   1.432 -0.0759  1.3549 -0.1194
 7089TIP3   OH242681   1.934   5.084  12.617  0.1469 -0.5413  0.4325
 7089TIP3    H142682   1.926   5.030  12.538  0.7502 -1.7707  1.1908
 7089TIP3    H242683   1.879   5.040  12.682 -0.2529  0.3972  0.7438
 7090TIP3   OH242684   6.535   0.803  13.865 -0.1068 -0.3815  0.2057
 7090TIP3    H142685   6.521   0.880  13.810 -0.3453 -0.6204 -0.0693
 7090TIP3    H242686   6.624   0.813  13.899 -0.3284  0.2910  0.6052
 7091TIP3   OH242687   6.352   1.430   5.088 -0.1047 -0.6588  1.1710
 7091TIP3    H142688   6.319   1.341   5.094 -2.5671  0.1574  0.7249
 7091TIP3    H242689   6.282   1.485   5.122  1.2876  1.1437  1.3065
 7092TIP3   OH242690   3.432   5.420   4.440 -0.0796  0.0006 -0.1004
 7092TIP3    H142691   3.418   5.382   4.353  1.2666 -0.5045 -0.1135
 7092TIP3    H242692   3.373   5.370   4.497 -0.8414  0.2174 -0.6840
 7093TIP3   OH242693   2.555   2.000  15.036 -0.8146  0.6975 -0.1929
 7093TIP3    H142694   2.511   1.992  15.121  1.3342  1.6423  1.1152
 7093TIP3    H242695   2.559   2.095  15.020  0.0474  0.5960 -0.6319
 7094TIP3   OH242696   4.985   4.501   2.674  0.2090  0.2591  0.5113
 7094TIP3    H142697   4.916   4.526   2.612  0.4418  0.1156  0.1904
 7094TIP3    H242698   5.043   4.444   2.624  0.5062  0.2957  0.8074
 7095TIP3   OH242699   2.174   2.457  16.782 -0.3470  0.3098  0.7569
 7095TIP3    H142700   2.178   2.435  16.875 -0.8680 -1.2109  0.4534
 7095TIP3    H242701   2.224   2.538  16.774  0.6897 -0.1494  2.1802
 7096TIP3   OH242702   5.439   1.322   0.272 -0.2589 -0.1302 -0.5422
 7096TIP3    H142703   5.482   1.391   0.220 -1.1220  0.6688 -0.2307
 7096TIP3    H242704   5.394   1.369   0.342  1.5867 -1.2482  1.4997
 7097TIP3   OH242705   3.405   3.526   0.052 -0.5508 -0.2299  0.0302
 7097TIP3    H142706   3.461   3.449   0.052  1.0581  0.8941  0.3396
 7097TIP3    H242707   3.465   3.600   0.050 -1.9953  1.0563  1.2899
 7098TIP3   OH242708   6.121   5.300  15.687 -0.2156 -0.2314 -0.3771
 7098TIP3    H142709   6.166   5.279  15.605  0.9988  2.0331 -0.3832
 7098TIP3    H242710   6.074   5.220  15.710 -0.3263 -1.0544 -3.0891
 7099TIP3   OH242711   4.490   3.615  12.360 -0.5922  0.6607 -0.0786
 7099TIP3    H142712   4.484   3.558  12.436 -0.8988  0.4398 -0.2643
 7099TIP3    H242713   4.491   3.555  12.285 -1.3427  0.9150 -0.2974
 7100TIP3   OH242714   1.748   3.094  14.316 -0.4310 -0.0584  0.2469
 7100TIP3    H142715   1.678   3.142  14.361 -0.3019  0.5250 -0.1690
 7100TIP3    H242716   1.709   3.068  14.232 -0.2172  0.1049  0.0934
 7101TIP3   OH242717   4.870   4.257  14.938  0.2454  0.2985  0.2603
 7101TIP3    H142718   4.864   4.315  14.863  1.3728 -0.4248 -0.4251
 7101TIP3    H242719   4.953   4.281  14.980 -0.1596  0.3980  1.0266
 7102TIP3   OH242720   1.382   2.649   4.467 -0.6180 -0.4691  0.5500
 7102TIP3    H142721   1.458   2.592   4.457 -1.3536 -1.2743 -0.9195
 7102TIP3    H242722   1.417   2.737   4.454  0.0811 -0.8188 -0.0432
 7103TIP3   OH242723   0.332   3.416   0.875  0.0111  0.7382 -0.1854
 7103TIP3    H142724   0.384   3.338   0.856  0.3238  1.3520 -2.0307
 7103TIP3    H242725   0.356   3.478   0.807 -2.3638  1.4265 -0.5020
 7104TIP3   OH242726   2.266   0.367   1.105  0.0962 -0.2918 -0.3501
 7104TIP3    H142727   2.241   0.350   1.015  0.8255  0.2220 -0.6582
 7104TIP3    H242728   2.336   0.432   1.099 -0.1553  0.0858  0.6068
 7105TIP3   OH242729   4.510   6.110   0.424  0.0618 -0.1028 -0.4740
 7105TIP3    H142730   4.455   6.043   0.464  0.0206 -1.4714 -2.6860
 7105TIP3    H242731   4.451   6.159   0.367  0.6730 -0.0536 -1.0706
 7106TIP3   OH242732   5.139   4.071  11.680 -0.1776 -0.2679 -0.2848
 7106TIP3    H142733   5.106   3.982  11.673 -0.5756 -0.2221  0.8627
 7106TIP3    H242734   5.061   4.126  11.680 -0.1421 -0.1272  1.8748
 7107TIP3   OH242735   4.894   4.759  12.196  0.0182 -0.1910  0.1877
 7107TIP3    H142736   4.866   4.738  12.286  0.0657  1.7478  0.6864
 7107TIP3    H242737   4.813   4.780  12.150  0.2625  1.9608  0.6746
 7108TIP3   OH242738   0.678   6.731  10.568  0.6717 -0.1506 -0.2906
 7108TIP3    H142739   0.672   6.824  10.590 -0.2049 -0.5453  1.3254
 7108TIP3    H242740   0.730   6.729  10.488  0.2208  1.7629 -0.6892
 7109TIP3   OH242741   0.951   3.965  12.055 -0.5255 -0.1286 -0.0214
 7109TIP3    H142742   0.915   3.877  12.044  0.0863 -0.4499  0.4867
 7109TIP3    H242743   1.013   3.974  11.982 -0.3177 -0.2645  0.1359
 7110TIP3   OH242744   3.682   5.506  12.966  0.3600 -0.2185  0.0635
 7110TIP3    H142745   3.729   5.531  13.045  1.8182 -0.8028 -0.5749
 7110TIP3    H242746   3.749   5.510  12.897 -0.7232 -0.3383 -1.0230
 7111TIP3   OH242747   0.008   6.014  14.903  0.3032  0.0908 -0.5921
 7111TIP3    H142748   0.096   6.013  14.865  0.6897 -1.4942  0.2621
 7111TIP3    H242749  -0.016   5.921  14.910 -0.6917  0.4301  0.8492
 7112TIP3   OH242750   4.765   5.354   2.449 -0.5500 -0.3392 -0.3859
 7112TIP3    H142751   4.731   5.420   2.388  0.7664  1.3400  0.6328
 7112TIP3    H242752   4.856   5.379   2.463 -0.8904 -0.4593  2.5311
 7113TIP3   OH242753   0.317   2.920  15.881 -0.3113 -0.0851  0.4207
 7113TIP3    H142754   0.225   2.904  15.860  0.0843 -1.1668 -0.6286
 7113TIP3    H242755   0.341   2.995  15.828 -0.7435  0.6074  1.1860
 7114TIP3   OH242756   1.974   0.303   2.925 -0.1175 -0.5187 -0.3396
 7114TIP3    H142757   1.912   0.365   2.888  0.1240  0.1917  0.4285
 7114TIP3    H242758   1.960   0.308   3.019  0.3973 -1.1089 -0.2256
 7115TIP3   OH242759   0.208   6.210  14.517  0.4162 -1.0464  0.4245
 7115TIP3    H142760   0.249   6.137  14.471  1.2082  0.6371 -1.6953
 7115TIP3    H242761   0.172   6.265  14.448 -0.4049  0.4487  1.9650
 7116TIP3   OH242762   1.816   5.125  16.259 -0.0378  0.5854  0.1995
 7116TIP3    H142763   1.806   5.218  16.281  1.1572  0.6462  0.5598
 7116TIP3    H242764   1.810   5.121  16.164 -1.1990  0.8726  0.2479
 7117TIP3   OH242765   0.241   1.249   0.248 -0.8312  0.1849 -0.4791
 7117TIP3    H142766   0.191   1.290   0.177  0.2745  1.1474 -0.7410
 7117TIP3    H242767   0.332   1.276   0.232  0.2770 -3.4724 -1.4536
 7118TIP3   OH242768   3.152   2.091  14.934 -0.4787  0.4972 -0.3708
 7118TIP3    H142769   3.056   2.093  14.942 -0.5664  2.4449 -1.4425
 7118TIP3    H242770   3.175   2.177  14.899  1.6565 -0.0429 -0.3988
 7119TIP3   OH242771   5.427   3.735   4.415 -0.7104  0.8377 -0.1851
 7119TIP3    H142772   5.513   3.718   4.377 -0.5925 -0.7985  0.7407
 7119TIP3    H242773   5.445   3.795   4.487 -0.4024  0.8317 -0.2534
 7120TIP3   OH242774   4.471   3.154   0.358  0.6132 -0.4343  1.0256
 7120TIP3    H142775   4.419   3.203   0.423 -2.2234 -0.5212 -1.0049
 7120TIP3    H242776   4.408   3.126   0.292  3.4914  1.0340 -2.7345
 7121TIP3   OH242777   4.699   3.783   5.785  0.0906  0.2022 -0.6914
 7121TIP3    H142778   4.636   3.762   5.854  0.4894 -2.0568 -0.9371
 7121TIP3    H242779   4.658   3.853   5.735 -1.6408 -0.3092 -0.0633
 7122TIP3   OH242780   0.317   5.281  15.168 -0.6934 -0.1683  0.0831
 7122TIP3    H142781   0.229   5.275  15.131  0.0728  1.2039 -2.1505
 7122TIP3    H242782   0.364   5.208  15.128 -0.4259  0.0058  0.0811
 7123TIP3   OH242783   1.942   3.680   4.643 -0.5699  0.4964  0.2399
 7123TIP3    H142784   1.947   3.585   4.649  1.5307  0.5385  0.0940
 7123TIP3    H242785   1.949   3.710   4.734 -2.5264  0.5127  0.4098
 7124TIP3   OH242786   1.985   0.694   3.783 -0.1281  0.1220 -0.1195
 7124TIP3    H142787   1.941   0.681   3.700  0.0465 -0.0556 -0.1841
 7124TIP3    H242788   1.997   0.789   3.789 -0.5636  0.1727 -0.0771
 7125TIP3   OH242789   0.362   4.601  11.040 -0.0745 -0.0683 -0.1164
 7125TIP3    H142790   0.275   4.610  11.078 -0.5576  2.0055 -1.4983
 7125TIP3    H242791   0.349   4.616  10.946  1.7906  0.6391 -0.3173
 7126TIP3   OH242792   4.484   6.218  16.552 -0.1758 -0.0374  0.5674
 7126TIP3    H142793   4.455   6.309  16.556  1.6628  1.0040 -3.7004
 7126TIP3    H242794   4.404   6.167  16.552 -1.3551  1.7165  1.1227
 7127TIP3   OH242795   4.992   6.498  11.956  0.2366  0.1042  0.3348
 7127TIP3    H142796   5.071   6.455  11.988  0.2142 -0.0241  0.2148
 7127TIP3    H242797   4.968   6.559  12.027  1.7007  1.7798 -0.5523
 7128TIP3   OH242798   2.549   6.661   1.591  0.0936  0.2198  0.1008
 7128TIP3    H142799   2.609   6.662   1.517  0.0952  1.4737  0.1052
 7128TIP3    H242800   2.496   6.740   1.581 -0.6084 -0.1275  0.8756
 7129TIP3   OH242801   1.978   3.673  16.503 -0.2965 -0.4600 -0.5173
 7129TIP3    H142802   2.044   3.715  16.558 -0.5801 -1.0248  0.2700
 7129TIP3    H242803   1.921   3.745  16.475 -1.9928 -0.4624  2.4769
 7130TIP3   OH242804   5.196   5.320  15.674  0.4452  0.4890 -0.1887
 7130TIP3    H142805   5.194   5.408  15.638  0.3918  0.8564  0.7031
 7130TIP3    H242806   5.283   5.286  15.650  0.5481  0.8588 -0.3384
 7131TIP3   OH242807   6.703   5.574   5.500 -0.3715 -0.4070  0.6616
 7131TIP3    H142808   6.746   5.527   5.571  0.4835 -0.3479  0.1986
 7131TIP3    H242809   6.775   5.600   5.442 -0.9410  0.5025  0.3439
 7132TIP3   OH242810   3.051   5.270   2.616  0.2830 -0.4624 -0.1593
 7132TIP3    H142811   3.093   5.325   2.550 -1.9105 -0.1617 -1.3960
 7132TIP3    H242812   3.095   5.185   2.608  2.9697  0.6987  1.0355
 7133TIP3   OH242813   4.072   2.113   2.841 -0.0746 -0.1804 -0.2472
 7133TIP3    H142814   4.167   2.121   2.827 -0.1484  0.2154 -0.5447
 7133TIP3    H242815   4.055   2.019   2.829  0.4676 -0.4677  1.0870
 7134TIP3   OH242816   3.616   6.590  16.456 -0.0674 -0.1540 -0.0234
 7134TIP3    H142817   3.643   6.502  16.430  0.9965  0.2656 -0.4044
 7134TIP3    H242818   3.698   6.635  16.475 -0.6645  0.4453  1.1991
 7135TIP3   OH242819   1.586   4.345   2.272  0.0880 -0.0005  0.3627
 7135TIP3    H142820   1.648   4.294   2.325  1.0778  0.3056 -0.4705
 7135TIP3    H242821   1.591   4.305   2.185 -0.1411  0.6756  0.0386
 7136TIP3   OH242822   0.287   2.570  15.740 -0.3410 -0.4354 -0.4362
 7136TIP3    H142823   0.307   2.480  15.717 -1.9745 -0.5277 -1.6733
 7136TIP3    H242824   0.210   2.592  15.687  0.4770  1.9360 -0.7592
 7137TIP3   OH242825   6.073   5.411   1.297  1.0665 -0.4786  0.6708
 7137TIP3    H142826   6.011   5.349   1.334  1.7554 -0.7919  1.3269
 7137TIP3    H242827   6.059   5.492   1.346  0.3708 -0.1896  0.0138
 7138TIP3   OH242828   1.238   4.491   4.076 -0.3592 -0.1504  0.5766
 7138TIP3    H142829   1.287   4.572   4.089  0.8551 -0.5596 -1.2193
 7138TIP3    H242830   1.268   4.434   4.147  0.3189  0.2720  0.6407
 7139TIP3   OH242831   3.377   4.486   0.110  0.7912  0.4297 -0.2821
 7139TIP3    H142832   3.301   4.448   0.155  1.2646 -1.1790 -0.7795
 7139TIP3    H242833   3.345   4.570   0.076 -0.0170  0.9582  1.6608
 7140TIP3   OH242834   4.578   5.684  10.860 -0.9596 -0.2342 -0.1611
 7140TIP3    H142835   4.494   5.662  10.898 -0.2906 -0.2358  1.3706
 7140TIP3    H242836   4.622   5.600  10.847  0.9362 -0.1389  4.1607
 7141TIP3   OH242837   5.834   3.643  14.088 -0.2837 -0.4560  0.0159
 7141TIP3    H142838   5.821   3.657  13.994  0.7644 -3.3975 -0.6670
 7141TIP3    H242839   5.776   3.569  14.109  0.0233 -0.2908  1.5223
 7142TIP3   OH242840   1.437   2.913   3.933 -0.0702  0.7388 -0.1985
 7142TIP3    H142841   1.357   2.964   3.940 -0.0054  0.6217  2.0655
 7142TIP3    H242842   1.421   2.852   3.861 -1.8966  0.9101  0.0303
 7143TIP3   OH242843   4.696   6.414  13.061 -0.1763  0.3164 -0.2247
 7143TIP3    H142844   4.691   6.339  13.002  1.3832  0.9125 -1.1749
 7143TIP3    H242845   4.683   6.377  13.148  0.2386 -1.0270 -0.7096
 7144TIP3   OH242846   1.821   1.884   2.397 -0.2911 -0.3103 -0.5673
 7144TIP3    H142847   1.768   1.816   2.437 -0.4926 -0.4255 -1.0145
 7144TIP3    H242848   1.851   1.939   2.470  0.4993 -1.3015 -0.1259
 7145TIP3   OH242849   2.477   4.175   4.794 -0.3317 -0.2339  0.3039
 7145TIP3    H142850   2.508   4.090   4.826  0.7828  0.1929  0.4065
 7145TIP3    H242851   2.459   4.226   4.873  1.5446  0.5066  0.3103
 7146TIP3   OH242852   1.125   2.722   2.840  0.0153  0.3242  0.5938
 7146TIP3    H142853   1.090   2.707   2.752  1.5825  2.4818 -0.4819
 7146TIP3    H242854   1.102   2.813   2.859  0.9428  0.3161  1.8120
 7147TIP3   OH242855   4.808   2.917   3.705  0.2097 -0.4702  0.2669
 7147TIP3    H142856   4.773   2.884   3.622  0.7222 -1.6100  0.4832
 7147TIP3    H242857   4.892   2.872   3.715 -0.6426 -1.7415  2.2546
 7148TIP3   OH242858   3.242   4.679  17.136 -0.1637  0.3701  0.4059
 7148TIP3    H142859   3.208   4.675  17.047 -1.7367 -1.3895  1.0096
 7148TIP3    H242860   3.182   4.738  17.182 -0.5337 -0.2495  0.7342
 7149TIP3   OH242861   3.317   4.759   3.003  0.1166 -0.4032  0.5428
 7149TIP3    H142862   3.328   4.795   3.091 -1.0337 -0.0473  0.5562
 7149TIP3    H242863   3.306   4.665   3.017  0.9605 -0.4943  0.6797
 7150TIP3   OH242864   3.223   5.985  14.635 -0.3679 -0.0553 -0.4514
 7150TIP3    H142865   3.236   5.930  14.712  1.1567 -1.1456 -1.4289
 7150TIP3    H242866   3.275   6.064  14.654 -1.1657  0.3220  0.2240
 7151TIP3   OH242867   2.909   0.262   5.814  0.3511 -0.5686  0.0102
 7151TIP3    H142868   2.902   0.291   5.723  0.4397  1.2577  0.5430
 7151TIP3    H242869   3.001   0.237   5.823  0.4467 -0.3525 -0.3037
 7152TIP3   OH242870   0.514   6.243  11.442  0.8958  0.4113  0.3756
 7152TIP3    H142871   0.459   6.172  11.409  1.0765  1.4574 -2.5320
 7152TIP3    H242872   0.602   6.221  11.412  1.1823  1.1761  0.6206
 7153TIP3   OH242873   1.014   0.120  14.233  0.9101  0.0519 -0.2798
 7153TIP3    H142874   1.038   0.184  14.166  0.3894 -0.9897 -1.4969
 7153TIP3    H242875   0.976   0.173  14.303 -0.5602  1.0264 -1.7282
 7154TIP3   OH242876   0.250   1.682  13.837 -0.3664 -0.3895 -0.0937
 7154TIP3    H142877   0.330   1.733  13.839  0.4459 -1.5729 -0.8474
 7154TIP3    H242878   0.280   1.591  13.834 -1.7519 -0.9018  0.6115
 7155TIP3   OH242879   3.618   5.452   3.306 -0.0325  0.3142 -0.7400
 7155TIP3    H142880   3.686   5.411   3.359 -2.1070 -0.6114  1.3908
 7155TIP3    H242881   3.617   5.544   3.333  0.9269  0.5435 -1.4435
 7156TIP3   OH242882   3.150   2.836   5.562 -0.3826 -0.0445 -0.4217
 7156TIP3    H142883   3.075   2.891   5.586  0.7098 -0.0774  3.9995
 7156TIP3    H242884   3.221   2.898   5.546 -0.4191 -0.0853 -0.7456
 7157TIP3   OH242885   1.513   6.590  14.480 -0.2052 -0.0447  0.5324
 7157TIP3    H142886   1.601   6.602  14.444 -0.9058 -0.3314 -1.3965
 7157TIP3    H242887   1.522   6.517  14.542  1.1779  0.8925  1.5190
 7158TIP3   OH242888   1.171   0.096  16.339  0.3565 -0.4723  0.2904
 7158TIP3    H142889   1.232   0.170  16.340  3.0160 -2.5271 -0.7220
 7158TIP3    H242890   1.085   0.137  16.325  1.5070  2.4996  1.0745
 7159TIP3   OH242891   6.211   6.037  15.408 -0.4870  0.8804 -0.1979
 7159TIP3    H142892   6.191   5.987  15.329 -0.0669  0.0304  0.2215
 7159TIP3    H242893   6.297   6.077  15.390  1.1545 -1.8390  0.9528
 7160TIP3   OH242894   1.303   2.082   2.326 -0.2507  0.4098 -0.4684
 7160TIP3    H142895   1.362   2.009   2.309 -0.5649  0.3336 -1.3137
 7160TIP3    H242896   1.342   2.156   2.279  0.5447  1.0381  1.1220
 7161TIP3   OH242897   0.533   4.702  13.974 -0.0495 -0.2681  0.3584
 7161TIP3    H142898   0.457   4.759  13.958  1.2029  1.2632 -0.4330
 7161TIP3    H242899   0.553   4.714  14.067 -0.2740 -0.0360  0.3778
 7162TIP3   OH242900   1.048   6.029  11.302 -0.3272 -0.3258 -0.2603
 7162TIP3    H142901   1.134   6.045  11.342 -1.7881  2.4912  2.1625
 7162TIP3    H242902   1.065   6.026  11.208  2.4587 -0.4880  0.1637
 7163TIP3   OH242903   5.925   3.927   4.331 -0.5565 -0.4220 -0.6885
 7163TIP3    H142904   5.949   3.984   4.258  0.4881  1.0128  0.7056
 7163TIP3    H242905   5.875   3.984   4.390  1.8802 -0.3981  1.5129
 7164TIP3   OH242906   4.308   5.142  16.624  0.1981 -0.3784 -0.1302
 7164TIP3    H142907   4.398   5.169  16.642  1.4840 -1.3985 -4.0283
 7164TIP3    H242908   4.267   5.220  16.585  0.4831 -0.8572 -1.4160
 7165TIP3   OH242909   6.784   4.798   1.424 -0.5773  0.4147  0.6702
 7165TIP3    H142910   6.791   4.751   1.507  0.1018  0.0126  0.3908
 7165TIP3    H242911   6.870   4.789   1.383 -0.8306  0.8077  0.0269
 7166TIP3   OH242912   2.761   5.319   0.836  0.0207  0.0246  0.5526
 7166TIP3    H142913   2.744   5.293   0.745  0.9736  0.3595  0.2573
 7166TIP3    H242914   2.834   5.262   0.863 -0.1495  0.0415  1.0535
 7167TIP3   OH242915   4.897   5.684   2.271  0.4247  0.5576  0.0673
 7167TIP3    H142916   4.847   5.606   2.247  1.2720 -0.0266  0.1599
 7167TIP3    H242917   4.878   5.697   2.364 -0.9346  1.3843 -0.3087
 7168TIP3   OH242918   6.760   6.543  15.271  0.0769 -0.2071 -0.1573
 7168TIP3    H142919   6.818   6.616  15.294 -2.9902  1.6500  2.5522
 7168TIP3    H242920   6.726   6.566  15.184  2.0791 -0.5383 -1.0852
 7169TIP3   OH242921   0.153   6.502  12.757 -0.4082  0.2249 -0.2289
 7169TIP3    H142922   0.157   6.598  12.756 -0.2029  0.2159 -0.7635
 7169TIP3    H242923   0.183   6.476  12.669  2.3386 -0.4321  0.7867
 7170TIP3   OH242924   2.390   2.364   4.043  0.0226  0.2205 -0.0426
 7170TIP3    H142925   2.386   2.380   3.949  0.4818 -0.1236 -0.1264
 7170TIP3    H242926   2.418   2.273   4.051 -2.2005 -0.4775  0.4159
 7171TIP3   OH242927   6.392   2.408   5.657 -0.1808 -0.7874 -0.4289
 7171TIP3    H142928   6.300   2.402   5.631  0.4192 -0.0969 -3.0177
 7171TIP3    H242929   6.391   2.459   5.738 -1.9074  2.3765 -2.2572
 7172TIP3   OH242930   4.086   0.453  11.028  0.3919  0.3054 -0.0566
 7172TIP3    H142931   4.110   0.530  10.977  1.2387  1.1098  1.5108
 7172TIP3    H242932   4.123   0.380  10.979  1.1275  1.0424 -0.6262
 7173TIP3   OH242933   3.305   5.949  14.305  0.5465  0.0394  0.1287
 7173TIP3    H142934   3.285   5.909  14.220  1.7901  1.5458 -0.9301
 7173TIP3    H242935   3.219   5.971  14.342 -0.0257 -0.9383 -0.5620
 7174TIP3   OH242936   3.121   4.050   6.559 -0.0193  0.3548  0.3979
 7174TIP3    H142937   3.177   4.041   6.636  1.2931 -0.8261 -0.6369
 7174TIP3    H242938   3.174   4.015   6.487 -2.3172 -1.4444 -0.5366
 7175TIP3   OH242939   1.739   1.230  14.409  0.5293 -0.3120  0.4917
 7175TIP3    H142940   1.820   1.180  14.394  1.2432 -0.6681  4.4532
 7175TIP3    H242941   1.762   1.295  14.475 -2.4311 -0.6853  2.1015
 7176TIP3   OH242942   4.101   6.495  16.432  0.5607  0.2871  0.0766
 7176TIP3    H142943   4.192   6.519  16.416  0.2749  0.4986 -1.4662
 7176TIP3    H242944   4.101   6.456  16.519  1.9102  1.3541  0.6018
 7177TIP3   OH242945   3.909   4.631   3.042  0.0007 -0.4647  0.6969
 7177TIP3    H142946   3.932   4.718   3.074 -1.4380  0.1918  0.0536
 7177TIP3    H242947   3.987   4.600   2.996  0.7202  0.2400  1.4178
 7178TIP3   OH242948   1.675   4.846  17.199  0.1603  0.2121  0.1706
 7178TIP3    H142949   1.727   4.922  17.173  1.1353 -0.9908 -1.5836
 7178TIP3    H242950   1.586   4.878  17.205  0.4995  1.4085 -0.9225
 7179TIP3   OH242951   0.449   4.145   3.375  0.1035 -0.3197 -0.7720
 7179TIP3    H142952   0.411   4.211   3.433  0.9227  0.8013 -1.4517
 7179TIP3    H242953   0.399   4.066   3.392  0.0209  0.0932  1.1047
 7180TIP3   OH242954   2.845   1.284  10.415  0.3614 -0.3197 -0.1611
 7180TIP3    H142955   2.917   1.303  10.355 -0.0873  0.9842 -0.3318
 7180TIP3    H242956   2.821   1.370  10.451 -1.5299 -0.6088 -0.5963
 7181TIP3   OH242957   1.231   3.123   3.581 -0.4631 -0.2744  0.3125
 7181TIP3    H142958   1.326   3.107   3.575 -0.5128 -0.7821  0.8428
 7181TIP3    H242959   1.219   3.208   3.538  0.2773 -0.0554  0.5125
 7182TIP3   OH242960   1.670   3.034  14.072 -0.0235  0.7030  0.0527
 7182TIP3    H142961   1.629   2.950  14.054  0.7515 -0.0385  1.6066
 7182TIP3    H242962   1.756   3.028  14.029  0.1370  0.5826  0.3850
 7183TIP3   OH242963   4.689   5.172  15.604 -0.1851 -0.2469  0.0748
 7183TIP3    H142964   4.766   5.164  15.660  1.2295  1.8799 -1.4468
 7183TIP3    H242965   4.713   5.130  15.522 -1.1104 -0.5795 -0.0463
 7184TIP3   OH242966   5.473   0.009  16.118  0.2700  0.6194  0.1957
 7184TIP3    H142967   5.422   0.013  16.038 -0.6692 -0.8683  0.6844
 7184TIP3    H242968   5.512  -0.079  16.118 -1.3363 -0.1808  2.2532
 7185TIP3   OH242969   3.755   6.004  10.905 -0.5375  0.1902  0.3301
 7185TIP3    H142970   3.845   5.972  10.893 -0.6114 -0.4464  1.3302
 7185TIP3    H242971   3.760   6.096  10.880 -0.2503 -0.4627 -2.3123
 7186TIP3   OH242972   6.701   3.172   3.663  0.3640  0.3022  0.0331
 7186TIP3    H142973   6.627   3.157   3.604 -0.9276  0.4167  1.5558
 7186TIP3    H242974   6.717   3.266   3.657 -0.4615  0.4936  0.6264
 7187TIP3   OH242975   1.742   6.791   0.967  0.3088 -0.2723 -0.2227
 7187TIP3    H142976   1.717   6.868   1.018  1.4771  0.4649 -0.7177
 7187TIP3    H242977   1.698   6.718   1.010  0.6064  0.4304  1.3520
 7188TIP3   OH242978   6.263   5.380  13.342 -0.3082 -0.4429  0.1842
 7188TIP3    H142979   6.174   5.345  13.343  0.0958 -1.6402 -1.5488
 7188TIP3    H242980   6.269   5.431  13.423 -3.1158  1.1648 -0.4917
 7189TIP3   OH242981   3.483   0.104  16.217 -0.8145 -0.3578  0.1601
 7189TIP3    H142982   3.402   0.154  16.225 -0.7055 -0.0683 -0.4845
 7189TIP3    H242983   3.501   0.102  16.123 -0.4109 -0.9625  0.2452
 7190TIP3   OH242984   3.902   1.758   2.380  0.2789  0.0624 -0.0963
 7190TIP3    H142985   3.824   1.709   2.405 -1.8871  3.2320  0.0666
 7190TIP3    H242986   3.877   1.804   2.300  0.4342  3.9870  1.8344
 7191TIP3   OH242987   3.951   3.470   2.996  0.3779  0.2900 -0.2740
 7191TIP3    H142988   3.907   3.514   3.068 -0.3120  0.9345 -1.0742
 7191TIP3    H242989   3.931   3.377   3.008  1.0371  0.2820  0.8749
 7192TIP3   OH242990   2.353   5.637  11.663  0.8338 -0.5207  0.3700
 7192TIP3    H142991   2.433   5.598  11.630  0.4974 -1.5179  0.7034
 7192TIP3    H242992   2.312   5.677  11.586  1.4295 -0.3868  0.1191
 7193TIP3   OH242993   2.347   3.951   3.678  0.3575 -0.5431  0.3832
 7193TIP3    H142994   2.265   3.956   3.728 -1.6176  0.7683 -2.6729
 7193TIP3    H242995   2.352   4.036   3.632  3.0732 -0.8847 -0.1043
 7194TIP3   OH242996   3.999   1.699   4.724 -0.0971 -0.4007 -0.1647
 7194TIP3    H142997   3.946   1.636   4.772  1.0095 -1.5151 -0.3487
 7194TIP3    H242998   4.048   1.746   4.792 -0.2942 -0.3123 -0.0813
 7195TIP3   OH242999   3.422   4.890  17.076 -0.2291 -0.1856 -0.1832
 7195TIP3    H143000   3.380   4.923  16.996 -1.5004 -1.3637 -0.0561
 7195TIP3    H243001   3.455   4.803  17.051  1.0754  0.2323  0.0668
 7196TIP3   OH243002   1.472   6.751  15.599 -0.0124 -0.0487  0.4152
 7196TIP3    H143003   1.455   6.774  15.508  1.1539 -1.9666 -0.3408
 7196TIP3    H243004   1.386   6.753  15.641 -0.6038  0.5864 -0.7834
 7197TIP3   OH243005   2.836   1.388  11.793 -0.2200  0.4035  0.1951
 7197TIP3    H143006   2.822   1.358  11.703 -0.3983 -0.1629  0.4094
 7197TIP3    H243007   2.778   1.463  11.802 -1.4374 -0.5205  0.3457
 7198TIP3   OH243008   2.392   3.100   1.564 -0.6706 -0.2980 -0.8257
 7198TIP3    H143009   2.476   3.057   1.548 -1.0882 -1.8649  0.9165
 7198TIP3    H243010   2.332   3.061   1.500 -0.0468  1.1041 -2.3334
 7199TIP3   OH243011   3.128   1.056   0.735 -0.2787 -0.1233 -0.1836
 7199TIP3    H143012   3.142   1.151   0.733  0.1699 -0.1888 -0.5316
 7199TIP3    H243013   3.035   1.045   0.752 -0.3615  0.3843 -0.2984
 7200TIP3   OH243014   4.147   1.952  14.635  0.2741  0.7545  0.3272
 7200TIP3    H143015   4.197   1.935  14.715  0.7903 -0.0742 -0.1606
 7200TIP3    H243016   4.107   1.868  14.613  0.8024  0.7615 -0.7264
 7201TIP3   OH243017   5.874   6.500  14.552 -0.5312 -0.2603  0.0109
 7201TIP3    H143018   5.915   6.524  14.470 -1.8415  0.1381 -0.5597
 7201TIP3    H243019   5.781   6.489  14.530 -0.9824  0.2758  1.5055
 7202TIP3   OH243020   1.444   2.874  13.567 -0.1113 -0.6845 -0.4548
 7202TIP3    H143021   1.371   2.918  13.611  1.6365  2.0069 -0.0260
 7202TIP3    H243022   1.514   2.871  13.632  1.0081 -0.7953 -1.6226
 7203TIP3   OH243023   4.933   4.480  14.276  0.4248  0.1539 -0.2389
 7203TIP3    H143024   4.846   4.464  14.238 -0.5786 -0.9010  2.2313
 7203TIP3    H243025   4.965   4.392  14.298  1.0571  0.6795  0.9886
 7204TIP3   OH243026   3.451   4.169   4.680  0.0637 -0.2260  0.9784
 7204TIP3    H143027   3.396   4.242   4.652  1.7363  1.1491  1.1297
 7204TIP3    H243028   3.518   4.162   4.613  0.4304 -1.0677  1.4167
 7205TIP3   OH243029   3.272   4.544   3.407 -0.1269 -0.8680  0.5717
 7205TIP3    H143030   3.314   4.624   3.439  0.5946 -0.5600 -1.0323
 7205TIP3    H243031   3.183   4.547   3.443  0.0178  0.4351  0.8720
 7206TIP3   OH243032   6.544   1.262  16.755  0.3178 -0.1798 -0.0937
 7206TIP3    H143033   6.491   1.330  16.714  3.5416  2.2134 -0.7119
 7206TIP3    H243034   6.567   1.202  16.684  0.0347 -0.1238 -0.2305
 7207TIP3   OH243035   6.217   2.436  10.967  0.9024 -0.5235  0.2726
 7207TIP3    H143036   6.309   2.431  10.994  0.5853 -2.0793  1.1714
 7207TIP3    H243037   6.185   2.346  10.972 -0.3325 -0.2304 -1.3369
 7208TIP3   OH243038   5.443   3.773  13.789  0.4725 -0.2496 -0.0591
 7208TIP3    H143039   5.402   3.702  13.839  1.6234 -2.3934 -1.9683
 7208TIP3    H243040   5.527   3.787  13.833 -0.3822  1.0888  1.2396
 7209TIP3   OH243041   3.017   1.379   1.023  0.1637 -0.7030  0.3194
 7209TIP3    H143042   2.932   1.360   0.982  0.1181 -2.0536  1.0063
 7209TIP3    H243043   2.997   1.442   1.092  0.1309  1.0273 -1.1940
 7210TIP3   OH243044   5.891   5.608  14.624  0.8785  0.3615  0.1318
 7210TIP3    H143045   5.981   5.587  14.598  0.4662 -0.5547 -0.6523
 7210TIP3    H243046   5.856   5.656  14.549  0.6343  0.4746  0.3195
 7211TIP3   OH243047   5.352   4.926  15.854  0.1828  0.3953 -0.6064
 7211TIP3    H143048   5.428   4.980  15.875  0.8799 -0.7084 -0.1362
 7211TIP3    H243049   5.277   4.974  15.888  0.6601  1.5513 -1.1664
 7212TIP3   OH243050   6.363   2.353   1.189 -0.0974  0.3844 -0.1160
 7212TIP3    H143051   6.280   2.320   1.153  0.2415 -1.0580  0.3673
 7212TIP3    H243052   6.420   2.364   1.113 -0.3971  0.4022 -0.3406
 7213TIP3   OH243053   1.753   1.183   5.339  0.0821  0.3513  0.1225
 7213TIP3    H143054   1.756   1.249   5.408 -0.7358 -0.5320  1.0210
 7213TIP3    H243055   1.834   1.198   5.289 -1.1014  3.4839 -1.1248
 7214TIP3   OH243056   0.949   6.505  12.755 -0.3292 -0.3714  0.1382
 7214TIP3    H143057   1.025   6.473  12.803  0.6352  1.3096 -0.1846
 7214TIP3    H243058   0.929   6.435  12.693  1.2524 -0.6768 -0.0764
 7215TIP3   OH243059   3.200   0.183  14.488  0.3824  0.1283  0.4108
 7215TIP3    H143060   3.150   0.129  14.426  1.6566  0.1164 -0.6512
 7215TIP3    H243061   3.263   0.122  14.527  1.4271  0.7078 -0.3436
 7216TIP3   OH243062   1.976   1.198   2.510 -0.0706 -0.0109 -0.1193
 7216TIP3    H143063   2.003   1.290   2.507 -0.1580  0.0992  1.5332
 7216TIP3    H243064   1.887   1.198   2.474  0.3072  0.3732 -1.0943
 7217TIP3   OH243065   4.057   0.120   2.930  0.0609  0.0045  0.0823
 7217TIP3    H143066   4.128   0.056   2.923  0.3594  0.5004 -2.2249
 7217TIP3    H243067   3.988   0.085   2.874 -0.8209  0.4045  0.9080
 7218TIP3   OH243068   0.664   3.273  14.923 -0.1217  0.3747 -0.1647
 7218TIP3    H143069   0.643   3.252  15.014  0.9470  1.9107  0.4969
 7218TIP3    H243070   0.584   3.255  14.874 -0.6904 -0.5678  1.0697
 7219TIP3   OH243071   5.766   2.060  13.262 -0.6320  0.1302  0.5859
 7219TIP3    H143072   5.711   1.991  13.224 -3.5602  3.2184 -1.3542
 7219TIP3    H243073   5.844   2.061  13.207 -1.2905 -0.6133 -0.4001
 7220TIP3   OH243074   5.542   4.328   2.478  0.0964  0.3189 -0.8752
 7220TIP3    H143075   5.525   4.251   2.423 -1.0627 -0.4793  0.5309
 7220TIP3    H243076   5.456   4.359   2.504  0.5786 -0.4659  1.9533
 7221TIP3   OH243077   1.615   5.533   1.093 -0.0385  0.1373 -0.0876
 7221TIP3    H143078   1.706   5.504   1.082  0.0857  1.0739 -1.6835
 7221TIP3    H243079   1.592   5.575   1.011 -1.5659  0.9325  0.6992
 7222TIP3   OH243080   1.864   0.197   0.706 -0.1152 -0.1676  0.2835
 7222TIP3    H143081   1.819   0.125   0.662  1.2512 -0.3228 -0.9207
 7222TIP3    H243082   1.933   0.223   0.645 -1.3276  3.0160  0.1060
 7223TIP3   OH243083   2.886   4.701  16.291 -0.2112 -0.2272  0.7697
 7223TIP3    H143084   2.795   4.704  16.262 -0.1682  1.0254  0.7067
 7223TIP3    H243085   2.888   4.632  16.357 -0.6843 -1.9407 -0.9215
 7224TIP3   OH243086   2.123   2.587   0.641  0.1341 -0.4119  0.4877
 7224TIP3    H143087   2.145   2.676   0.611  2.1972 -1.3556 -1.0669
 7224TIP3    H243088   2.168   2.579   0.725  1.3529 -0.5091 -0.1536
 7225TIP3   OH243089   5.894   5.899   2.564 -0.1915 -0.1073  0.1471
 7225TIP3    H143090   5.976   5.850   2.569 -0.4571 -0.6433 -0.5030
 7225TIP3    H243091   5.835   5.852   2.623 -0.1239  0.0941  0.3766
 7226TIP3   OH243092   4.581   2.807  14.371 -0.2353  0.2352  0.2528
 7226TIP3    H143093   4.567   2.861  14.293  0.8214  0.1790  0.0161
 7226TIP3    H243094   4.614   2.869  14.437  1.9138 -0.2426 -0.3034
 7227TIP3   OH243095   4.808   0.703  11.517 -0.9195  0.0089  0.5215
 7227TIP3    H143096   4.812   0.607  11.526  0.1966 -0.0134 -0.0899
 7227TIP3    H243097   4.842   0.720  11.429 -0.1894  1.0345  0.9858
 7228TIP3   OH243098   0.127   4.640   5.885 -0.3493  0.1491  0.1121
 7228TIP3    H143099   0.128   4.731   5.915 -0.4529 -0.1929  1.2089
 7228TIP3    H243100   0.118   4.589   5.966  1.0597 -0.8912 -0.3454
 7229TIP3   OH243101   4.109   4.544   4.730  0.2708  0.0430  0.5991
 7229TIP3    H143102   4.156   4.626   4.746  1.6465 -0.5428 -0.3025
 7229TIP3    H243103   4.054   4.534   4.808  1.3160  0.9815  1.5128
 7230TIP3   OH243104   2.021   3.014   4.911  0.0057 -0.3815 -0.1289
 7230TIP3    H143105   2.099   2.968   4.882  0.3306  0.1083 -0.0407
 7230TIP3    H243106   2.054   3.088   4.963 -0.5040 -0.0345 -0.2890
 7231TIP3   OH243107   6.775   1.355  12.944 -0.1619  0.2102  0.8504
 7231TIP3    H143108   6.699   1.403  12.912 -1.1555 -0.9035  1.4643
 7231TIP3    H243109   6.753   1.334  13.035  1.4416  0.9687  1.4627
 7232TIP3   OH243110   5.104   4.520  16.451 -0.1322  0.1582 -0.0328
 7232TIP3    H143111   5.195   4.539  16.475  0.0101 -0.1050 -0.3548
 7232TIP3    H243112   5.070   4.470  16.526  0.2266 -0.4165 -0.2445
 7233TIP3   OH243113   1.806   4.929   1.199 -0.5765 -0.4314  0.2421
 7233TIP3    H143114   1.852   4.846   1.213  2.0127  0.8466  0.0475
 7233TIP3    H243115   1.843   4.988   1.266 -1.6380  0.8260 -0.2408
 7234TIP3   OH243116   5.288   5.444  16.796  0.0565  0.3522  0.0616
 7234TIP3    H143117   5.347   5.439  16.871  0.2243  1.5098  0.0221
 7234TIP3    H243118   5.245   5.529  16.805 -0.4563  0.1935 -0.7661
 7235TIP3   OH243119   5.561   3.601   0.454  0.0733 -0.1777  0.0673
 7235TIP3    H143120   5.535   3.639   0.370  0.8195 -0.0547 -0.1201
 7235TIP3    H243121   5.630   3.659   0.486 -0.0210 -0.3725  0.6418
 7236TIP3   OH243122   0.075   2.921  16.257  0.3927  0.1137 -0.0385
 7236TIP3    H143123   0.145   2.858  16.272  1.2306  1.1765  0.7489
 7236TIP3    H243124   0.117   2.993  16.211 -0.0925  0.8989  0.7026
 7237TIP3   OH243125   2.924   6.333   3.971  0.8366  0.3209 -0.4491
 7237TIP3    H143126   2.895   6.380   4.049  0.1735  0.0727 -0.5413
 7237TIP3    H243127   2.924   6.241   3.997  1.1263  0.2808 -0.5858
 7238TIP3   OH243128   5.757   0.778  11.491  0.1401 -0.3324 -0.9509
 7238TIP3    H143129   5.788   0.840  11.426  1.7617 -0.8921 -0.7504
 7238TIP3    H243130   5.833   0.758  11.545 -0.9315 -0.6162  0.5481
 7239TIP3   OH243131   2.750   2.297   3.879  0.3825 -0.4683 -0.1095
 7239TIP3    H143132   2.843   2.275   3.873  0.3305 -0.6395 -0.3455
 7239TIP3    H243133   2.707   2.234   3.820  0.1407 -0.2545 -0.1640
 7240TIP3   OH243134   0.736   0.536  14.028  0.4874  0.0199 -0.2674
 7240TIP3    H143135   0.698   0.472  13.968 -1.4169  0.8547 -0.0099
 7240TIP3    H243136   0.761   0.610  13.973  0.0271  0.2258 -0.1962
 7241TIP3   OH243137   3.063   1.838  12.231  0.0575  0.6286  0.4078
 7241TIP3    H143138   3.038   1.746  12.239  1.0498  0.1672 -1.1730
 7241TIP3    H243139   3.151   1.842  12.270  1.3875  0.1330 -2.2588
 7242TIP3   OH243140   3.035   2.377   2.756  0.0455 -0.0536  0.3260
 7242TIP3    H143141   3.113   2.416   2.717  1.7223 -0.6007  2.8567
 7242TIP3    H243142   2.965   2.441   2.740  0.8462  0.2550 -2.3733
 7243TIP3   OH243143   1.069   4.027   3.842  0.2793 -0.1211  0.3954
 7243TIP3    H143144   1.078   4.036   3.747  1.5168 -1.0237  0.4027
 7243TIP3    H243145   1.112   3.944   3.862 -0.5328 -0.2507  1.6744
 7244TIP3   OH243146   6.583   5.376  13.930  0.3262  0.3429 -0.0249
 7244TIP3    H143147   6.502   5.424  13.945 -0.5743 -1.1681  0.1433
 7244TIP3    H243148   6.652   5.433  13.964 -0.9297  0.3777  2.7256
 7245TIP3   OH243149   5.602   5.797  11.672  0.1045 -0.6316  0.2481
 7245TIP3    H143150   5.682   5.810  11.723  0.1173 -0.1707  0.1182
 7245TIP3    H243151   5.533   5.784  11.737 -0.0882  1.1111  0.4400
 7246TIP3   OH243152   3.430   5.654   1.612  0.2474 -0.1681 -0.1937
 7246TIP3    H143153   3.526   5.655   1.607  0.2478  0.7700 -0.3833
 7246TIP3    H243154   3.410   5.711   1.686 -0.1532 -0.8434  0.2162
 7247TIP3   OH243155   1.179   5.460   4.844 -0.2546 -0.0144  0.1797
 7247TIP3    H143156   1.138   5.541   4.816  1.0974  1.0897  1.2741
 7247TIP3    H243157   1.258   5.487   4.890 -0.0163 -1.9242  1.0145
 7248TIP3   OH243158   1.642   6.257  11.204  0.2558 -0.4458  0.1400
 7248TIP3    H143159   1.631   6.199  11.279 -0.5116 -0.3244  0.1282
 7248TIP3    H243160   1.665   6.199  11.132 -0.5048 -0.7445  0.1285
 7249TIP3   OH243161   1.408   1.232  12.008  0.3360  0.0240  0.1038
 7249TIP3    H143162   1.473   1.236  12.078  0.7813  0.2808 -0.3176
 7249TIP3    H243163   1.327   1.266  12.047  0.9001  1.3712  0.1311
 7250TIP3   OH243164   6.235   3.070   4.239  0.5302 -0.1057 -0.4998
 7250TIP3    H143165   6.218   3.163   4.252 -1.7639 -0.5477  0.2714
 7250TIP3    H243166   6.296   3.046   4.309 -0.2741  0.4841  0.4317
 7251TIP3   OH243167   2.011   0.209   1.215  0.6020 -0.5065  0.4736
 7251TIP3    H143168   2.046   0.123   1.191  0.4723 -0.0351 -1.6640
 7251TIP3    H243169   2.069   0.271   1.170  0.3863  0.5074  1.5502
 7252TIP3   OH243170   2.340   3.638   5.118  0.3783  0.0924  0.4193
 7252TIP3    H143171   2.332   3.665   5.209 -1.0652  0.9467  0.0716
 7252TIP3    H243172   2.281   3.697   5.070 -1.4229 -2.3819 -0.6405
 7253TIP3   OH243173   2.970   2.103   5.488  0.2134 -0.3507 -0.0823
 7253TIP3    H143174   2.972   2.198   5.476  2.3066 -0.5413 -1.7449
 7253TIP3    H243175   3.015   2.090   5.572 -2.0327  0.1698  1.3052
 7254TIP3   OH243176   3.531   4.656   2.783  0.1221 -0.2727 -0.2502
 7254TIP3    H143177   3.611   4.603   2.781  0.6311  0.4831 -2.5250
 7254TIP3    H243178   3.470   4.604   2.835  1.2309 -2.1844 -0.7482
 7255TIP3   OH243179   3.697   2.107  14.453  0.2886 -0.2868  0.6338
 7255TIP3    H143180   3.736   2.088  14.538  1.3656 -1.5563 -0.1077
 7255TIP3    H243181   3.766   2.148  14.403  0.7030 -2.3703 -0.6262
 7256TIP3   OH243182   2.048   4.724  15.538 -0.2442 -0.2334  0.2669
 7256TIP3    H143183   2.028   4.716  15.631 -0.7825 -0.9703  0.0989
 7256TIP3    H243184   2.128   4.673  15.526  1.7508  2.5482  0.9002
 7257TIP3   OH243185   0.466   1.976  10.713 -0.0103  0.4115 -0.4010
 7257TIP3    H143186   0.499   2.003  10.799  1.9187  0.8085 -1.2173
 7257TIP3    H243187   0.479   2.053  10.658  0.5151 -0.4252 -1.4770
 7258TIP3   OH243188   2.962   6.561  12.144 -0.0114  0.7674 -0.7330
 7258TIP3    H143189   3.045   6.547  12.190  0.5646  1.1339 -1.6338
 7258TIP3    H243190   2.946   6.655  12.151 -1.3107  0.4822  0.9965
 7259TIP3   OH243191   1.836   4.308  15.910  0.2135  0.3592 -0.1251
 7259TIP3    H143192   1.785   4.387  15.892 -1.8696  0.2473  4.0803
 7259TIP3    H243193   1.770   4.240  15.923  1.6820 -0.9038  1.1437
 7260TIP3   OH243194   5.640   2.161  16.422 -0.6966  0.3503 -0.2096
 7260TIP3    H143195   5.639   2.078  16.469  0.7773  0.0871 -0.5889
 7260TIP3    H243196   5.562   2.207  16.453 -1.5420 -1.1654  0.0055
 7261TIP3   OH243197   3.227   0.572  14.761  0.4501 -0.9311 -0.1873
 7261TIP3    H143198   3.158   0.565  14.827  0.1140  2.4824 -0.0307
 7261TIP3    H243199   3.214   0.657  14.721  3.1731 -1.1677 -1.8184
 7262TIP3   OH243200   0.733   4.297   0.988 -0.3562  0.5901 -0.0560
 7262TIP3    H143201   0.760   4.354   1.060  1.5209  0.0177 -0.2723
 7262TIP3    H243202   0.720   4.212   1.029 -1.6664  0.7832 -0.0078
 7263TIP3   OH243203   1.502   0.877  14.539 -0.2622 -0.1192 -0.0591
 7263TIP3    H143204   1.486   0.950  14.599  4.1760  0.8151  0.3291
 7263TIP3    H243205   1.493   0.799  14.593 -0.0752  0.4686  0.8393
 7264TIP3   OH243206   6.582   5.440   2.574  0.1068 -0.0567 -0.0214
 7264TIP3    H143207   6.513   5.376   2.557 -0.8850  0.2124  2.5327
 7264TIP3    H243208   6.657   5.386   2.600 -0.4457 -0.2819  1.2127
 7265TIP3   OH243209   1.269   2.719   0.149 -0.6682  0.1560 -0.2083
 7265TIP3    H143210   1.233   2.803   0.179  2.9730  2.2051 -0.9107
 7265TIP3    H243211   1.236   2.710   0.060 -2.2273  0.0449  0.3508
 7266TIP3   OH243212   4.352   4.629   1.213  0.2552  0.0666  0.2189
 7266TIP3    H143213   4.431   4.653   1.165  1.0233 -1.7722  0.4964
 7266TIP3    H243214   4.371   4.544   1.251 -1.8475 -0.4154  0.3330
 7267TIP3   OH243215   3.824   6.552  14.632  0.3695 -0.1642 -0.1754
 7267TIP3    H143216   3.777   6.605  14.567  0.3406 -0.4705 -0.4091
 7267TIP3    H243217   3.902   6.602  14.653 -0.4716  0.7624  0.8523
 7268TIP3   OH243218   5.966   0.109   0.568  0.0404 -0.1931 -0.2186
 7268TIP3    H143219   5.987   0.102   0.474 -1.1341  0.7266 -0.5726
 7268TIP3    H243220   5.911   0.033   0.586  0.9719 -0.8426 -0.0569
 7269TIP3   OH243221   4.580   5.494   5.034 -0.0347  0.0861  0.1031
 7269TIP3    H143222   4.559   5.499   5.128 -0.2363  0.7323  0.0260
 7269TIP3    H243223   4.674   5.511   5.030  0.2469 -1.2952  0.3059
 7270TIP3   OH243224   3.565   4.675   0.152  0.4345 -0.2029  0.0782
 7270TIP3    H143225   3.490   4.617   0.170  1.6564 -1.4717  1.4006
 7270TIP3    H243226   3.602   4.642   0.071  0.1957 -0.2748 -0.0020
 7271TIP3   OH243227   6.703   5.018   6.120 -0.0972 -0.3702 -0.2690
 7271TIP3    H143228   6.710   4.987   6.211  1.1049  0.8006  0.0563
 7271TIP3    H243229   6.619   5.064   6.118  0.1379  0.1079  0.4178
 7272TIP3   OH243230   3.698   0.455   4.916  0.3080  0.2415 -0.4571
 7272TIP3    H143231   3.708   0.384   4.979 -2.7624  0.7790  0.8336
 7272TIP3    H243232   3.685   0.412   4.832 -0.0265 -0.6727  0.0485
 7273TIP3   OH243233   3.010   5.133  15.658  0.4161 -0.3493  0.3265
 7273TIP3    H143234   3.074   5.154  15.590  0.6599 -2.0628 -0.0164
 7273TIP3    H243235   2.964   5.215  15.673  1.4793  0.4804 -0.7096
 7274TIP3   OH243236   3.729   1.454   3.030 -0.0792  0.6768  0.1584
 7274TIP3    H143237   3.676   1.390   3.078 -1.3838  0.8121 -1.0280
 7274TIP3    H243238   3.782   1.402   2.970 -0.2266  0.6294  0.0681
 7275TIP3   OH243239   1.334   1.659   5.421 -0.6416 -0.2505  0.9314
 7275TIP3    H143240   1.346   1.666   5.515 -1.0626  0.5340  0.9293
 7275TIP3    H243241   1.334   1.749   5.389  0.4028 -0.5274  0.0550
 7276TIP3   OH243242   2.112   4.345  15.508 -0.1458 -0.3109  0.4291
 7276TIP3    H143243   2.206   4.330  15.505  0.8288  4.0978  1.6181
 7276TIP3    H243244   2.093   4.361  15.601 -1.5268  1.1600 -0.0584
 7277TIP3   OH243245   0.718   3.464   2.864 -0.0366  0.1070 -0.0130
 7277TIP3    H143246   0.721   3.370   2.881 -1.2306  0.0221 -0.2427
 7277TIP3    H243247   0.628   3.489   2.883  0.5458  1.4264  1.1906
 7278TIP3   OH243248   2.267   1.291   3.481  0.3169  0.0425  0.1169
 7278TIP3    H143249   2.259   1.382   3.512 -0.1889  0.6284 -1.6010
 7278TIP3    H243250   2.317   1.298   3.399 -0.4034 -1.1182 -0.4489
 7279TIP3   OH243251   1.276   4.264  10.914  0.6434 -0.1189  0.2384
 7279TIP3    H143252   1.364   4.284  10.883 -0.1730  1.9291 -1.0264
 7279TIP3    H243253   1.233   4.222  10.839  0.7676 -1.9246  1.1407
 7280TIP3   OH243254   1.022   2.749  16.352 -0.0281  0.0865 -0.2320
 7280TIP3    H143255   1.047   2.841  16.349  1.1033 -0.2350 -1.9011
 7280TIP3    H243256   1.005   2.725  16.261 -2.4939 -0.8166  0.3992
 7281TIP3   OH243257   4.478   4.959   0.867 -0.0214 -0.6628 -0.0747
 7281TIP3    H143258   4.547   5.023   0.886 -2.0688  1.3999  0.8773
 7281TIP3    H243259   4.522   4.874   0.874  2.3117  0.5362  0.9130
 7282TIP3   OH243260   5.540   3.243   2.404 -0.2892  0.1233  0.0646
 7282TIP3    H143261   5.492   3.236   2.322  0.9704 -0.2896 -0.6703
 7282TIP3    H243262   5.481   3.208   2.471 -0.8834 -0.6483 -0.8495
 7283TIP3   OH243263   1.783   6.396   6.397 -0.0909  0.3733 -0.3208
 7283TIP3    H143264   1.828   6.447   6.464  0.1346  0.2785 -0.3960
 7283TIP3    H243265   1.707   6.448   6.373 -0.6530  0.0021  0.6265
 7284TIP3   OH243266   2.327   4.076   1.726 -0.7207 -0.3017  0.3259
 7284TIP3    H143267   2.364   4.040   1.645 -0.5544  1.2457 -0.3086
 7284TIP3    H243268   2.370   4.026   1.796  0.5880 -0.3480 -0.4785
 7285TIP3   OH243269   0.462   1.536   1.457  0.1275 -0.1346  0.2901
 7285TIP3    H143270   0.524   1.481   1.504  1.0987  0.2323 -0.5326
 7285TIP3    H243271   0.425   1.593   1.524  0.3957 -0.6213  0.8560
 7286TIP3   OH243272   4.604   6.339   3.089 -0.4641 -0.5441 -0.5564
 7286TIP3    H143273   4.634   6.400   3.022  1.7342  0.0875  0.9004
 7286TIP3    H243274   4.571   6.263   3.040  0.5596  0.1216 -2.3413
 7287TIP3   OH243275   4.340   1.849   3.287 -0.1384 -0.0725 -0.4771
 7287TIP3    H143276   4.315   1.834   3.196  0.4761 -1.0263 -0.5114
 7287TIP3    H243277   4.436   1.844   3.286 -0.1627 -1.2143  0.3821
 7288TIP3   OH243278   6.150   4.047   4.923 -0.0638  0.4524 -0.5291
 7288TIP3    H143279   6.111   3.980   4.980 -1.7221 -0.1189 -2.2367
 7288TIP3    H243280   6.216   4.089   4.978  0.8027 -2.3282  0.7343
 7289TIP3   OH243281   1.907   3.977   1.992  0.4605  0.4011  0.1152
 7289TIP3    H143282   1.974   3.914   1.964  0.9556  0.4758  1.1005
 7289TIP3    H243283   1.828   3.950   1.944  0.8028 -0.6238  0.0915
 7290TIP3   OH243284   4.898   4.512  13.649  0.4401  0.4086  0.1502
 7290TIP3    H143285   4.988   4.524  13.620  0.2971 -0.4573 -0.7182
 7290TIP3    H243286   4.865   4.440  13.595  0.1027 -1.2401  2.4410
 7291TIP3   OH243287   0.252   5.396  11.325 -0.5532 -0.5841  0.1187
 7291TIP3    H143288   0.319   5.423  11.388 -0.9918 -3.2864  1.9058
 7291TIP3    H243289   0.169   5.413  11.370 -1.1300  1.4860 -1.5537
 7292TIP3   OH243290   6.092   0.330   5.956  0.2456  0.1383  0.0529
 7292TIP3    H143291   6.159   0.392   5.984  0.7528  0.7416 -2.3222
 7292TIP3    H243292   6.016   0.384   5.936  0.5328 -0.0194 -1.5722
 7293TIP3   OH243293   3.324   6.209  14.749 -0.0029  0.0360 -0.1100
 7293TIP3    H143294   3.420   6.205  14.748 -0.0337 -1.2262  0.4807
 7293TIP3    H243295   3.303   6.267  14.823  0.2939  1.0260 -0.7754
 7294TIP3   OH243296   4.148   1.387   2.940  0.7397 -0.3999  0.2407
 7294TIP3    H143297   4.130   1.474   2.976  1.2511 -0.9019  1.7948
 7294TIP3    H243298   4.106   1.327   3.002 -0.8131 -1.2588 -1.5352
 7295TIP3   OH243299   4.713   2.776   3.200 -0.4090  0.4076  0.1006
 7295TIP3    H143300   4.729   2.785   3.294  0.5270  0.5302 -0.0690
 7295TIP3    H243301   4.662   2.854   3.178 -0.2633  0.5971  0.4205
 7296TIP3   OH243302   6.158   1.782  15.808  0.1422  0.4488  0.3853
 7296TIP3    H143303   6.153   1.843  15.881  0.6038 -0.4672  1.2145
 7296TIP3    H243304   6.251   1.780  15.785 -0.1068  1.3804 -0.8271
 7297TIP3   OH243305   2.225   3.685  14.702  0.2850 -0.3984 -0.1645
 7297TIP3    H143306   2.224   3.632  14.782  2.9580  1.7565  1.4676
 7297TIP3    H243307   2.231   3.775  14.732  1.7389  0.4902 -2.7887
 7298TIP3   OH243308   0.225   0.155   5.516 -0.2194 -0.1924  0.6213
 7298TIP3    H143309   0.220   0.213   5.592  1.2953 -0.5029  0.9878
 7298TIP3    H243310   0.133   0.137   5.494 -0.6937  0.6691  1.7729
 7299TIP3   OH243311   0.058   2.045  14.409 -0.5160 -0.0370  0.0185
 7299TIP3    H143312   0.118   2.009  14.475  0.0146  1.9798  0.7325
 7299TIP3    H243313  -0.016   2.078  14.460  0.4511  2.6566 -0.1478
 7300TIP3   OH243314   4.290   2.413   5.239  0.3585  0.6422 -0.2251
 7300TIP3    H143315   4.237   2.404   5.160 -0.4498  1.8173  0.1393
 7300TIP3    H243316   4.342   2.333   5.243 -1.7401 -0.8295 -0.3608
 7301TIP3   OH243317   3.982   1.804   2.878  0.3671  0.5147 -0.5600
 7301TIP3    H143318   3.970   1.821   2.784  1.5244  0.5385 -0.7202
 7301TIP3    H243319   4.059   1.747   2.882 -0.4073 -0.5022  0.3099
 7302TIP3   OH243320   1.742   6.766   4.095  0.1057 -0.0356  0.1337
 7302TIP3    H143321   1.768   6.716   4.172  1.1068  1.4028  0.7804
 7302TIP3    H243322   1.665   6.816   4.124  1.4153  1.7304  0.7941
 7303TIP3   OH243323   0.092   2.233   1.209 -0.2846 -0.0961 -0.5291
 7303TIP3    H143324   0.066   2.301   1.147  0.4896  1.6132  0.9245
 7303TIP3    H243325   0.187   2.245   1.219 -0.1577 -1.3206 -0.1533
 7304TIP3   OH243326   5.941   3.543   3.748  0.2151 -0.2685  0.1951
 7304TIP3    H143327   5.972   3.454   3.730  0.4929 -0.0188 -0.5909
 7304TIP3    H243328   5.929   3.545   3.843  0.7086 -0.9847  0.2813
 7305TIP3   OH243329   0.879   3.299  14.371  0.9803 -0.1621 -0.0889
 7305TIP3    H143330   0.952   3.240  14.389 -0.0832 -1.2086  0.9195
 7305TIP3    H243331   0.845   3.269  14.286  0.7150 -0.7240  0.2126
 7306TIP3   OH243332   2.331   0.510   5.109  0.6381 -0.8004  0.6731
 7306TIP3    H143333   2.246   0.504   5.152  0.0291 -0.7640 -0.4892
 7306TIP3    H243334   2.365   0.596   5.134 -0.6182  0.0792 -0.5174
 7307TIP3   OH243335   1.703   0.460  12.612  0.1933 -0.7400  0.8599
 7307TIP3    H143336   1.705   0.379  12.665  1.4739 -0.8263  0.7311
 7307TIP3    H243337   1.725   0.431  12.524  0.1859 -0.3089  0.7170
 7308TIP3   OH243338   0.757   0.905  15.926 -0.5703 -0.3371  0.2622
 7308TIP3    H143339   0.702   0.835  15.891  0.5972 -0.8387 -0.6261
 7308TIP3    H243340   0.775   0.878  16.016 -0.0344 -1.2664 -0.1043
 7309TIP3   OH243341   5.555   2.404   1.241  0.3192  0.4606 -0.3179
 7309TIP3    H143342   5.623   2.420   1.307 -1.1492 -2.9051  2.3153
 7309TIP3    H243343   5.591   2.338   1.183  0.0827  0.2662 -0.2465
 7310TIP3   OH243344   5.590   0.349   6.421  0.5442  0.3863  0.4838
 7310TIP3    H143345   5.550   0.422   6.469 -0.2407 -0.0650  0.5433
 7310TIP3    H243346   5.652   0.391   6.362 -0.1888  1.1439  0.2188
 7311TIP3   OH243347   4.262   1.824   1.903  0.0848  0.3995  0.2803
 7311TIP3    H143348   4.225   1.910   1.879  1.9100  0.9814 -0.6027
 7311TIP3    H243349   4.285   1.833   1.996 -1.2253  0.2820  0.6368
 7312TIP3   OH243350   6.481   0.021   0.749 -0.2930  0.3033  0.0216
 7312TIP3    H143351   6.476  -0.051   0.812 -0.4852 -1.0191 -1.4446
 7312TIP3    H243352   6.441   0.095   0.794 -1.0482 -0.7803  1.2086
 7313TIP3   OH243353   2.604   4.444   4.415  0.4969  0.3023  0.0736
 7313TIP3    H143354   2.641   4.411   4.496 -0.1316 -3.6402 -1.0226
 7313TIP3    H243355   2.511   4.420   4.419  0.4838 -0.1393 -1.8198
 7314TIP3   OH243356   5.129   2.995   4.943  0.4415  0.0650  0.1103
 7314TIP3    H143357   5.172   2.938   4.880  0.0324 -1.9767  1.5694
 7314TIP3    H243358   5.201   3.037   4.991  0.7441  0.6453 -0.8321
 7315TIP3   OH243359   5.781   5.288  14.195  0.6243 -0.0971  0.0230
 7315TIP3    H143360   5.686   5.278  14.184  0.3376 -0.3257  2.2008
 7315TIP3    H243361   5.802   5.371  14.151 -0.8203  0.5958  0.5776
 7316TIP3   OH243362   5.539   5.463   6.561 -0.5031 -0.0983 -0.5892
 7316TIP3    H143363   5.493   5.429   6.638  1.1821  0.3996  0.6757
 7316TIP3    H243364   5.531   5.558   6.569  0.1300 -0.0307 -0.7455
 7317TIP3   OH243365   0.792   3.013   2.603 -0.3238 -0.2715  0.2437
 7317TIP3    H143366   0.857   2.976   2.544  0.2832 -0.0777  0.7858
 7317TIP3    H243367   0.731   2.941   2.620  0.4602 -0.8420  0.7379
 7318TIP3   OH243368   5.367   4.862   2.838  0.1932 -0.5931 -0.3446
 7318TIP3    H143369   5.328   4.836   2.921 -2.5889 -0.0449 -1.3643
 7318TIP3    H243370   5.351   4.788   2.780 -0.5618  0.1735 -1.1383
 7319TIP3   OH243371   3.650   3.056   4.186 -0.2274 -0.4063 -0.0472
 7319TIP3    H143372   3.660   3.147   4.214  0.6206 -0.4329 -0.2436
 7319TIP3    H243373   3.689   3.005   4.256 -0.3866 -0.6050 -0.1032
 7320TIP3   OH243374   0.327   5.398   2.132 -0.2064  0.7630  0.8581
 7320TIP3    H143375   0.366   5.470   2.181  1.0188  0.9487 -0.3168
 7320TIP3    H243376   0.370   5.320   2.167  1.0858  0.9423 -0.2339
 7321TIP3   OH243377   3.896   1.098   3.101  0.4208 -0.4046 -0.0286
 7321TIP3    H143378   3.927   1.009   3.111 -1.0540 -1.0192 -0.5276
 7321TIP3    H243379   3.896   1.135   3.189 -0.2130 -1.3647  0.3873
 7322TIP3   OH243380   2.465   0.951  11.687  0.5768  0.0498  0.3432
 7322TIP3    H143381   2.519   0.873  11.674  0.1526 -0.0067 -1.1760
 7322TIP3    H243382   2.375   0.918  11.685  0.3926  0.5923 -0.4352
 7323TIP3   OH243383   4.950   5.818  13.195 -0.0325 -0.2335  0.0613
 7323TIP3    H143384   4.884   5.826  13.264 -0.3263  1.0584 -0.3500
 7323TIP3    H243385   5.026   5.866  13.229  1.1528 -2.5736  0.9924
 7324TIP3   OH243386   5.259   5.812   3.937 -0.0025 -0.5305 -0.7089
 7324TIP3    H143387   5.177   5.800   3.889 -0.2057  0.5342 -0.6535
 7324TIP3    H243388   5.234   5.860   4.015  0.5153 -1.1884 -0.1223
 7325TIP3   OH243389   3.693   5.545  15.317  0.0132 -0.0455 -0.0204
 7325TIP3    H143390   3.786   5.527  15.306  0.4097  0.9774  1.2966
 7325TIP3    H243391   3.685   5.571  15.409 -1.8681 -1.8430  0.3987
 7326TIP3   OH243392   5.802   3.436  15.324  0.4953  0.5833 -0.0108
 7326TIP3    H143393   5.893   3.440  15.297  0.0367  1.5237 -1.5563
 7326TIP3    H243394   5.802   3.382  15.403  2.2434 -0.2197 -0.5268
 7327TIP3   OH243395   5.418   3.321   4.801  0.1879 -0.1104  0.3995
 7327TIP3    H143396   5.339   3.337   4.852  0.9309  0.3257  1.4341
 7327TIP3    H243397   5.483   3.290   4.865  1.4157  1.3243 -0.0806
 7328TIP3   OH243398   2.847   6.629  16.347  0.5086 -0.1234 -0.1584
 7328TIP3    H143399   2.912   6.625  16.418  0.5779 -0.1067 -0.2220
 7328TIP3    H243400   2.787   6.698  16.374 -1.0668 -1.9310  1.2565
 7329TIP3   OH243401   1.473   6.179   5.133  0.2049 -0.8925 -0.3717
 7329TIP3    H143402   1.546   6.222   5.177 -0.1577 -1.4030  0.7504
 7329TIP3    H243403   1.505   6.162   5.044  0.7840  0.5679 -0.4750
 7330TIP3   OH243404   2.374   1.817   3.524 -0.9098 -0.1228  0.5535
 7330TIP3    H143405   2.412   1.879   3.461  0.2155  0.2066  1.5186
 7330TIP3    H243406   2.424   1.736   3.510 -1.8487 -0.5880 -0.1678
 7331TIP3   OH243407   3.990   5.742   1.268 -0.8067  0.3231  0.0501
 7331TIP3    H143408   3.979   5.729   1.174  0.0938  2.7257 -0.4728
 7331TIP3    H243409   4.066   5.688   1.291 -2.0813 -1.6530 -0.1756
 7332TIP3   OH243410   1.290   5.973   4.927  0.7277 -0.2742 -0.4908
 7332TIP3    H143411   1.272   5.986   4.834 -0.6208 -1.8821 -0.5093
 7332TIP3    H243412   1.205   5.988   4.970  0.9695 -1.0442  0.2865
 7333TIP3   OH243413   4.841   0.092  11.182 -0.4802  0.3740 -0.3757
 7333TIP3    H143414   4.897   0.093  11.260  0.1872  2.4797 -0.8325
 7333TIP3    H243415   4.833  -0.001  11.160  0.7559 -0.1440  1.1779
 7334TIP3   OH243416   0.797   4.584  17.050  0.4572  0.1866 -0.4277
 7334TIP3    H143417   0.746   4.656  17.086  1.4897  0.6074  0.2319
 7334TIP3    H243418   0.743   4.550  16.979  0.8064  2.9645 -2.1888
 7335TIP3   OH243419   4.378   3.183  14.272  0.0596 -0.6092 -0.0058
 7335TIP3    H143420   4.312   3.228  14.220 -1.3629  0.3245  2.4548
 7335TIP3    H243421   4.451   3.245  14.276 -0.6916  0.2334  0.8865
 7336TIP3   OH243422   1.194   3.993   0.490 -0.4117 -0.2099 -0.0631
 7336TIP3    H143423   1.155   3.954   0.411  1.1519 -0.4618 -0.7411
 7336TIP3    H243424   1.119   4.029   0.538 -1.2121  2.2256 -2.8753
 7337TIP3   OH243425   0.010   5.638   0.047 -0.0549 -0.3481  0.1740
 7337TIP3    H143426   0.050   5.570   0.101  0.0290  0.4926  1.2213
 7337TIP3    H243427  -0.071   5.600   0.015 -0.1822 -0.8356  1.0357
 7338TIP3   OH243428   0.911   0.974   5.837  0.2061  0.6795  0.2942
 7338TIP3    H143429   0.945   1.008   5.919  2.1618 -0.5717  0.0605
 7338TIP3    H243430   0.893   0.882   5.854 -0.4821  0.6792 -0.3695
 7339TIP3   OH243431   4.952   3.551   0.341 -0.3516  1.0026 -0.2280
 7339TIP3    H143432   5.017   3.502   0.392  0.6472  0.4198 -1.9714
 7339TIP3    H243433   4.897   3.484   0.300 -0.2107  1.3917 -1.0712
 7340TIP3   OH243434   2.100   2.588   4.361 -0.5760 -0.1367 -0.0224
 7340TIP3    H143435   2.167   2.520   4.357 -0.6830 -0.2933  0.6304
 7340TIP3    H243436   2.107   2.635   4.278 -1.6882 -2.0607 -1.2819
 7341TIP3   OH243437   0.763   2.777  17.159 -0.2287 -0.0250  0.5377
 7341TIP3    H143438   0.847   2.740  17.132 -0.8313 -0.9354 -0.1607
 7341TIP3    H243439   0.738   2.725  17.236 -0.8945 -0.8449 -0.2135
 7342TIP3   OH243440   4.296   3.657  11.741  0.0543 -0.1548 -0.3848
 7342TIP3    H143441   4.233   3.599  11.783  0.7117  0.2603  1.2881
 7342TIP3    H243442   4.248   3.738  11.726 -0.4158 -0.5808 -1.2050
 7343TIP3   OH243443   5.422   0.257   5.252  0.3673 -0.2647  1.0467
 7343TIP3    H143444   5.396   0.311   5.177  0.8013 -1.6454 -0.1387
 7343TIP3    H243445   5.356   0.277   5.319 -0.1654  0.8318  0.2443
 7344TIP3   OH243446   0.929   4.608   3.185 -0.1267 -0.2252 -0.4310
 7344TIP3    H143447   1.007   4.621   3.238  0.4111 -0.5066 -1.1288
 7344TIP3    H243448   0.862   4.662   3.226 -0.0473 -1.2884  1.1750
 7345TIP3   OH243449   3.454   0.863   1.634  0.5561  0.2183  0.1384
 7345TIP3    H143450   3.447   0.859   1.729 -0.4845 -0.4088  0.0523
 7345TIP3    H243451   3.469   0.773   1.606 -1.1772  0.0458 -0.3973
 7346TIP3   OH243452   4.698   0.790  12.573  0.1449  0.3296  0.1073
 7346TIP3    H143453   4.633   0.816  12.638 -1.2550 -1.3652 -0.5406
 7346TIP3    H243454   4.648   0.775  12.493  1.8960  3.0750 -1.6893
 7347TIP3   OH243455   3.937   0.514   1.133  0.1557  0.0734 -0.2128
 7347TIP3    H143456   4.021   0.468   1.132  0.5380  0.7443  0.2229
 7347TIP3    H243457   3.920   0.529   1.226  0.3109  1.2755 -0.3585
 7348TIP3   OH243458   2.685   2.669   1.205  0.2351 -0.2613 -0.3779
 7348TIP3    H143459   2.681   2.658   1.110 -0.8810 -0.1472 -0.3600
 7348TIP3    H243460   2.669   2.582   1.240  0.2800 -0.2343 -0.2898
 7349TIP3   OH243461   5.939   4.526   3.720  0.3677 -0.6036  0.4783
 7349TIP3    H143462   6.021   4.517   3.671 -0.8622 -0.6574 -1.6647
 7349TIP3    H243463   5.950   4.606   3.771  1.0134  0.4966 -1.3227
 7350TIP3   OH243464   1.125   5.979   5.820 -0.5774  0.6074 -0.0834
 7350TIP3    H143465   1.146   5.914   5.886 -2.0106  0.6773  0.4608
 7350TIP3    H243466   1.043   5.949   5.780 -0.4904  1.3081 -0.8389
 7351TIP3   OH243467   5.631   0.254  16.102  0.0903  0.2660  0.6042
 7351TIP3    H143468   5.560   0.192  16.119 -1.5085  1.7838 -0.1689
 7351TIP3    H243469   5.663   0.229  16.015 -0.6800  0.5994  0.2071
 7352TIP3   OH243470   5.315   0.942   5.441  0.5291  0.0234 -0.3709
 7352TIP3    H143471   5.301   1.037   5.436  0.5416  0.1467  1.4882
 7352TIP3    H243472   5.233   0.908   5.476  0.5182 -0.6883 -1.0554
 7353TIP3   OH243473   4.276   0.444   5.304  0.2459  0.0549 -0.4078
 7353TIP3    H143474   4.294   0.515   5.242 -0.5537 -0.8735 -1.7611
 7353TIP3    H243475   4.319   0.368   5.267  0.4203 -0.3666  0.6140
 7354TIP3   OH243476   2.068   6.063   3.465 -0.0893  0.3633  0.3562
 7354TIP3    H143477   2.056   6.119   3.389  2.0590 -0.7898 -0.9443
 7354TIP3    H243478   2.099   5.980   3.428  1.4859 -0.0849  2.4931
 7355TIP3   OH243479   4.360   6.250  13.528 -0.3319 -0.1470  0.6111
 7355TIP3    H143480   4.355   6.238  13.433  0.3124  1.0718  0.4009
 7355TIP3    H243481   4.454   6.253  13.547 -0.4557 -0.5482  1.3236
 7356TIP3   OH243482   2.422   0.558  15.544 -0.2466  0.1455 -0.1806
 7356TIP3    H143483   2.480   0.619  15.499 -0.0506  2.4009  2.8334
 7356TIP3    H243484   2.334   0.586  15.520 -0.1374  0.4720 -0.1999
 7357TIP3   OH243485   5.057   2.279   3.940 -0.1011 -0.6452  0.0630
 7357TIP3    H143486   5.127   2.246   3.996  1.2311  0.8760 -0.6449
 7357TIP3    H243487   5.016   2.349   3.991  0.2393 -0.1588 -0.3240
 7358TIP3   OH243488   5.838   4.345   0.451  0.3462 -0.1402 -0.4267
 7358TIP3    H143489   5.917   4.344   0.504  0.0385  0.5410  0.0668
 7358TIP3    H243490   5.771   4.384   0.508 -0.0511  0.3952 -1.2322
 7359TIP3   OH243491   1.614   6.283   5.434 -0.4272  0.0834  0.1083
 7359TIP3    H143492   1.625   6.350   5.501 -1.4432 -0.6995  1.0995
 7359TIP3    H243493   1.581   6.330   5.358  2.0397  1.2164 -0.3719
 7360TIP3   OH243494   5.200   6.528   4.740 -0.0925  0.6392 -0.3159
 7360TIP3    H143495   5.287   6.536   4.700 -0.1793 -3.4575 -1.8100
 7360TIP3    H243496   5.211   6.457   4.804 -1.8945  1.4763  0.9725
 7361TIP3   OH243497   1.035   1.409  14.324 -0.1738  0.6603 -0.5919
 7361TIP3    H143498   1.054   1.384  14.234 -0.3309 -0.0861 -0.4278
 7361TIP3    H243499   0.975   1.340  14.356 -1.0549  1.5370 -0.2897
 7362TIP3   OH243500   3.003   4.269  16.763 -0.3722  0.4613 -0.5904
 7362TIP3    H143501   2.913   4.291  16.790  0.0299  0.2113  1.0337
 7362TIP3    H243502   3.026   4.336  16.700 -1.6987  0.5454 -1.0187
 7363TIP3   OH243503   5.047   2.381   5.074 -0.1369  0.0232 -0.4025
 7363TIP3    H143504   5.055   2.427   5.157  0.4673 -0.4911 -0.1653
 7363TIP3    H243505   5.127   2.405   5.026 -0.6412  0.5881 -0.9803
 7364TIP3   OH243506   5.803   3.352   0.945 -0.3615 -0.7904  0.3567
 7364TIP3    H143507   5.764   3.277   0.899 -1.7738 -0.4492  0.9425
 7364TIP3    H243508   5.792   3.331   1.038 -1.5467  0.4927  0.5359
 7365TIP3   OH243509   2.857   3.693  14.119  0.8005 -0.1350 -0.7288
 7365TIP3    H143510   2.952   3.684  14.111  0.8698 -1.2442  0.8241
 7365TIP3    H243511   2.845   3.747  14.197  0.2082 -3.0970  1.4088
 7366TIP3   OH243512   0.891   4.621  11.133  0.2980  0.0731  0.2099
 7366TIP3    H143513   0.868   4.687  11.068 -1.1994 -0.7831 -0.1993
 7366TIP3    H243514   0.979   4.593  11.109  1.2689  2.3565  0.8113
 7367TIP3   OH243515   2.730   4.010   2.125  0.5351  0.8036 -0.0393
 7367TIP3    H143516   2.656   4.063   2.094 -0.9662 -2.0481 -1.7198
 7367TIP3    H243517   2.762   3.966   2.046  1.4764 -1.0111  1.3016
 7368TIP3   OH243518   3.306   0.095  12.351 -0.3323  0.4124  0.4422
 7368TIP3    H143519   3.308   0.190  12.357 -1.6673  0.6499 -1.5745
 7368TIP3    H243520   3.221   0.071  12.389 -1.3529  0.4019 -1.6439
 7369TIP3   OH243521   4.122   1.496   0.266 -0.1550 -0.4734  0.0279
 7369TIP3    H143522   4.161   1.576   0.230 -1.0395 -0.4582 -0.9714
 7369TIP3    H243523   4.097   1.445   0.189 -0.1286 -1.4578  0.6510
 7370TIP3   OH243524   2.757   0.144  11.437  0.2248  0.4294 -0.0171
 7370TIP3    H143525   2.736   0.145  11.530 -0.4420  3.8660 -0.0782
 7370TIP3    H243526   2.684   0.189  11.395  2.2582  2.4780 -1.6631
 7371TIP3   OH243527   2.533   0.752   3.224  0.5407  0.4584 -0.4620
 7371TIP3    H143528   2.452   0.702   3.218 -0.2332  1.7388 -1.2158
 7371TIP3    H243529   2.583   0.708   3.292  0.1843 -1.6834 -1.4964
 7372TIP3   OH243530   6.428   5.405  12.548  0.2192  0.3367  0.2478
 7372TIP3    H143531   6.392   5.361  12.625 -0.4088  3.7983  2.1746
 7372TIP3    H243532   6.523   5.404  12.563  0.2603 -0.7410 -0.0088
 7373TIP3   OH243533   4.680   0.660   3.995  0.0235 -0.4013 -0.0305
 7373TIP3    H143534   4.762   0.612   3.986  0.9328  1.1262 -0.1415
 7373TIP3    H243535   4.677   0.718   3.919 -0.2790  0.8106  0.8679
 7374TIP3   OH243536   6.493   4.354   2.869  0.2511 -0.4142 -0.2292
 7374TIP3    H143537   6.449   4.406   2.936 -1.1726 -0.9528 -0.7112
 7374TIP3    H243538   6.586   4.363   2.889 -0.0756  0.5598  0.9729
 7375TIP3   OH243539   1.362   0.176   2.723 -0.2695  0.6498  0.3329
 7375TIP3    H143540   1.408   0.116   2.782  0.3755  1.2135  0.4080
 7375TIP3    H243541   1.392   0.153   2.636 -2.1983 -1.0671  0.0344
 7376TIP3   OH243542   1.197   0.488   5.286  0.0265  0.3442 -0.0490
 7376TIP3    H143543   1.275   0.436   5.264 -0.3661 -0.0289 -0.5906
 7376TIP3    H243544   1.132   0.462   5.221 -0.4406  0.9162  0.1818
 7377TIP3   OH243545   3.951   4.239  12.725  0.4273 -0.1613  0.3739
 7377TIP3    H143546   4.011   4.188  12.779 -0.5050 -0.8588  0.7764
 7377TIP3    H243547   3.865   4.201  12.742 -0.1672  0.9492 -0.0276
 7378TIP3   OH243548   6.138   4.023   5.405 -0.3498  0.0781  0.3815
 7378TIP3    H143549   6.121   3.940   5.360  0.6567  0.0273  0.0851
 7378TIP3    H243550   6.140   4.001   5.498  1.1228 -0.4516  0.2330
 7379TIP3   OH243551   2.767   5.015   5.638 -0.0806 -0.0081  0.0117
 7379TIP3    H143552   2.838   5.044   5.581  0.4548 -0.8235  0.2617
 7379TIP3    H243553   2.693   5.071   5.613  0.5195  0.5551 -0.5467
 7380TIP3   OH243554   1.121   4.440   0.400  0.1542 -0.0706 -0.2951
 7380TIP3    H143555   1.043   4.391   0.423  0.1105 -0.4890 -1.2636
 7380TIP3    H243556   1.191   4.375   0.396 -0.1352 -0.3255 -2.7517
 7381TIP3   OH243557   4.623   5.525   2.286  0.0853 -0.5694 -0.0605
 7381TIP3    H143558   4.591   5.449   2.237  1.6707 -0.6757 -0.9950
 7381TIP3    H243559   4.551   5.588   2.281 -0.5437 -1.3256 -0.8648
 7382TIP3   OH243560   3.398   3.952   3.669  0.9704  0.0922  0.4114
 7382TIP3    H143561   3.402   3.940   3.574  1.2099 -0.0195  0.4349
 7382TIP3    H243562   3.371   4.043   3.681 -0.8155 -0.3779  0.2269
 7383TIP3   OH243563   0.877   4.853   0.932  0.3934  0.3227 -0.5603
 7383TIP3    H143564   0.934   4.776   0.933  0.2186  0.1997  0.1818
 7383TIP3    H243565   0.923   4.916   0.877 -0.0575 -0.7500 -2.2551
 7384TIP3   OH243566   2.435   3.042   4.709  0.3193 -0.2651 -0.0616
 7384TIP3    H143567   2.457   3.132   4.732  1.2246 -0.3348 -0.6021
 7384TIP3    H243568   2.509   3.012   4.657  0.2120 -1.4536  0.4417
 7385TIP3   OH243569   0.744   2.940   5.609 -0.2922  0.7710 -0.4501
 7385TIP3    H143570   0.811   2.874   5.589 -1.4939 -0.9188  0.8378
 7385TIP3    H243571   0.781   2.990   5.682  0.1100  0.7221 -0.6171
 7386TIP3   OH243572   1.410   1.658   1.130 -0.2378  0.7778  1.1177
 7386TIP3    H143573   1.449   1.571   1.117  0.4162  1.0024  1.5366
 7386TIP3    H243574   1.318   1.640   1.147 -0.0699  0.1458  1.4071
 7387TIP3   OH243575   3.675   1.356  15.570 -0.3658  0.1306 -0.3120
 7387TIP3    H143576   3.734   1.398  15.633 -1.1950  2.2709 -0.8695
 7387TIP3    H243577   3.706   1.266  15.564  3.3106  1.3156 -1.1454
 7388TIP3   OH243578   6.212   6.010   2.289 -0.4587 -0.0532  0.7290
 7388TIP3    H143579   6.160   6.001   2.369 -0.7783  0.3086  0.5601
 7388TIP3    H243580   6.290   5.956   2.306 -0.5575 -0.0388  1.2557
 7389TIP3   OH243581   1.137   6.058  17.176 -0.2747  0.2007  0.3708
 7389TIP3    H143582   1.087   6.086  17.099 -0.6747  2.1924  1.3061
 7389TIP3    H243583   1.099   6.106  17.249 -0.9624 -2.7798  2.1640
 7390TIP3   OH243584   4.802   2.179  16.430 -0.1559 -0.2882  0.6898
 7390TIP3    H143585   4.858   2.101  16.423  0.9229  0.6003 -3.0773
 7390TIP3    H243586   4.862   2.250  16.452 -0.7412 -0.1013  1.7612
 7391TIP3   OH243587   1.884   3.298   1.637  0.0338 -0.2771  0.9174
 7391TIP3    H143588   1.814   3.363   1.630  1.2522  1.0246  0.3180
 7391TIP3    H243589   1.959   3.346   1.672  0.7481 -1.5483  1.2232
 7392TIP3   OH243590   3.641   1.807  12.874 -0.0873 -0.4436  0.2526
 7392TIP3    H143591   3.602   1.867  12.812 -1.7842 -1.3156  0.4175
 7392TIP3    H243592   3.730   1.839  12.886 -0.5416  1.2473 -0.6349
 7393TIP3   OH243593   3.723   1.857  14.101 -0.1161  0.3992 -0.0418
 7393TIP3    H143594   3.812   1.822  14.095  0.3220  0.7402  2.7588
 7393TIP3    H243595   3.689   1.851  14.012  1.8883 -1.8826 -0.7919
 7394TIP3   OH243596   5.116   0.083   5.215 -0.1858  0.3672  0.0426
 7394TIP3    H143597   5.136   0.133   5.295 -1.6816  0.5812  0.3178
 7394TIP3    H243598   5.087   0.148   5.152  2.2464  0.3752 -1.1908
 7395TIP3   OH243599   6.693   6.142   6.323  0.0481  0.4345  0.7688
 7395TIP3    H143600   6.624   6.182   6.272  0.1405  0.1195  0.3968
 7395TIP3    H243601   6.716   6.062   6.276  0.9391  0.7332  0.6677
 7396TIP3   OH243602   4.504   4.951  16.837  0.2691  0.5103 -0.2481
 7396TIP3    H143603   4.528   5.042  16.816  1.2304  0.4465  0.4824
 7396TIP3    H243604   4.542   4.900  16.766 -1.5630  0.7824 -1.4792
 7397TIP3   OH243605   6.754   3.422   2.656  0.1097 -0.2382 -0.3639
 7397TIP3    H143606   6.813   3.362   2.702  1.1643  0.0495 -1.3008
 7397TIP3    H243607   6.780   3.416   2.564 -1.6356 -0.4474 -0.8829
 7398TIP3   OH243608   3.638   3.167   3.698  0.0017  0.3062  0.0054
 7398TIP3    H143609   3.556   3.179   3.650 -1.1865 -0.3259  1.8116
 7398TIP3    H243610   3.690   3.245   3.676 -2.0247  1.9364  0.6924
 7399TIP3   OH243611   4.052   6.024   3.451 -0.2459 -0.2654 -0.1062
 7399TIP3    H143612   3.975   5.986   3.409 -0.2245 -0.3788 -0.0431
 7399TIP3    H243613   4.119   5.957   3.443 -0.8140 -1.1244  1.9072
 7400TIP3   OH243614   2.566   5.836   6.128 -0.4079  0.0960 -0.1065
 7400TIP3    H143615   2.655   5.808   6.147 -0.8193 -1.4312 -0.2664
 7400TIP3    H243616   2.570   5.875   6.041  0.2241  0.7617  0.2072
 7401TIP3   OH243617   4.760   0.395  11.442  0.5832  0.1527 -0.0735
 7401TIP3    H143618   4.742   0.368  11.351  1.3560  0.5080 -0.3400
 7401TIP3    H243619   4.676   0.427  11.474  0.5393  1.1238 -1.0630
 7402TIP3   OH243620   3.396   1.684  15.720 -0.2849  0.2421  0.3716
 7402TIP3    H143621   3.427   1.675  15.810  1.4044  1.4024 -0.0268
 7402TIP3    H243622   3.398   1.779  15.704  0.7946 -0.0127 -1.2804
 7403TIP3   OH243623   1.206   1.553  15.783  0.5296 -0.8254 -0.4977
 7403TIP3    H143624   1.269   1.481  15.777 -0.4102 -1.5899 -1.4017
 7403TIP3    H243625   1.214   1.599  15.699  1.1597  0.1784  0.0911
 7404TIP3   OH243626   4.326   1.791   5.295 -0.0708  0.1320  0.0153
 7404TIP3    H143627   4.391   1.856   5.268 -0.1901 -0.1474 -0.9872
 7404TIP3    H243628   4.346   1.714   5.242 -0.2863 -0.4724  0.7816
 7405TIP3   OH243629   1.923   3.070   0.177 -0.5332  0.0325 -0.1479
 7405TIP3    H143630   1.993   3.085   0.114 -0.0485 -0.7058  0.1913
 7405TIP3    H243631   1.957   3.000   0.234 -1.0267  0.5538  0.8150
 7406TIP3   OH243632   5.060   1.988  16.679  0.6384 -0.3114  0.1913
 7406TIP3    H143633   5.075   1.919  16.613  1.6051 -0.1282  0.2018
 7406TIP3    H243634   5.000   1.948  16.742  1.0545 -1.0891  0.1041
 7407TIP3   OH243635   0.725   5.547  14.120 -0.1522 -0.0128  0.3831
 7407TIP3    H143636   0.704   5.480  14.055 -1.4026 -0.5435  1.2886
 7407TIP3    H243637   0.800   5.594  14.083  0.0834 -1.2258 -0.7534
 7408TIP3   OH243638   2.384   0.157   3.226  0.4159  0.1099  0.5198
 7408TIP3    H143639   2.466   0.109   3.217  1.0186  1.0886  0.6383
 7408TIP3    H243640   2.350   0.163   3.136  0.4405 -0.3458  0.4779
 7409TIP3   OH243641   6.756   3.513   1.835  0.6217 -0.4278 -0.0370
 7409TIP3    H143642   6.693   3.473   1.775  0.9030 -0.9493  0.0076
 7409TIP3    H243643   6.776   3.443   1.897  0.5147  0.0360  0.5212
 7410TIP3   OH243644   3.861   5.480   1.510 -0.4685  0.0079  0.5829
 7410TIP3    H143645   3.956   5.463   1.510 -0.3390  0.6626  1.3594
 7410TIP3    H243646   3.821   5.393   1.507  0.1325 -0.2504 -1.2735
 7411TIP3   OH243647   2.041   2.957   4.349 -1.1174 -0.8933  0.7089
 7411TIP3    H143648   1.999   2.913   4.422 -1.7221 -0.0237  0.9018
 7411TIP3    H243649   2.120   2.996   4.386 -1.5859 -0.1842  0.9866
 7412TIP3   OH243650   0.834   2.095  13.785 -0.1817 -0.0737  0.1593
 7412TIP3    H143651   0.870   2.043  13.857  0.2409  1.9047  1.4926
 7412TIP3    H243652   0.898   2.166  13.773 -1.5474  1.1336 -0.3293
 7413TIP3   OH243653   3.005   6.041  16.047 -0.3491  0.0025 -0.3639
 7413TIP3    H143654   2.995   6.097  16.124  0.6057 -0.0900 -0.1697
 7413TIP3    H243655   3.088   5.995  16.060 -0.0120  0.2189 -1.6017
 7414TIP3   OH243656   0.783   3.589  16.297 -0.3692  0.2544  0.6417
 7414TIP3    H143657   0.706   3.620  16.344 -0.0375  1.0364  0.6760
 7414TIP3    H243658   0.748   3.527  16.233 -0.8441 -0.6513  1.7430
 7415TIP3   OH243659   4.904   0.481   1.300 -0.0356  0.5472  0.2593
 7415TIP3    H143660   4.891   0.388   1.278  2.4508  0.0007  0.7838
 7415TIP3    H243661   4.950   0.479   1.384 -2.5614  2.3887  1.8335
 7416TIP3   OH243662   2.888   0.495  11.527  0.4033  0.1157 -0.3529
 7416TIP3    H143663   2.823   0.473  11.460  0.6107 -0.4650 -0.3733
 7416TIP3    H243664   2.857   0.449  11.606  1.1572 -0.7455 -0.5451
 7417TIP3   OH243665   4.577   6.674  15.101 -0.6128 -0.5207  0.5809
 7417TIP3    H143666   4.602   6.653  15.191 -1.8050 -1.2894  0.7483
 7417TIP3    H243667   4.658   6.706  15.061 -0.0284 -0.3066  1.8733
 7418TIP3   OH243668   2.231   3.555   1.141  0.1101  0.6538  0.8230
 7418TIP3    H143669   2.147   3.522   1.173  0.5578 -1.4109  0.0289
 7418TIP3    H243670   2.210   3.639   1.099 -1.4842  0.3328  0.9284
 7419TIP3   OH243671   5.883   5.035  13.082  0.0919  0.5897  0.0707
 7419TIP3    H143672   5.967   5.082  13.078  0.8795 -0.4423  2.6175
 7419TIP3    H243673   5.826   5.093  13.131 -0.6252  1.1372 -1.3642
 7420TIP3   OH243674   2.620   4.472   3.868  0.2685  0.2041  0.1750
 7420TIP3    H143675   2.689   4.530   3.837  0.3283  0.3454  0.5706
 7420TIP3    H243676   2.625   4.477   3.963  2.1466 -2.6282  0.3578
 7421TIP3   OH243677   6.392   0.513  12.657 -0.0252  0.2835 -0.0557
 7421TIP3    H143678   6.309   0.491  12.616 -0.2604 -2.8590  1.8013
 7421TIP3    H243679   6.372   0.519  12.750  1.5253  1.4353  0.2431
 7422TIP3   OH243680   0.436   4.989   5.615 -0.1187  0.2175 -0.5304
 7422TIP3    H143681   0.398   4.902   5.624 -0.5728  0.3617 -1.0264
 7422TIP3    H243682   0.361   5.046   5.597  0.2528  0.6162 -0.8148
 7423TIP3   OH243683   3.588   2.784  16.630 -0.3129  0.0311  0.2470
 7423TIP3    H143684   3.498   2.781  16.597 -0.0434  0.9127 -0.6299
 7423TIP3    H243685   3.631   2.851  16.577  0.5394  0.5025  1.4819
 7424TIP3   OH243686   2.790   1.675  11.498  0.5537 -0.3634 -0.6868
 7424TIP3    H143687   2.802   1.701  11.407  0.7339  0.9176 -0.3217
 7424TIP3    H243688   2.868   1.623  11.519  2.0801  1.8467 -0.4338
 7425TIP3   OH243689   0.691   5.838  16.461 -0.6687  0.8364  0.1631
 7425TIP3    H143690   0.652   5.821  16.547  0.2853  1.6040  0.7637
 7425TIP3    H243691   0.697   5.933  16.456 -1.7106  0.8617 -1.2285
 7426TIP3   OH243692   1.020   5.763  14.045  0.2953  0.4787  0.5535
 7426TIP3    H143693   0.989   5.767  13.955  0.3512  1.2770  0.5624
 7426TIP3    H243694   1.113   5.741  14.038  0.2237  0.2176  0.4321
 7427TIP3   OH243695   2.521   2.631  11.815 -0.3441  0.4667  0.5198
 7427TIP3    H143696   2.615   2.614  11.805 -0.5862  0.3072 -2.5043
 7427TIP3    H243697   2.497   2.585  11.895  2.0411  0.0616  1.0885
 7428TIP3   OH243698   4.854   0.331  13.405 -0.4400  0.3041  0.3862
 7428TIP3    H143699   4.762   0.303  13.397 -1.0278  2.2986 -0.3515
 7428TIP3    H243700   4.874   0.370  13.320  1.1392 -0.1313  0.5309
 7429TIP3   OH243701   0.412   0.975  14.198 -0.8351 -0.0065  0.4631
 7429TIP3    H143702   0.420   0.909  14.266  2.7412  0.1448  0.3895
 7429TIP3    H243703   0.380   1.053  14.243 -3.0046 -1.1018  0.9607
 7430TIP3   OH243704   4.191   5.645  15.318 -0.3792 -0.2717 -0.2064
 7430TIP3    H143705   4.127   5.576  15.335 -0.6934 -0.6078 -2.4609
 7430TIP3    H243706   4.271   5.614  15.361 -1.1144 -0.9331  0.7236
 7431TIP3   OH243707   5.170   1.739  13.312  0.1216  0.9420 -0.0579
 7431TIP3    H143708   5.093   1.690  13.282  1.3211 -1.8382  1.0370
 7431TIP3    H243709   5.212   1.769  13.231 -0.6570  0.0993 -0.8072
 7432TIP3   OH243710   1.626   6.050   2.553  0.6614 -0.3188 -0.0346
 7432TIP3    H143711   1.685   6.070   2.626 -1.1707 -0.5047  1.5662
 7432TIP3    H243712   1.628   5.954   2.547  2.0714 -0.2494 -1.3817
 7433TIP3   OH243713   0.209   0.624   0.776 -0.1144  0.2223 -0.1176
 7433TIP3    H143714   0.219   0.719   0.767  2.5999  0.3361  2.3555
 7433TIP3    H243715   0.124   0.613   0.818 -0.2992  1.5925 -0.0790
 7434TIP3   OH243716   1.797   5.059  14.828 -0.2599 -0.3907  0.1171
 7434TIP3    H143717   1.854   5.050  14.751  0.2304  1.3126  0.2330
 7434TIP3    H243718   1.837   5.129  14.879 -1.9414  0.2037  0.6855
 7435TIP3   OH243719   6.613   6.255   0.201 -0.3833  0.7723 -0.1394
 7435TIP3    H143720   6.606   6.160   0.192 -0.9604  0.6452  1.4903
 7435TIP3    H243721   6.677   6.280   0.134 -1.6186 -0.5125 -1.8861
 7436TIP3   OH243722   4.371   4.257  14.288 -0.0772  0.1850  0.7642
 7436TIP3    H143723   4.323   4.179  14.316  0.9375 -0.4082  0.8758
 7436TIP3    H243724   4.316   4.296  14.220 -0.2963 -0.9699  0.2624
 7437TIP3   OH243725   4.777   6.571  12.549  0.2464  0.1824 -0.3617
 7437TIP3    H143726   4.689   6.551  12.581  0.0584  1.5137  0.0309
 7437TIP3    H243727   4.807   6.489  12.509 -0.8090 -0.5606  0.2945
 7438TIP3   OH243728   4.351   2.475  12.515 -0.4576  0.2044  0.0386
 7438TIP3    H143729   4.261   2.497  12.540 -0.0690  1.6342  0.2970
 7438TIP3    H243730   4.360   2.383  12.536 -2.3590 -0.4103 -1.4857
 7439TIP3   OH243731   2.676   5.637  16.981 -0.3891  0.0476 -0.6126
 7439TIP3    H143732   2.670   5.606  17.071 -0.2809 -0.8202 -0.8890
 7439TIP3    H243733   2.752   5.590  16.944  0.8072  1.8566 -0.6037
 7440TIP3   OH243734   1.200   4.027  17.098  0.2651  0.3015 -0.5403
 7440TIP3    H143735   1.264   4.001  17.031 -0.2532 -1.7644 -0.2908
 7440TIP3    H243736   1.135   4.078  17.049  0.6775  0.0913 -1.3358
 7441TIP3   OH243737   1.029   4.239   0.108 -0.1169  0.5576  1.0001
 7441TIP3    H143738   1.099   4.183   0.075 -0.5360 -0.7561  2.2178
 7441TIP3    H243739   1.010   4.299   0.036 -0.8397 -2.0222 -1.1074
 7442TIP3   OH243740   2.099   5.049   2.321  0.3453 -0.6305  0.1400
 7442TIP3    H143741   2.040   5.009   2.386 -1.5097  1.3382 -0.2134
 7442TIP3    H243742   2.123   4.977   2.263 -0.8000 -1.7368  0.9705
 7443TIP3   OH243743   2.533   1.682  11.656 -0.0873  0.7893  0.4133
 7443TIP3    H143744   2.492   1.597  11.676 -1.3695  1.6105  1.4827
 7443TIP3    H243745   2.604   1.661  11.597 -1.8527 -0.7921 -1.2981
 7444TIP3   OH243746   0.353   5.605  13.142  0.6075 -0.2814  0.0771
 7444TIP3    H143747   0.292   5.595  13.215 -1.8063  2.0981 -1.4465
 7444TIP3    H243748   0.426   5.656  13.177  0.4990 -0.9039  1.2633
 7445TIP3   OH243749   1.597   4.152   4.570  0.2112 -0.2044 -0.2528
 7445TIP3    H143750   1.566   4.074   4.524  0.1510  0.1758 -0.8695
 7445TIP3    H243751   1.690   4.135   4.587  0.1351 -0.5179 -0.1479
 7446TIP3   OH243752   5.170   4.833  14.969  0.2805  0.1198 -0.3007
 7446TIP3    H143753   5.113   4.764  15.003  0.7103 -0.4723 -0.7707
 7446TIP3    H243754   5.241   4.787  14.924 -0.0940  0.8697 -1.7290
 7447TIP3   OH243755   0.072   4.914   1.074 -0.4013 -0.1605  0.7883
 7447TIP3    H143756   0.105   4.870   1.152  0.3060 -0.3334  0.3964
 7447TIP3    H243757   0.146   4.917   1.014 -0.0806  2.4602  1.1687
 7448TIP3   OH243758   1.325   6.045  11.363 -0.2184  0.5645  0.4035
 7448TIP3    H143759   1.375   5.978  11.316 -0.8679 -0.3935  1.0552
 7448TIP3    H243760   1.390   6.087  11.420  0.3220  0.9327 -0.4567
 7449TIP3   OH243761   1.559   1.842  13.850  0.3929 -0.0074  0.4836
 7449TIP3    H143762   1.516   1.822  13.768 -0.8557  1.1734  0.8134
 7449TIP3    H243763   1.562   1.759  13.897  1.3622 -0.7416 -0.8398
 7450TIP3   OH243764   0.839   4.256  14.937 -0.2830  0.2821  0.1628
 7450TIP3    H143765   0.772   4.203  14.894 -1.0704  0.6711  0.8849
 7450TIP3    H243766   0.859   4.209  15.018 -0.7149  0.8815  0.6259
 7451TIP3   OH243767   6.451   5.699  13.666 -0.3477  0.2419 -0.1380
 7451TIP3    H143768   6.404   5.779  13.645 -0.8209  0.1238  0.4168
 7451TIP3    H243769   6.512   5.724  13.735 -1.8648 -0.2495  1.4512
 7452TIP3   OH243770   1.095   2.498  16.886 -0.1323 -0.4608 -0.1311
 7452TIP3    H143771   1.049   2.415  16.905 -0.1590 -0.2360  0.8546
 7452TIP3    H243772   1.188   2.476  16.894 -0.1439 -0.3626  0.3223
 7453TIP3   OH243773   2.608   0.367  11.875  0.1638  0.1726  0.4910
 7453TIP3    H143774   2.541   0.434  11.882  1.7382  1.7971  0.9416
 7453TIP3    H243775   2.669   0.387  11.947 -0.6106 -3.3316  2.3259
 7454TIP3   OH243776   5.691   5.230   5.427  0.1471 -0.8797  0.1470
 7454TIP3    H143777   5.636   5.154   5.447 -0.6522 -0.6764 -1.0976
 7454TIP3    H243778   5.635   5.305   5.447  0.7572 -0.6155  0.9022
 7455TIP3   OH243779   0.738   2.900  11.297  0.1246  0.2942  0.1420
 7455TIP3    H143780   0.751   2.828  11.359  3.1718  1.5228  1.1391
 7455TIP3    H243781   0.772   2.866  11.214 -0.8988 -0.2487 -0.0730
 7456TIP3   OH243782   5.412   0.962   4.190 -0.3228  0.1907  1.2981
 7456TIP3    H143783   5.441   1.030   4.129  1.2389 -0.6047  1.0944
 7456TIP3    H243784   5.386   1.010   4.268  0.2615  1.0662  0.9741
 7457TIP3   OH243785   3.328   1.775   1.125 -0.7093  0.2218  0.3881
 7457TIP3    H143786   3.320   1.833   1.050 -0.1470 -0.8619 -0.5417
 7457TIP3    H243787   3.393   1.710   1.098 -0.8080 -0.4364  1.6583
 7458TIP3   OH243788   1.418   3.938  11.575 -0.0686 -0.1607  0.3423
 7458TIP3    H143789   1.428   3.926  11.480 -0.8206 -1.5805  0.4231
 7458TIP3    H243790   1.488   3.999  11.598  2.1693 -2.2082 -0.6279
 7459TIP3   OH243791   4.380   0.536  16.606 -0.1495  0.2843  0.1879
 7459TIP3    H143792   4.424   0.617  16.632 -0.6351  0.0251  1.9323
 7459TIP3    H243793   4.288   0.560  16.600 -0.1766  0.0762 -0.2862
 7460TIP3   OH243794   1.709   3.982  14.569 -0.0912  0.2174 -0.7617
 7460TIP3    H143795   1.765   4.003  14.494 -0.2634  0.1306 -0.9156
 7460TIP3    H243796   1.739   3.895  14.597 -0.9077 -0.3558 -1.5716
 7461TIP3   OH243797   6.407   2.152   0.230  0.0192  0.0125 -0.3972
 7461TIP3    H143798   6.313   2.158   0.212 -0.0337  0.2150 -0.0609
 7461TIP3    H243799   6.414   2.086   0.299  0.2331 -0.8494 -1.2355
 7462TIP3   OH243800   4.744   1.077   3.600  0.0311  0.2530 -0.1482
 7462TIP3    H143801   4.664   1.101   3.555 -0.5775 -0.8970  0.2814
 7462TIP3    H243802   4.797   1.157   3.599 -1.1693  1.0730 -0.3069
 7463TIP3   OH243803   4.770   2.686   4.956 -0.2197 -0.6219  0.2072
 7463TIP3    H143804   4.677   2.684   4.980 -0.8772  2.7896 -1.4093
 7463TIP3    H243805   4.799   2.773   4.983  2.6786 -1.7160  0.9607
 7464TIP3   OH243806   6.153   4.127   2.693 -0.0501 -1.1190  0.5318
 7464TIP3    H143807   6.209   4.123   2.616 -0.7944  1.4557 -0.2267
 7464TIP3    H243808   6.212   4.154   2.764  0.0368 -0.2982  0.1532
 7465TIP3   OH243809   3.164   5.449   6.296  0.0174 -0.5023  0.1537
 7465TIP3    H143810   3.162   5.543   6.313 -0.7414 -0.6198  0.7773
 7465TIP3    H243811   3.235   5.416   6.352  2.9316  0.1699 -2.8541
 7466TIP3   OH243812   2.282   3.455  13.295  0.2453 -0.0274 -0.5254
 7466TIP3    H143813   2.311   3.542  13.319 -1.7201  0.6843 -0.4976
 7466TIP3    H243814   2.196   3.446  13.336  1.5066 -3.1116  1.8691
 7467TIP3   OH243815   1.770   5.268   4.173  0.5695 -0.2398  0.2448
 7467TIP3    H143816   1.690   5.227   4.207  0.7393 -2.2670 -1.5670
 7467TIP3    H243817   1.753   5.362   4.175 -1.6499 -0.6122  0.3894
 7468TIP3   OH243818   1.792   0.304  14.104  0.3079 -0.2004 -0.0998
 7468TIP3    H143819   1.748   0.220  14.117  1.2301 -0.6665  0.0325
 7468TIP3    H243820   1.738   0.349  14.039  1.2511 -1.9678 -2.2206
 7469TIP3   OH243821   3.020   2.143   3.470  0.2771  0.3714 -0.5009
 7469TIP3    H143822   2.968   2.097   3.537  2.1080 -1.2581 -0.1112
 7469TIP3    H243823   2.963   2.213   3.440 -2.4706 -1.7363 -0.6286
 7470TIP3   OH243824   6.287   0.511  12.927 -0.2660 -0.4214  0.0707
 7470TIP3    H143825   6.201   0.480  12.898 -0.0124 -0.0507 -1.1147
 7470TIP3    H243826   6.328   0.433  12.965 -0.6105 -0.9315 -0.5738
 7471TIP3   OH243827   2.046   2.570   3.543  0.2303  0.0112  0.3696
 7471TIP3    H143828   2.082   2.491   3.583 -0.3895  0.5048  1.9922
 7471TIP3    H243829   2.017   2.623   3.617 -0.2179  1.3510 -0.7264
 7472TIP3   OH243830   1.880   0.693  16.770  0.8148 -0.2798  0.0461
 7472TIP3    H143831   1.959   0.643  16.748 -0.1526 -0.9999 -2.0715
 7472TIP3    H243832   1.896   0.780  16.733  0.2581 -0.7210 -1.3000
 7473TIP3   OH243833   1.376   4.308  15.733  0.0045 -0.2100 -0.6448
 7473TIP3    H143834   1.290   4.265  15.734  0.3943 -1.0255  1.5203
 7473TIP3    H243835   1.380   4.356  15.816  1.4015  0.3450 -1.0120
 7474TIP3   OH243836   2.595   5.701  12.539  0.0283  0.2304  0.5706
 7474TIP3    H143837   2.649   5.627  12.513  0.6858  0.5622  0.9652
 7474TIP3    H243838   2.530   5.664  12.599 -0.0981 -0.1430  0.2080
 7475TIP3   OH243839   5.914   1.462  16.348  0.0511 -0.5981 -0.2365
 7475TIP3    H143840   5.946   1.427  16.432  2.7047  0.6956 -0.6133
 7475TIP3    H243841   5.905   1.384  16.293 -3.1672 -1.6866  1.5202
 7476TIP3   OH243842   3.744   3.803  14.922 -0.4648  0.4262 -0.0732
 7476TIP3    H143843   3.742   3.860  14.998  0.5708  0.8941 -0.3788
 7476TIP3    H243844   3.716   3.860  14.849 -0.7314  0.1844 -0.1599
 7477TIP3   OH243845   2.359   3.370  15.882 -0.3873 -0.4739 -0.2704
 7477TIP3    H143846   2.320   3.299  15.830 -0.4993 -0.5327 -0.1076
 7477TIP3    H243847   2.450   3.345  15.892 -0.5098 -0.7805  0.0985
 7478TIP3   OH243848   3.883   3.449  15.440 -0.2387 -0.7946  0.2941
 7478TIP3    H143849   3.952   3.401  15.486  1.0020 -1.0887 -1.7617
 7478TIP3    H243850   3.844   3.385  15.381 -0.9724 -0.1379  0.0439
 7479TIP3   OH243851   5.195   0.878  15.012 -0.4564  0.3299  0.1923
 7479TIP3    H143852   5.240   0.962  15.013 -0.7380  0.4802  0.0077
 7479TIP3    H243853   5.233   0.830  15.087  1.0398 -0.0858 -0.7823
 7480TIP3   OH243854   1.257   6.011   3.420 -0.8337 -0.3239  0.7435
 7480TIP3    H143855   1.344   5.971   3.418 -1.1334 -1.3211  3.6221
 7480TIP3    H243856   1.273   6.102   3.394  0.6171 -1.0665 -1.2194
 7481TIP3   OH243857   2.823   2.469   4.784  0.2475 -0.6932  0.4298
 7481TIP3    H143858   2.729   2.483   4.794  0.1360 -1.3245  0.3309
 7481TIP3    H243859   2.838   2.469   4.689  0.7616  1.8997  0.4484
 7482TIP3   OH243860   4.940   5.114   2.517 -0.2832 -0.0771 -0.2937
 7482TIP3    H143861   5.009   5.178   2.503 -1.7913  1.7331  0.1253
 7482TIP3    H243862   4.985   5.036   2.552  1.5003  1.0656  0.0519
 7483TIP3   OH243863   3.866   2.165  15.019  0.2057  0.1680  0.4063
 7483TIP3    H143864   3.897   2.126  15.101  0.0814 -0.4630  0.1620
 7483TIP3    H243865   3.943   2.166  14.962  0.0582 -0.3411  0.1888
 7484TIP3   OH243866   0.852   2.266   0.292  0.1048 -0.0238  0.1136
 7484TIP3    H143867   0.805   2.207   0.234 -0.2260  0.3097  0.0371
 7484TIP3    H243868   0.944   2.259   0.265 -0.0100 -0.0838 -0.2586
 7485TIP3   OH243869   1.347   0.426   3.037 -0.1795 -0.7250  0.1091
 7485TIP3    H143870   1.438   0.429   3.007 -0.1105 -0.4878  0.3360
 7485TIP3    H243871   1.298   0.395   2.962 -0.3944  2.3341 -1.1498
 7486TIP3   OH243872   2.052   5.795   1.717 -0.3324 -0.1091  0.1589
 7486TIP3    H143873   1.968   5.765   1.683  0.2447  0.2126 -1.6904
 7486TIP3    H243874   2.115   5.771   1.649  0.7475  1.4998  0.5260
 7487TIP3   OH243875   0.627   0.443   5.062 -0.2347 -0.4275 -0.7123
 7487TIP3    H143876   0.537   0.415   5.081 -0.1126 -1.6750 -1.8937
 7487TIP3    H243877   0.681   0.392   5.122 -0.2325 -0.3630 -0.6581
 7488TIP3   OH243878   5.529   2.817  16.891  0.0051 -0.1306 -0.2306
 7488TIP3    H143879   5.620   2.787  16.892  0.0285 -0.0458  0.1940
 7488TIP3    H243880   5.513   2.840  16.799 -0.3318 -2.4051 -0.8012
 7489TIP3   OH243881   3.814   0.143  14.563  0.1275  0.3046  0.0885
 7489TIP3    H143882   3.743   0.191  14.605  1.1833  0.7883  1.3729
 7489TIP3    H243883   3.872   0.210  14.529 -0.3271 -0.0825 -1.5824
 7490TIP3   OH243884   6.263   0.635   1.358  0.2457  0.0150 -0.2715
 7490TIP3    H143885   6.302   0.661   1.275 -0.2417 -2.5932 -1.4111
 7490TIP3    H243886   6.337   0.631   1.419  0.8308  0.5858 -0.9233
 7491TIP3   OH243887   1.479   1.406   1.093 -0.2357  0.3799 -0.1834
 7491TIP3    H143888   1.408   1.385   1.033 -0.8467  1.0922  0.2610
 7491TIP3    H243889   1.454   1.363   1.175  1.0358 -1.3313 -0.6558
 7492TIP3   OH243890   0.368   6.359   4.909  0.2305 -0.4981 -0.1220
 7492TIP3    H143891   0.369   6.267   4.883  0.0120  0.4527 -4.0454
 7492TIP3    H243892   0.278   6.376   4.935  0.1614 -1.2527  0.1575
 7493TIP3   OH243893   6.212   4.786  14.488 -0.0014 -0.0216  0.2713
 7493TIP3    H143894   6.206   4.801  14.394  0.5936 -0.8008  0.0996
 7493TIP3    H243895   6.286   4.841  14.517  0.4223 -0.5017  0.1149
 7494TIP3   OH243896   4.849   4.565  13.909 -0.1766 -0.6545  0.2561
 7494TIP3    H143897   4.785   4.503  13.945  0.2358 -0.0191  2.1494
 7494TIP3    H243898   4.864   4.533  13.819 -2.0979 -1.6121  0.2171
 7495TIP3   OH243899   1.592   0.956  15.112  0.5773  0.7275 -0.6256
 7495TIP3    H143900   1.660   0.974  15.178 -0.5266  1.8797  0.2386
 7495TIP3    H243901   1.552   1.041  15.094 -0.1606  0.1825 -1.6658
 7496TIP3   OH243902   0.929   5.576   4.532 -0.5334 -0.2324  0.1306
 7496TIP3    H143903   0.972   5.497   4.498 -1.0233 -0.0054 -1.0347
 7496TIP3    H243904   0.943   5.642   4.465 -1.0129  0.3964  0.6394
 7497TIP3   OH243905   0.703   1.077  12.543 -0.0196 -1.2388  0.8962
 7497TIP3    H143906   0.622   1.027  12.553 -0.8198 -0.5228 -1.3014
 7497TIP3    H243907   0.756   1.026  12.482  0.2491 -0.6426  0.6201
 7498TIP3   OH243908   6.106   6.711   5.311  0.1659 -0.6139 -0.4552
 7498TIP3    H143909   6.085   6.691   5.219  1.3201  0.4659 -0.9827
 7498TIP3    H243910   6.029   6.760   5.342  0.3547  0.2304 -1.2808
 7499TIP3   OH243911   5.881   0.204  16.668 -0.3697 -0.0996 -0.3598
 7499TIP3    H143912   5.841   0.212  16.581  0.3156  0.1397 -0.6645
 7499TIP3    H243913   5.890   0.110  16.682  3.4170 -0.2540 -2.4519
 7500TIP3   OH243914   1.016   1.864   0.524 -0.0920  0.5609  0.8001
 7500TIP3    H143915   1.007   1.835   0.615  1.9158  0.0768  0.8839
 7500TIP3    H243916   1.055   1.951   0.529 -3.5437  2.3015  0.4466
 7501TIP3   OH243917   4.379   1.627   2.555 -0.4243 -0.0011 -0.5358
 7501TIP3    H143918   4.342   1.663   2.474 -2.0396  0.7930  0.4804
 7501TIP3    H243919   4.303   1.593   2.602  0.2964  0.6675  1.1865
 7502TIP3   OH243920   1.495   2.211   5.240  0.2349 -0.7539 -0.6382
 7502TIP3    H143921   1.561   2.170   5.296  1.0243  0.7306 -0.4375
 7502TIP3    H243922   1.545   2.260   5.175 -0.6422  0.6810 -0.2820
 7503TIP3   OH243923   0.441   6.049  15.293  0.3664 -0.4908  0.0820
 7503TIP3    H143924   0.482   6.133  15.271  0.7045 -0.2979  1.3411
 7503TIP3    H243925   0.505   6.007  15.352 -0.9637 -0.4432  1.6249
 7504TIP3   OH243926   3.430   4.057  16.076  0.2085  0.5145  0.5023
 7504TIP3    H143927   3.364   4.101  16.023  0.1653  0.5549  0.5883
 7504TIP3    H243928   3.514   4.084  16.039  0.2448  2.0556  1.6281
 7505TIP3   OH243929   2.499   3.992   2.388 -0.2778  0.0602 -0.9384
 7505TIP3    H143930   2.404   3.979   2.381 -0.1496 -1.0434 -0.9204
 7505TIP3    H243931   2.536   3.933   2.322  0.4588 -0.9009  0.2782
 7506TIP3   OH243932   6.782   6.509  14.025 -0.0226  0.2473  0.5313
 7506TIP3    H143933   6.787   6.579  13.960 -0.8663 -0.4520 -0.3136
 7506TIP3    H243934   6.766   6.555  14.108 -1.7289  1.0080 -0.1771
 7507TIP3   OH243935   6.277   5.429  14.925  0.5425 -0.6162  0.1821
 7507TIP3    H143936   6.234   5.513  14.941  2.7040  0.2725  1.8473
 7507TIP3    H243937   6.206   5.369  14.902 -1.1160  1.5354 -0.5592
 7508TIP3   OH243938   6.266   1.705   3.814 -0.0773 -0.7742 -0.1542
 7508TIP3    H143939   6.268   1.611   3.832 -0.1477 -0.9990 -1.2146
 7508TIP3    H243940   6.218   1.712   3.731 -0.9318  0.2862  0.3987
 7509TIP3   OH243941   6.257   2.684   3.689 -0.4057  0.2136 -0.0782
 7509TIP3    H143942   6.254   2.753   3.623  2.6739 -1.1547 -1.8666
 7509TIP3    H243943   6.191   2.621   3.661 -0.2574  0.4310 -0.9398
 7510TIP3   OH243944   0.642   0.257  15.333  0.3549  1.2454 -0.3787
 7510TIP3    H143945   0.604   0.212  15.408 -0.5269  1.1326 -0.8808
 7510TIP3    H243946   0.646   0.349  15.360 -0.2580  1.2535 -0.2995
 7511TIP3   OH243947   3.209   2.718  13.517 -0.3129 -0.1862  0.0445
 7511TIP3    H143948   3.164   2.641  13.553 -2.9141  0.6732 -1.1630
 7511TIP3    H243949   3.189   2.788  13.579  0.3652 -0.0258  0.0877
 7512TIP3   OH243950   4.554   1.566   3.108  0.0989  0.2338 -0.1318
 7512TIP3    H143951   4.482   1.528   3.158 -0.0495  0.0051 -0.5134
 7512TIP3    H243952   4.535   1.542   3.017 -0.5179  2.0623 -0.5211
 7513TIP3   OH243953   4.774   6.464   4.348 -0.1436  0.2551 -0.0986
 7513TIP3    H143954   4.868   6.456   4.335 -0.2147  1.1339 -1.4056
 7513TIP3    H243955   4.752   6.549   4.310 -1.2466  0.7717  1.5917
 7514TIP3   OH243956   3.913   0.545  14.939 -0.0755 -0.4879 -0.4033
 7514TIP3    H143957   3.949   0.633  14.939 -0.5743 -0.2790  0.1074
 7514TIP3    H243958   3.823   0.555  14.969 -0.7144 -0.9414 -2.0426
 7515TIP3   OH243959   6.145   3.470  12.930 -0.0662  0.6993  0.0128
 7515TIP3    H143960   6.104   3.389  12.960  1.2020  0.2088  0.4878
 7515TIP3    H243961   6.228   3.475  12.979  1.3335  0.7095 -2.2013
 7516TIP3   OH243962   5.049   0.805   4.155  0.8214 -0.0036  0.3306
 7516TIP3    H143963   5.069   0.760   4.237  0.6024 -1.0032 -0.1510
 7516TIP3    H243964   5.052   0.898   4.177  0.0437 -0.2666  1.6447
 7517TIP3   OH243965   3.681   0.838  11.946  0.5550  0.2243 -0.1824
 7517TIP3    H143966   3.722   0.923  11.934  2.0644 -0.3660  0.4809
 7517TIP3    H243967   3.750   0.784  11.985 -0.9885 -0.7223  1.3600
 7518TIP3   OH243968   0.880   2.605   0.826 -0.3781  0.1867 -0.2852
 7518TIP3    H143969   0.921   2.519   0.840  1.5992  0.7884 -1.9056
 7518TIP3    H243970   0.923   2.639   0.748 -1.5444  2.4235 -0.0135
 7519TIP3   OH243971   0.555   2.856  10.777 -0.2945 -0.1650  0.3148
 7519TIP3    H143972   0.471   2.894  10.802 -0.9829 -1.0837 -0.4990
 7519TIP3    H243973   0.557   2.771  10.822  0.6784  0.2863  1.1568
 7520TIP3   OH243974   6.277   6.264   2.217  0.3131  0.0099 -0.6629
 7520TIP3    H143975   6.367   6.258   2.187 -0.2037 -0.7635 -2.1714
 7520TIP3    H243976   6.264   6.186   2.271  0.8707  0.7194  0.5054
 7521TIP3   OH243977   1.513   4.822  15.428 -0.1279  0.4508 -0.3970
 7521TIP3    H143978   1.596   4.868  15.415 -0.5162  1.5453  0.7415
 7521TIP3    H243979   1.536   4.746  15.481  0.1681  0.6948 -0.1728
 7522TIP3   OH243980   1.431   3.005  16.020 -0.2594 -0.0629  0.1306
 7522TIP3    H143981   1.374   3.082  16.017 -0.5501 -0.2984 -0.5797
 7522TIP3    H243982   1.393   2.950  16.088  0.2349  0.6331  0.9871
 7523TIP3   OH243983   3.344   0.571   0.245 -0.2590 -0.0049  0.2037
 7523TIP3    H143984   3.257   0.561   0.281 -0.5768  0.8198 -0.3158
 7523TIP3    H243985   3.330   0.581   0.151  0.4893 -1.2122 -0.0576
 7524TIP3   OH243986   5.817   1.044   4.663 -0.0040 -0.6828  0.5226
 7524TIP3    H143987   5.818   1.089   4.747  0.9018  0.4638 -0.0782
 7524TIP3    H243988   5.724   1.043   4.638 -0.4591 -2.1727  2.0885
 7525TIP3   OH243989   2.443   6.156  10.906  0.1749  0.2354  0.0127
 7525TIP3    H143990   2.522   6.120  10.866  0.7733  0.8107  0.6476
 7525TIP3    H243991   2.462   6.249  10.919 -0.8612  0.5265 -0.4340
 7526TIP3   OH243992   0.216   4.219  15.520  0.0857  0.4078  0.5460
 7526TIP3    H143993   0.192   4.244  15.431  1.4546 -0.3647 -0.0604
 7526TIP3    H243994   0.229   4.302  15.566  0.0333  0.8062 -0.1528
 7527TIP3   OH243995   0.534   0.135  16.162  0.2364 -0.0271  0.1599
 7527TIP3    H143996   0.608   0.103  16.111  0.4268  0.4907  0.1017
 7527TIP3    H243997   0.500   0.209  16.111 -0.7739 -0.7174 -0.1775
 7528TIP3   OH243998   5.546   6.635  11.240  0.8265 -0.1409  0.1848
 7528TIP3    H143999   5.631   6.613  11.278  0.6071 -0.4179  0.5238
 7528TIP3    H244000   5.482   6.605  11.305  0.4725  0.1543 -0.0216
 7529TIP3   OH244001   3.230   3.267  14.240  0.4776  0.0834  0.0198
 7529TIP3    H144002   3.209   3.235  14.153 -0.8276  0.4355  0.1809
 7529TIP3    H244003   3.250   3.188  14.291  0.0009 -0.2395 -0.2829
 7530TIP3   OH244004   3.976   3.128  15.619  0.0039  0.6989 -0.2491
 7530TIP3    H144005   3.931   3.149  15.701  0.6015 -0.4807  0.4109
 7530TIP3    H244006   3.918   3.065  15.576  0.4510  0.0568  0.0631
 7531TIP3   OH244007   6.771   5.116  13.394  0.1784  0.0681 -0.4503
 7531TIP3    H144008   6.752   5.057  13.467 -0.7009 -1.1101 -1.5836
 7531TIP3    H244009   6.855   5.085  13.360  1.8718  2.1745  1.5130
 7532TIP3   OH244010   6.751   6.153  14.414  0.3115  0.4052 -0.5675
 7532TIP3    H144011   6.787   6.078  14.461 -1.9841 -1.2591 -1.3212
 7532TIP3    H244012   6.694   6.196  14.478 -0.3455 -0.0099 -0.8614
 7533TIP3   OH244013   1.446   6.228   1.997  0.3186 -0.2196 -0.3270
 7533TIP3    H144014   1.403   6.153   2.038 -1.6214 -0.3268 -2.3654
 7533TIP3    H244015   1.536   6.199   1.982  0.0050 -1.5648  0.2796
 7534TIP3   OH244016   6.005   5.017  13.838  0.3360  0.5008  0.1006
 7534TIP3    H144017   6.095   5.052  13.838  0.4053  0.3783  1.6028
 7534TIP3    H244018   6.009   4.943  13.778  1.0617  0.9143 -0.3915
 7535TIP3   OH244019   0.608   1.169  13.270  0.2319 -0.1352  0.1628
 7535TIP3    H144020   0.519   1.206  13.267  0.4174  0.2503 -0.9691
 7535TIP3    H244021   0.605   1.096  13.208  1.3965  1.5044 -1.9414
 7536TIP3   OH244022   1.130   2.802  15.160  0.5154  0.7021 -0.1553
 7536TIP3    H144023   1.098   2.733  15.102 -0.5777  1.5492 -0.5917
 7536TIP3    H244024   1.224   2.787  15.165  0.2983 -0.8355 -0.2021
 7537TIP3   OH244025   4.767   5.553   0.846  0.0303 -0.3880  0.1415
 7537TIP3    H144026   4.698   5.550   0.913 -0.9767  0.2817 -0.8281
 7537TIP3    H244027   4.819   5.630   0.868 -0.4817  0.0048 -0.0192
 7538TIP3   OH244028   2.141   6.522  10.861 -0.7654  0.1334  0.5485
 7538TIP3    H144029   2.119   6.575  10.938 -0.4469 -0.7889  1.3023
 7538TIP3    H244030   2.075   6.546  10.796 -0.2141  1.9557  0.6093
 7539TIP3   OH244031   0.869   0.847   3.519 -0.3197 -0.0140  0.1070
 7539TIP3    H144032   0.928   0.878   3.586 -0.8458  0.0783  0.5318
 7539TIP3    H244033   0.892   0.754   3.508 -1.6877 -0.6429  2.0148
 7540TIP3   OH244034   0.490   4.690  13.560  0.2657  0.2488  0.2073
 7540TIP3    H144035   0.496   4.781  13.530  2.5953 -0.9538 -3.7893
 7540TIP3    H244036   0.581   4.658  13.556 -0.5452 -2.4153  1.0223
 7541TIP3   OH244037   4.219   5.230  15.746 -0.3242 -0.2010  0.2238
 7541TIP3    H144038   4.212   5.136  15.760  2.5883 -0.2798  1.9786
 7541TIP3    H244039   4.297   5.242  15.692 -1.6868  1.1995 -1.6040
 7542TIP3   OH244040   5.094   3.406   4.160 -0.0614 -0.0679  0.0632
 7542TIP3    H144041   5.149   3.449   4.225 -0.5267  1.7960 -0.7094
 7542TIP3    H244042   5.148   3.403   4.081  0.1507 -1.4340  0.2343
 7543TIP3   OH244043   3.514   4.579   5.092  0.0323 -0.1750 -0.3857
 7543TIP3    H144044   3.538   4.495   5.130  0.9490  0.1717 -0.1808
 7543TIP3    H244045   3.446   4.613   5.150  0.4126 -0.2968  0.1341
 7544TIP3   OH244046   6.439   5.618   5.404 -0.3091  0.2418  0.1286
 7544TIP3    H144047   6.461   5.649   5.316 -1.3457 -0.3797 -0.3646
 7544TIP3    H244048   6.512   5.563   5.430 -0.6157 -0.6758 -0.9094
 7545TIP3   OH244049   1.998   6.292   2.093  0.5317 -0.2834  0.5014
 7545TIP3    H144050   2.072   6.247   2.052 -0.9070 -0.2690 -2.3729
 7545TIP3    H244051   1.987   6.248   2.177  2.8128 -1.2853  0.3629
 7546TIP3   OH244052   2.455   2.578   3.130  0.2227  0.2603 -0.0889
 7546TIP3    H144053   2.411   2.646   3.079 -0.4408 -1.1781 -1.5151
 7546TIP3    H244054   2.404   2.572   3.211  0.7709  1.9709  0.4406
 7547TIP3   OH244055   5.728   4.203   2.952  0.0333  0.4094  0.1965
 7547TIP3    H144056   5.711   4.296   2.965  0.7561  0.9840 -2.4294
 7547TIP3    H244057   5.711   4.188   2.860 -0.7376 -2.2613  0.6927
 7548TIP3   OH244058   0.174   6.039  16.004  0.3035  0.2746  0.0090
 7548TIP3    H144059   0.138   6.105  16.064  0.2552 -1.2358  1.7205
 7548TIP3    H244060   0.193   5.964  16.060  0.5110 -1.1211 -1.8534
 7549TIP3   OH244061   3.039   1.085   6.053  0.8804 -0.5019 -0.0119
 7549TIP3    H144062   2.953   1.045   6.068  0.2977  0.5375 -0.4433
 7549TIP3    H244063   3.082   1.081   6.138 -0.2890  0.5275  0.6671
 7550TIP3   OH244064   4.792   3.143  15.138 -0.0644  0.2356  0.1179
 7550TIP3    H144065   4.817   3.235  15.124 -0.1681  0.4373  1.1174
 7550TIP3    H244066   4.706   3.148  15.180 -0.3437 -0.3471 -0.3735
 7551TIP3   OH244067   2.261   1.752  11.643  0.3451 -0.1888 -0.5417
 7551TIP3    H144068   2.353   1.729  11.657  0.5371 -0.6122 -2.3051
 7551TIP3    H244069   2.214   1.696  11.706  1.2455 -0.3849 -0.0146
 7552TIP3   OH244070   2.617   2.762  14.610 -0.3155  0.5054 -0.0318
 7552TIP3    H144071   2.700   2.726  14.578 -0.0102  0.4415  0.8329
 7552TIP3    H244072   2.554   2.739  14.541 -0.1850 -1.8797  0.5426
 7553TIP3   OH244073   5.570   0.131  15.363 -0.4327  0.0305  0.3727
 7553TIP3    H144074   5.508   0.075  15.409 -0.0196 -0.2758  0.5596
 7553TIP3    H244075   5.653   0.084  15.367 -0.1158  0.5817  0.3959
 7554TIP3   OH244076   6.640   5.323  11.829  0.0794 -0.1024  0.3439
 7554TIP3    H144077   6.701   5.258  11.793 -0.7049  0.0634 -1.4006
 7554TIP3    H244078   6.606   5.282  11.908  0.1198 -1.5549 -0.3461
 7555TIP3   OH244079   0.762   4.317  13.062 -0.3184 -0.2548  0.2723
 7555TIP3    H144080   0.731   4.270  13.140 -2.2759  1.0458  0.3518
 7555TIP3    H244081   0.813   4.390  13.097 -1.0695  0.2399  0.3786
 7556TIP3   OH244082   6.668   6.526  14.742  0.2869  0.3006 -0.2627
 7556TIP3    H144083   6.723   6.449  14.726  0.9183 -0.0900  3.1212
 7556TIP3    H244084   6.583   6.504  14.703  0.4213 -2.2122  0.7129
 7557TIP3   OH244085   5.402   1.353  15.135  0.2010 -0.6072 -0.6004
 7557TIP3    H144086   5.371   1.290  15.200  1.0413  0.2017  0.6402
 7557TIP3    H244087   5.488   1.319  15.109  2.0949  1.4219  2.3241
 7558TIP3   OH244088   6.495   1.498  14.805  0.2030 -0.2726  0.8315
 7558TIP3    H144089   6.558   1.510  14.877  1.4960  0.4371 -0.3787
 7558TIP3    H244090   6.454   1.584  14.794  0.5800 -0.1630  0.2239
 7559TIP3   OH244091   4.212   1.151   4.542 -0.4104  0.1299 -0.2701
 7559TIP3    H144092   4.131   1.110   4.512  0.0897 -1.2479  0.2096
 7559TIP3    H244093   4.184   1.214   4.608 -1.1536  0.2930 -0.7270
 7560TIP3   OH244094   2.379   4.199   2.810 -0.6074  0.1085  0.0637
 7560TIP3    H144095   2.310   4.262   2.789  0.2883  0.0995 -3.6799
 7560TIP3    H244096   2.332   4.123   2.844 -1.8838  1.9137  2.6389
 7561TIP3   OH244097   1.907   4.971  14.324 -0.6175  0.2868  0.2730
 7561TIP3    H144098   1.907   4.964  14.228  0.0291 -1.8706  0.3685
 7561TIP3    H244099   1.834   4.915  14.351 -2.8538  3.3073  1.0122
 7562TIP3   OH244100   2.531   4.937   1.208  0.5312 -0.0027  0.3593
 7562TIP3    H144101   2.528   4.843   1.188  0.4102  0.0597  0.0695
 7562TIP3    H244102   2.487   4.945   1.293  3.1868 -0.5746  1.8836
 7563TIP3   OH244103   2.735   0.186  10.492  0.8011 -0.4691 -0.2045
 7563TIP3    H144104   2.796   0.183  10.419  0.4842 -1.9721 -0.4407
 7563TIP3    H244105   2.704   0.276  10.495  1.1961 -0.2766 -1.6036
 7564TIP3   OH244106   6.698   5.506   3.526  0.7132  0.6448 -0.2130
 7564TIP3    H144107   6.754   5.428   3.527 -0.1111  0.0312  1.1077
 7564TIP3    H244108   6.758   5.579   3.542  1.0915 -0.0566  1.7632
 7565TIP3   OH244109   6.551   3.384  14.531  1.0917  0.3308 -0.3741
 7565TIP3    H144110   6.523   3.384  14.623 -1.0865  0.1190 -0.9671
 7565TIP3    H244111   6.491   3.446  14.489  1.8988  0.2355 -1.6996
 7566TIP3   OH244112   3.639   2.570  17.122 -0.1318 -0.2904 -0.6674
 7566TIP3    H144113   3.621   2.634  17.054 -0.4776 -0.4265 -0.7074
 7566TIP3    H244114   3.633   2.619  17.204  2.6644  0.4449 -0.7932
 7567TIP3   OH244115   5.438   2.712  15.094 -0.4027  0.0704  0.6613
 7567TIP3    H144116   5.398   2.661  15.164 -1.2192 -1.2087 -0.6638
 7567TIP3    H244117   5.512   2.660  15.065 -0.4947  0.2364  0.1171
 7568TIP3   OH244118   3.021   6.553  14.407 -0.0346  0.4598 -0.1352
 7568TIP3    H144119   2.983   6.472  14.371  0.2879 -0.4010  1.3928
 7568TIP3    H244120   2.947   6.600  14.443 -0.0359  0.1669  0.2451
 7569TIP3   OH244121   1.143   5.158  13.597  0.0244 -0.2942  0.0865
 7569TIP3    H144122   1.072   5.106  13.634  0.8668 -1.9141 -0.4601
 7569TIP3    H244123   1.185   5.199  13.673 -1.1811  0.3006  0.4522
 7570TIP3   OH244124   2.182   4.434  11.325  0.0123 -0.0875  0.7967
 7570TIP3    H144125   2.109   4.473  11.373  0.1477  1.1884  0.0022
 7570TIP3    H244126   2.143   4.404  11.242  0.1345 -0.6480  0.9354
 7571TIP3   OH244127   6.324   0.317   4.937  0.1721  0.1016  0.2122
 7571TIP3    H144128   6.276   0.238   4.913 -0.0164 -0.2184  1.5494
 7571TIP3    H244129   6.313   0.324   5.032  1.7568  0.6816  0.3861
 7572TIP3   OH244130   5.703   3.089  16.381  0.0230 -0.3658 -0.1330
 7572TIP3    H144131   5.685   3.117  16.291  1.2847 -1.9680 -0.9276
 7572TIP3    H244132   5.643   3.142  16.435 -0.7622  0.6225 -1.8921
 7573TIP3   OH244133   4.516   6.613   5.587  0.2416 -0.5756  0.6936
 7573TIP3    H144134   4.451   6.554   5.626 -1.0393  1.2102  1.3686
 7573TIP3    H244135   4.510   6.693   5.640  0.5006  0.8872 -1.3882
 7574TIP3   OH244136   6.398   6.541   1.490  0.6628 -0.0054  0.1814
 7574TIP3    H144137   6.371   6.466   1.543 -0.7621  0.1342 -0.3066
 7574TIP3    H244138   6.420   6.609   1.554 -0.3172 -0.0804  0.6164
 7575TIP3   OH244139   5.157   5.465   5.802  0.3963  0.6895  0.4718
 7575TIP3    H144140   5.096   5.396   5.776 -0.7780  1.7243  0.3941
 7575TIP3    H244141   5.173   5.450   5.895  0.2987  0.2043  0.4103
 7576TIP3   OH244142   1.802   2.859   4.903  0.3619  0.1062  0.4193
 7576TIP3    H144143   1.750   2.879   4.982 -0.6147  1.3965 -0.4941
 7576TIP3    H244144   1.877   2.918   4.908  0.4881 -0.0657  0.5587
 7577TIP3   OH244145   1.528   6.239  16.843 -0.0094 -0.1150 -0.0967
 7577TIP3    H144146   1.461   6.206  16.903 -0.9290  3.0137  0.7920
 7577TIP3    H244147   1.547   6.327  16.875  1.6242  0.5847 -2.7094
 7578TIP3   OH244148   4.983   0.325   5.809  0.0576  0.4049 -0.3736
 7578TIP3    H144149   5.053   0.274   5.850  1.2949 -0.5376 -3.3735
 7578TIP3    H244150   5.020   0.412   5.797 -0.3711  0.7333  0.6089
 7579TIP3   OH244151   6.385   5.770   5.100  0.2639 -0.4414  0.2394
 7579TIP3    H144152   6.431   5.840   5.147 -1.2536  1.4602 -0.9155
 7579TIP3    H244153   6.293   5.791   5.112 -0.2924 -2.9654  0.7935
 7580TIP3   OH244154   2.613   4.844  16.996  0.3507 -0.0446  0.6269
 7580TIP3    H144155   2.681   4.777  16.995 -0.4196 -0.8754 -1.0825
 7580TIP3    H244156   2.548   4.813  16.932 -0.7191  1.6341  0.8355
 7581TIP3   OH244157   2.295   5.536  16.039  0.2259 -0.0783  0.4348
 7581TIP3    H144158   2.220   5.507  15.987 -1.2474  0.5192  2.1280
 7581TIP3    H244159   2.332   5.455  16.075  1.8253 -0.6070 -2.0908
 7582TIP3   OH244160   2.085   4.383  11.798 -0.2354 -0.2790 -0.2724
 7582TIP3    H144161   2.118   4.364  11.886  0.7253 -0.7503 -0.7245
 7582TIP3    H244162   2.152   4.438  11.758 -1.5539  1.5802 -0.0637
 7583TIP3   OH244163   4.332   5.765  15.598  0.4621  0.6875  0.1589
 7583TIP3    H144164   4.380   5.703  15.653  1.4502  0.9173 -0.4239
 7583TIP3    H244165   4.391   5.783  15.525 -0.6812  0.6730 -0.7986
 7584TIP3   OH244166   4.465   0.840  14.346 -0.4957  0.6955  0.4534
 7584TIP3    H144167   4.423   0.757  14.323 -0.6004  0.5370  1.2174
 7584TIP3    H244168   4.539   0.816  14.401  0.2007  1.0285 -0.2972
 7585TIP3   OH244169   4.091   0.810  11.127 -0.1487  0.1149  0.0632
 7585TIP3    H144170   4.018   0.750  11.144  0.4334 -0.6713 -0.1627
 7585TIP3    H244171   4.114   0.795  11.035  1.9010 -1.4794  0.7685
 7586TIP3   OH244172   3.070   2.300  16.938  0.7631 -0.0722  0.1876
 7586TIP3    H144173   3.038   2.267  16.854  0.5620  0.9072 -0.1254
 7586TIP3    H244174   2.998   2.283  16.999  1.1013 -1.2460  0.2887
 7587TIP3   OH244175   4.199   2.176   5.517  0.1904  0.0361 -0.1211
 7587TIP3    H144176   4.151   2.214   5.444  0.5691  0.6617 -0.0522
 7587TIP3    H244177   4.290   2.174   5.487  0.2305 -0.4731  0.0215
 7588TIP3   OH244178   1.711   2.438  14.072 -0.6140 -0.3691 -0.0530
 7588TIP3    H144179   1.695   2.522  14.115  0.3585  0.0875 -0.5488
 7588TIP3    H244180   1.624   2.401  14.058 -1.1229  1.0553 -0.7981
 7589TIP3   OH244181   4.827   3.779   5.401  0.5898  0.7956  0.5394
 7589TIP3    H144182   4.916   3.794   5.370  0.4441 -0.7499 -0.7958
 7589TIP3    H244183   4.810   3.687   5.381 -1.0786  0.8847  1.3688
 7590TIP3   OH244184   5.167   1.851   1.435 -0.2424  0.3592 -0.9026
 7590TIP3    H144185   5.180   1.782   1.499  1.1008  1.9779  0.6577
 7590TIP3    H244186   5.073   1.849   1.416 -0.7863  0.1866  1.5666
 7591TIP3   OH244187   6.717   5.980   4.551  0.4874  1.0570  0.0337
 7591TIP3    H144188   6.716   5.905   4.610 -0.6676  0.8705 -0.1998
 7591TIP3    H244189   6.782   6.039   4.589  1.8512 -0.2981 -0.0980
 7592TIP3   OH244190   6.643   5.699   2.256  0.7257  0.3401 -0.1008
 7592TIP3    H144191   6.731   5.711   2.221  0.2945 -1.6240 -2.0863
 7592TIP3    H244192   6.643   5.609   2.290  0.0570  1.0261  1.8560
 7593TIP3   OH244193   6.505   6.784   4.743 -0.4842 -0.0455  0.3956
 7593TIP3    H144194   6.416   6.778   4.709 -0.6494 -0.1896  0.8485
 7593TIP3    H244195   6.496   6.773   4.838  0.1884 -1.9500  0.2885
 7594TIP3   OH244196   6.143   5.010   4.542 -0.4200 -0.7091 -0.4812
 7594TIP3    H144197   6.051   5.020   4.568  0.0425  0.6989  0.6906
 7594TIP3    H244198   6.176   5.099   4.534  0.6399 -1.1712 -1.7852
 7595TIP3   OH244199   4.594   4.292   4.151  0.0832  0.0860 -0.4148
 7595TIP3    H144200   4.570   4.236   4.078 -0.7347 -1.6111  1.0841
 7595TIP3    H244201   4.689   4.289   4.154  0.1106 -0.0262 -1.2300
 7596TIP3   OH244202   0.931   3.919   4.207  0.3200 -0.3971  0.3624
 7596TIP3    H144203   0.925   3.939   4.300 -0.7686  1.3475 -0.0326
 7596TIP3    H244204   0.848   3.877   4.185  0.4618 -0.5589  0.1305
 7597TIP3   OH244205   3.278   4.536   4.290  0.3308  0.0626 -0.0034
 7597TIP3    H144206   3.328   4.498   4.362  0.3366  1.4189  0.7378
 7597TIP3    H244207   3.270   4.629   4.312  0.3445  0.5260 -1.7522
 7598TIP3   OH244208   4.176   1.807  12.061  0.2127  0.6987 -0.3852
 7598TIP3    H144209   4.101   1.796  12.118  1.6750  0.8571  1.6940
 7598TIP3    H244210   4.216   1.720  12.056  0.4520  0.8191 -0.6416
 7599TIP3   OH244211   4.454   4.288  16.484  0.7033  0.2179  0.1492
 7599TIP3    H144212   4.424   4.334  16.562  1.0105  0.0653  0.3573
 7599TIP3    H244213   4.542   4.322  16.468  0.2689  0.9772 -0.7110
 7600TIP3   OH244214   0.623   5.108   5.827 -0.4301  0.1115  0.3167
 7600TIP3    H144215   0.561   5.053   5.780  0.0362 -0.3487  0.2267
 7600TIP3    H244216   0.703   5.055   5.832 -0.7041 -0.1700  2.3075
 7601TIP3   OH244217   6.010   0.363   4.682 -0.4486  0.3976 -0.4372
 7601TIP3    H144218   6.036   0.284   4.730 -1.3045  1.3617  1.7378
 7601TIP3    H244219   5.920   0.345   4.654 -0.7411  0.6756  0.2959
 7602TIP3   OH244220   4.655   6.154   3.708 -0.3107 -0.0836  0.1104
 7602TIP3    H144221   4.727   6.198   3.754 -0.9067  1.0489 -0.0244
 7602TIP3    H244222   4.590   6.137   3.777 -0.3107 -0.2808  0.0629
 7603TIP3   OH244223   1.061   3.386  15.484 -0.0268 -0.3010  0.3446
 7603TIP3    H144224   0.979   3.381  15.532 -1.1713  0.2062 -1.4370
 7603TIP3    H244225   1.128   3.400  15.551 -1.5944  1.0417  1.7198
 7604TIP3   OH244226   5.133   1.769  10.281  0.0217  0.0258  0.2012
 7604TIP3    H144227   5.225   1.743  10.278  0.2812  0.8699  0.4595
 7604TIP3    H244228   5.096   1.737  10.199  0.6775  0.1445 -0.1482
 7605TIP3   OH244229   0.163   2.681  15.414  0.2307 -0.3191  0.1168
 7605TIP3    H144230   0.067   2.689  15.415  0.3433  1.7037 -0.7163
 7605TIP3    H244231   0.193   2.744  15.479  1.0053 -0.5379 -0.0179
 7606TIP3   OH244232   1.884   4.855  16.606 -0.8828  0.4736  0.0496
 7606TIP3    H144233   1.839   4.845  16.522 -0.2884  0.1828 -0.2379
 7606TIP3    H244234   1.855   4.780  16.659 -1.4558  0.7951  0.2032
 7607TIP3   OH244235   3.055   0.293   1.606  0.0705 -0.0531 -0.0477
 7607TIP3    H144236   2.965   0.259   1.610  0.1073 -0.0477  1.3342
 7607TIP3    H244237   3.056   0.348   1.528 -0.8541 -0.8117 -0.6166
 7608TIP3   OH244238   4.169   4.421  14.815 -0.3891 -0.5657 -0.8986
 7608TIP3    H144239   4.148   4.338  14.772  0.8011 -0.3965 -1.8802
 7608TIP3    H244240   4.085   4.453  14.849 -1.3586 -0.8223 -2.9215
 7609TIP3   OH244241   5.033   1.222  14.234  0.8662 -0.0591  0.0792
 7609TIP3    H144242   4.964   1.207  14.298 -1.1448 -1.7115 -2.2834
 7609TIP3    H244243   4.999   1.288  14.175  1.4061 -0.6606 -0.9488
 7610TIP3   OH244244   4.779   1.387  13.031  0.1445  0.0558  0.2730
 7610TIP3    H144245   4.803   1.295  13.032 -1.4690 -0.3940  0.6778
 7610TIP3    H244246   4.862   1.434  13.029  0.9841 -1.4037 -0.8130
 7611TIP3   OH244247   1.354   2.539   6.136  0.4973 -0.1847  0.1313
 7611TIP3    H144248   1.333   2.476   6.067 -0.2225  0.1387  0.0538
 7611TIP3    H244249   1.274   2.590   6.148  1.5643  1.8924 -1.0279
 7612TIP3   OH244250   0.656   6.150   3.370  0.0631  0.3049  0.1256
 7612TIP3    H144251   0.642   6.245   3.364 -1.3874  0.1751  0.9947
 7612TIP3    H244252   0.568   6.113   3.374  0.6128 -0.9476  1.6178
 7613TIP3   OH244253   5.836   2.397   0.266 -0.8565  0.4799  0.5056
 7613TIP3    H144254   5.863   2.417   0.356  1.5705 -0.4336  0.0440
 7613TIP3    H244255   5.874   2.467   0.213 -0.7628  0.0602  0.0071
 7614TIP3   OH244256   1.402   0.587  13.550  0.5164  0.3716  0.0377
 7614TIP3    H144257   1.452   0.636  13.616  1.1491  0.2407 -0.3325
 7614TIP3    H244258   1.456   0.510  13.532 -1.6765 -1.9583  2.5946
 7615TIP3   OH244259   0.715   0.382   2.681 -0.5492 -0.2865 -0.2658
 7615TIP3    H144260   0.751   0.294   2.670 -0.3068 -0.0901 -1.1499
 7615TIP3    H244261   0.781   0.429   2.732 -0.7160 -0.6373  0.2755
 7616TIP3   OH244262   2.683   1.053  10.898  0.1849  0.2183 -0.4981
 7616TIP3    H144263   2.759   1.105  10.870 -0.7543  2.0091  0.0935
 7616TIP3    H244264   2.635   1.036  10.817 -0.4007  1.8463 -0.5323
 7617TIP3   OH244265   0.841   4.876   2.330  0.1636 -0.1979 -0.0400
 7617TIP3    H144266   0.813   4.933   2.401  1.8259 -0.4810  0.8966
 7617TIP3    H244267   0.765   4.869   2.273 -0.2722  2.4462  0.1185
 7618TIP3   OH244268   3.851   5.920   3.717 -0.3133  0.5276  0.5642
 7618TIP3    H144269   3.760   5.948   3.710 -0.7028 -0.6026  0.8345
 7618TIP3    H244270   3.852   5.832   3.677  0.3784 -0.0148  1.7326
 7619TIP3   OH244271   0.766   5.587  14.801  1.1225  0.1367 -0.4054
 7619TIP3    H144272   0.730   5.505  14.766  0.9645 -0.0557  0.1962
 7619TIP3    H244273   0.703   5.654  14.774  0.6032 -0.1173  0.1549
 7620TIP3   OH244274   5.149   5.136   0.240 -0.2791 -0.7303 -0.3739
 7620TIP3    H144275   5.210   5.209   0.232  0.0533 -0.9089  0.4089
 7620TIP3    H244276   5.160   5.086   0.159 -0.0455 -0.2653 -0.6312
 7621TIP3   OH244277   5.722   6.496  15.620 -0.2741 -0.3192  0.0972
 7621TIP3    H144278   5.774   6.427  15.660 -1.2427 -1.0297  0.1669
 7621TIP3    H244279   5.716   6.472  15.528  0.4035  0.3371 -0.1312
 7622TIP3   OH244280   3.301   6.636   4.616 -0.0748 -0.2129 -0.4524
 7622TIP3    H144281   3.275   6.645   4.708 -2.2564  0.6524 -1.0753
 7622TIP3    H244282   3.393   6.611   4.619 -0.1538 -0.4587  1.9629
 7623TIP3   OH244283   1.765   3.780  12.560  0.1839  0.1946 -0.8651
 7623TIP3    H144284   1.688   3.739  12.599  0.5362  0.1141 -0.2424
 7623TIP3    H244285   1.820   3.804  12.635  0.3611  1.0563 -1.2575
 7624TIP3   OH244286   6.103   1.207   0.800 -0.4587 -0.4239 -0.2178
 7624TIP3    H144287   6.080   1.198   0.707  1.8117 -1.7122 -0.7215
 7624TIP3    H244288   6.126   1.299   0.809 -1.1090 -0.1861 -0.8012
 7625TIP3   OH244289   1.206   0.405  11.373 -0.2271 -0.0245 -0.3254
 7625TIP3    H144290   1.154   0.469  11.325  0.6831  0.3570 -0.8142
 7625TIP3    H244291   1.274   0.378  11.312  0.7486  0.2170  0.6312
 7626TIP3   OH244292   0.316   3.325   4.761 -0.0158  0.5572  0.3004
 7626TIP3    H144293   0.271   3.404   4.791 -2.2137  1.0173 -3.5674
 7626TIP3    H244294   0.245   3.263   4.742  1.4779 -1.1865  0.1149
 7627TIP3   OH244295   1.676   4.147   6.365 -0.8010  0.2821 -0.0921
 7627TIP3    H144296   1.704   4.062   6.398 -1.5370  0.2274  0.3956
 7627TIP3    H244297   1.755   4.184   6.325  0.4108  0.7709  2.5407
 7628TIP3   OH244298   3.324   1.696   0.438  0.1799 -0.1772  0.0000
 7628TIP3    H144299   3.369   1.776   0.465  1.0363 -0.7971  0.4718
 7628TIP3    H244300   3.388   1.626   0.453 -1.0058 -1.1201  0.8452
 7629TIP3   OH244301   1.738   2.781  15.529 -0.1951 -0.1880 -0.3590
 7629TIP3    H144302   1.674   2.738  15.586  0.1875 -0.4796 -0.1431
 7629TIP3    H244303   1.686   2.837  15.472 -0.9058 -2.2395 -1.8278
 7630TIP3   OH244304   6.540   4.270   2.362  0.4428  0.0163  0.1121
 7630TIP3    H144305   6.512   4.306   2.446 -0.3287 -2.1070  0.8294
 7630TIP3    H244306   6.558   4.177   2.380  1.2992 -0.2582 -1.8380
 7631TIP3   OH244307   0.518   4.607  16.495  0.3595  0.2542  0.1815
 7631TIP3    H144308   0.505   4.675  16.428  1.5037 -1.2393 -1.6771
 7631TIP3    H244309   0.612   4.608  16.512  0.2032 -0.0193  1.0856
 7632TIP3   OH244310   0.137   1.972  15.305 -0.3785  0.5323 -0.2399
 7632TIP3    H144311   0.198   2.045  15.310  1.5961 -0.8554 -2.0783
 7632TIP3    H244312   0.158   1.929  15.222 -1.8988 -1.7292  0.4490
 7633TIP3   OH244313   4.189   5.409  16.172  0.0837 -0.3939  0.2511
 7633TIP3    H144314   4.208   5.463  16.095  2.6009 -0.7049  0.5535
 7633TIP3    H244315   4.202   5.319  16.141  2.6605 -0.4753  1.2865
 7634TIP3   OH244316   4.522   6.121  12.701  0.0303  0.6608 -0.1232
 7634TIP3    H144317   4.562   6.159  12.623 -0.1391  0.8762 -0.1067
 7634TIP3    H244318   4.428   6.119  12.682  0.1639 -1.4257 -0.8681
 7635TIP3   OH244319   3.658   1.891  15.769 -0.2105  0.3540 -0.2789
 7635TIP3    H144320   3.622   1.904  15.681 -0.3218  0.8192 -0.1669
 7635TIP3    H244321   3.593   1.836  15.813  0.3881 -0.8337 -0.8388
 7636TIP3   OH244322   5.454   0.688  13.774  0.2944 -0.0186  0.3783
 7636TIP3    H144323   5.433   0.764  13.829 -0.5101 -0.8541  1.2514
 7636TIP3    H244324   5.470   0.726  13.687 -1.3016  1.0580  0.4946
 7637TIP3   OH244325   3.533   1.713  15.960 -0.1686 -0.3780 -0.1799
 7637TIP3    H144326   3.600   1.650  15.986  0.9580  0.5756 -0.7193
 7637TIP3    H244327   3.511   1.759  16.041  1.7069  1.0423 -0.4048
 7638TIP3   OH244328   0.081   5.437   0.276 -0.0507 -0.1895  0.2762
 7638TIP3    H144329   0.117   5.361   0.323  1.4397  0.6264  0.4888
 7638TIP3    H244330  -0.011   5.440   0.305  0.4435 -0.5846  2.0223
 7639TIP3   OH244331   4.700   0.975  15.512  0.3494 -0.1188 -0.0740
 7639TIP3    H144332   4.685   0.956  15.419  0.5742  1.1972 -0.3983
 7639TIP3    H244333   4.652   0.906  15.558 -0.5430 -0.2650 -1.1607
 7640TIP3   OH244334   0.487   4.796  16.284  0.9004  0.2413 -0.3731
 7640TIP3    H144335   0.578   4.806  16.257  0.4486 -0.0956 -2.1240
 7640TIP3    H244336   0.436   4.823  16.208 -0.4840  0.7096  0.6803
 7641TIP3   OH244337   5.660   3.559   4.914 -0.5113  0.3706 -0.3793
 7641TIP3    H144338   5.664   3.530   5.005 -2.0155 -1.6909 -0.8989
 7641TIP3    H244339   5.658   3.655   4.920  3.2131  0.5285  1.4999
 7642TIP3   OH244340   6.087   0.662  15.072  0.4472 -0.4122 -0.3126
 7642TIP3    H144341   6.097   0.669  14.977 -0.1186 -0.6948 -0.3953
 7642TIP3    H244342   6.132   0.580  15.094 -0.1114 -0.7635 -0.4497
 7643TIP3   OH244343   0.175   0.163  11.051  0.2341 -0.5310  0.4557
 7643TIP3    H144344   0.202   0.231  10.989 -0.1184 -1.2382 -0.4883
 7643TIP3    H244345   0.201   0.081  11.010 -1.1878 -1.0936  0.6249
 7644TIP3   OH244346   4.557   6.444  10.492  0.2128  0.3743 -0.3111
 7644TIP3    H144347   4.529   6.403  10.574  0.3758  0.2494 -0.3180
 7644TIP3    H244348   4.515   6.530  10.493  1.1612  0.8530  0.4698
 7645TIP3   OH244349   0.762   3.537  14.084  0.1063  0.4121 -0.2220
 7645TIP3    H144350   0.770   3.587  14.165 -0.0003  0.8859 -0.5023
 7645TIP3    H244351   0.739   3.602  14.017 -0.2949 -0.0421 -0.5386
 7646TIP3   OH244352   0.933   3.490   3.472 -0.2488  0.3168  0.1269
 7646TIP3    H144353   0.891   3.555   3.415 -1.2769  0.1813  0.7121
 7646TIP3    H244354   0.975   3.541   3.541  0.1004  0.4229 -0.1599
 7647TIP3   OH244355   0.440   6.620  12.909 -0.1460 -0.3673  0.0837
 7647TIP3    H144356   0.376   6.549  12.912  0.5619 -1.0015  0.4501
 7647TIP3    H244357   0.523   6.578  12.928  0.6096  0.1811 -1.7987
 7648TIP3   OH244358   4.771   3.010  14.545  0.0286  0.4499  0.0845
 7648TIP3    H144359   4.798   3.056  14.625  1.3245  0.5295 -0.3787
 7648TIP3    H244360   4.792   2.918  14.562  1.9686  0.6926 -0.8025
 7649TIP3   OH244361   5.296   1.518  11.777  0.0016  0.0395  0.4886
 7649TIP3    H144362   5.289   1.552  11.688 -1.3028  0.6802  0.8104
 7649TIP3    H244363   5.324   1.427  11.766  1.7915  0.6587 -0.4660
 7650TIP3   OH244364   3.538   0.534   0.901 -0.3047  0.4170  0.1463
 7650TIP3    H144365   3.462   0.562   0.851  0.0686  0.9563 -0.1281
 7650TIP3    H244366   3.517   0.558   0.991 -0.6159  0.2194  0.1293
 7651TIP3   OH244367   2.157   6.291  16.709  0.1636  0.0479  0.2059
 7651TIP3    H144368   2.246   6.296  16.674  0.3544  1.3682  0.8064
 7651TIP3    H244369   2.149   6.368  16.765 -1.1015 -0.4699  0.7835
 7652TIP3   OH244370   0.083   2.091   4.339  0.1673  0.2874  0.5918
 7652TIP3    H144371   0.064   2.089   4.433  1.6405  0.0490  0.9124
 7652TIP3    H244372  -0.003   2.088   4.297 -0.4981 -0.2820  1.9252
 7653TIP3   OH244373   1.096   2.397  15.981  0.0624  0.3087  0.2788
 7653TIP3    H144374   1.010   2.362  16.006  0.7362 -2.4952 -0.8931
 7653TIP3    H244375   1.100   2.482  16.024 -2.3243 -0.4673  2.3449
 7654TIP3   OH244376   6.697   1.340   4.489  0.2698  0.5322  0.9563
 7654TIP3    H144377   6.714   1.247   4.475  1.1604  0.6227  1.3606
 7654TIP3    H244378   6.604   1.351   4.468  0.1660 -0.4366  0.8705
 7655TIP3   OH244379   1.454   5.129  16.289 -0.1888  0.6359 -0.5724
 7655TIP3    H144380   1.387   5.106  16.225 -0.6908  0.3360  0.0525
 7655TIP3    H244381   1.483   5.045  16.324  1.3986  0.6704 -1.7006
 7656TIP3   OH244382   1.928   5.305  14.992 -0.6112 -0.3590 -0.0476
 7656TIP3    H144383   1.871   5.354  15.051 -0.1268 -0.2744  0.3642
 7656TIP3    H244384   2.017   5.330  15.019 -0.3837  0.0690 -1.1444
 7657TIP3   OH244385   2.078   6.480   2.438 -0.2467  0.0818  0.3457
 7657TIP3    H144386   2.022   6.406   2.464  1.9097 -1.2042  1.6826
 7657TIP3    H244387   2.141   6.487   2.509  0.9496  1.8390 -0.8242
 7658TIP3   OH244388   5.724   3.386  14.883  0.2036  0.6264 -0.3204
 7658TIP3    H144389   5.663   3.448  14.922  0.9554  0.6398  0.8906
 7658TIP3    H244390   5.769   3.435  14.814 -0.0072  1.0860 -0.1312
 7659TIP3   OH244391   2.912   1.458   1.279  0.1292  0.1903  0.1408
 7659TIP3    H144392   2.978   1.490   1.342 -1.3136  0.3391  1.6590
 7659TIP3    H244393   2.845   1.527   1.278  0.3018  0.3918 -1.9379
 7660TIP3   OH244394   4.635   3.450   0.199  0.0089  0.5388  0.2210
 7660TIP3    H144395   4.563   3.425   0.141 -0.8829  2.1577  0.5897
 7660TIP3    H244396   4.685   3.514   0.148  0.1933  0.7091  0.6136
 7661TIP3   OH244397   0.379   5.366   5.781  0.5538 -0.2759  0.1226
 7661TIP3    H144398   0.365   5.387   5.689  1.2005 -1.1417 -0.1801
 7661TIP3    H244399   0.474   5.358   5.790  0.5578  0.5381  1.0359
 7662TIP3   OH244400   1.971   3.396  10.919  0.5585  0.3914 -0.2670
 7662TIP3    H144401   2.030   3.364  10.851  1.0439  1.8477 -0.5809
 7662TIP3    H244402   1.892   3.422  10.872 -0.6140 -2.0779  0.2208
 7663TIP3   OH244403   1.353   5.825   5.217  0.1123 -0.3408 -0.5153
 7663TIP3    H144404   1.339   5.862   5.304  0.8049 -1.6102  0.1653
 7663TIP3    H244405   1.339   5.898   5.157  0.0128  0.6524  0.6879
 7664TIP3   OH244406   5.606   2.494   1.827 -0.3832  0.3055 -0.3827
 7664TIP3    H144407   5.626   2.484   1.920  1.6148 -2.4500 -0.9542
 7664TIP3    H244408   5.686   2.531   1.789  0.5065 -2.4290 -1.4659
 7665TIP3   OH244409   6.063   5.397   6.751 -0.2798  0.3979  0.3703
 7665TIP3    H144410   6.103   5.480   6.725  1.0744 -0.0290  1.0019
 7665TIP3    H244411   5.978   5.422   6.787 -1.4644  1.1629 -2.6703
 7666TIP3   OH244412   2.131   2.062  13.778  0.1307  0.0952  0.4709
 7666TIP3    H144413   2.135   2.132  13.843  0.8470 -0.1435  0.6954
 7666TIP3    H244414   2.084   1.991  13.822  0.2653  0.0786  0.5875
 7667TIP3   OH244415   4.766   1.483  16.184 -0.0580 -0.4574 -0.1575
 7667TIP3    H144416   4.831   1.432  16.232 -0.5782 -0.2370  0.8044
 7667TIP3    H244417   4.739   1.427  16.112 -0.0056 -1.2011  0.3971
 7668TIP3   OH244418   0.956   6.362   4.897 -0.2143  0.4305  0.1032
 7668TIP3    H144419   0.974   6.342   4.989 -0.3546  0.6249  0.1714
 7668TIP3    H244420   0.871   6.406   4.898 -0.7963 -0.6412 -0.2344
 7669TIP3   OH244421   2.972   2.855   4.052 -0.0020  0.5819 -0.2321
 7669TIP3    H144422   3.032   2.929   4.046  3.0408 -1.4343  2.0884
 7669TIP3    H244423   2.974   2.815   3.965 -0.0841  2.0324 -0.9271
 7670TIP3   OH244424   4.444   5.974  15.992 -0.0072 -0.2284  0.7119
 7670TIP3    H144425   4.518   6.030  15.969 -0.3947 -0.2473 -0.6429
 7670TIP3    H244426   4.395   5.963  15.911 -0.9528 -1.0431  1.3579
 7671TIP3   OH244427   1.143   5.587  12.598 -0.2270  0.1796 -0.8049
 7671TIP3    H144428   1.153   5.648  12.672  0.4299 -0.5328 -0.2815
 7671TIP3    H244429   1.049   5.583  12.583 -0.9216 -2.8219  2.7767
 7672TIP3   OH244430   2.570   1.847  11.976  0.2520 -0.2418  0.6247
 7672TIP3    H144431   2.637   1.907  11.943  1.0515 -0.5938  1.5272
 7672TIP3    H244432   2.501   1.903  12.009  1.1183  0.2246  1.7211
 7673TIP3   OH244433   3.643   3.172   2.726 -0.3320 -0.6720  0.1585
 7673TIP3    H144434   3.643   3.183   2.631 -0.1900 -1.7611  0.0169
 7673TIP3    H244435   3.618   3.258   2.760 -1.4727 -0.5594 -0.8934
 7674TIP3   OH244436   4.097   4.327  15.857 -0.1153  0.2109 -0.2102
 7674TIP3    H144437   4.118   4.283  15.940 -0.1494 -2.2920 -1.4548
 7674TIP3    H244438   4.176   4.317  15.804  0.5707  3.3222  0.0072
 7675TIP3   OH244439   4.808   3.187   3.776  0.1823 -0.4417 -0.1501
 7675TIP3    H144440   4.848   3.213   3.693 -0.2187 -0.0895 -0.2330
 7675TIP3    H244441   4.811   3.091   3.774  1.9960 -0.4311  0.3280
 7676TIP3   OH244442   2.226   3.529   4.215 -0.0095  0.4971 -0.3426
 7676TIP3    H144443   2.315   3.558   4.235 -0.1910  1.0233 -0.2735
 7676TIP3    H244444   2.237   3.452   4.159  0.5002 -0.3548  0.8760
 7677TIP3   OH244445   4.683   0.993   4.949 -0.0584  0.1449  0.7673
 7677TIP3    H144446   4.668   0.965   4.859 -1.2794 -0.3396  1.1106
 7677TIP3    H244447   4.716   1.083   4.941  0.4544 -0.1166 -0.1744
 7678TIP3   OH244448   1.359   1.950  14.416 -0.0136 -0.5952 -0.0674
 7678TIP3    H144449   1.288   1.891  14.440 -1.0878  0.7543  0.1865
 7678TIP3    H244450   1.430   1.928  14.476 -0.4466 -1.5086  0.1243
 7679TIP3   OH244451   5.279   4.733   3.095 -0.3734  0.2197 -0.2531
 7679TIP3    H144452   5.231   4.693   3.168  0.5906 -3.8077 -1.5270
 7679TIP3    H244453   5.242   4.691   3.017  3.3504 -1.2750 -1.4511
 7680TIP3   OH244454   3.582   2.881  15.541  0.0437 -0.0936  0.7182
 7680TIP3    H144455   3.538   2.841  15.616 -1.8107 -0.6164 -0.5738
 7680TIP3    H244456   3.515   2.936  15.501  1.7060  2.1287  0.7922
 7681TIP3   OH244457   2.176   0.274  15.775  0.2739 -0.2414  0.8946
 7681TIP3    H144458   2.138   0.278  15.862 -0.7061 -0.4951  0.4943
 7681TIP3    H244459   2.221   0.358  15.764 -1.0230  0.4814  1.0049
 7682TIP3   OH244460   5.606   1.300   4.475  0.1111  0.1437 -0.8027
 7682TIP3    H144461   5.603   1.246   4.554  0.2127  0.4510 -0.5867
 7682TIP3    H244462   5.651   1.245   4.410  0.6589  0.1518 -0.4379
 7683TIP3   OH244463   3.339   5.341  16.282 -0.2364 -0.0982 -0.3962
 7683TIP3    H144464   3.291   5.267  16.321 -0.6949  0.4817  0.1589
 7683TIP3    H244465   3.427   5.335  16.319 -0.3919 -0.1209 -0.0317
 7684TIP3   OH244466   5.620   1.230  14.957 -0.3022 -0.2786 -0.0157
 7684TIP3    H144467   5.713   1.249  14.951 -0.2851 -0.3895 -0.1021
 7684TIP3    H244468   5.608   1.149  14.907 -0.7550  0.7367 -1.6142
 7685TIP3   OH244469   4.272   4.994  12.175  0.4769 -0.4063  0.3035
 7685TIP3    H144470   4.321   5.064  12.217  0.3661 -0.2373  0.1492
 7685TIP3    H244471   4.294   4.916  12.226  0.8841 -0.3263  0.2514
 7686TIP3   OH244472   1.006   3.742   1.793  0.6264  0.7404 -0.1774
 7686TIP3    H144473   1.024   3.721   1.701  0.4874 -2.3186  0.4029
 7686TIP3    H244474   0.913   3.764   1.795  0.4664  0.1516 -0.7058
 7687TIP3   OH244475   2.588   1.899  11.164 -0.0522 -0.2288  0.2666
 7687TIP3    H144476   2.667   1.860  11.201 -0.4619 -0.2488  1.1539
 7687TIP3    H244477   2.603   1.899  11.069  0.8830 -0.4924  0.4046
 7688TIP3   OH244478   1.111   0.458  15.471 -0.3223  0.1146 -0.0405
 7688TIP3    H144479   1.138   0.383  15.524  0.1679 -0.4499 -1.0464
 7688TIP3    H244480   1.048   0.421  15.409  0.0001  0.5029 -0.6095
 7689TIP3   OH244481   0.340   1.726  13.488  0.4604 -0.4020 -0.4299
 7689TIP3    H144482   0.353   1.716  13.393 -0.0645 -0.3441 -0.5122
 7689TIP3    H244483   0.418   1.686  13.527 -0.5588 -2.8986 -0.8031
 7690TIP3   OH244484   4.691   2.182  14.177 -0.6800 -0.6043 -0.7059
 7690TIP3    H144485   4.604   2.201  14.214 -0.2348 -0.7373  0.4365
 7690TIP3    H244486   4.752   2.208  14.245  0.0726 -3.5608 -0.0953
 7691TIP3   OH244487   0.824   1.354  13.359 -0.1684  0.1233 -0.0698
 7691TIP3    H144488   0.758   1.286  13.348 -0.9063  0.9249 -0.6743
 7691TIP3    H244489   0.905   1.306  13.378 -0.1341 -1.0938 -2.8032
 7692TIP3   OH244490   1.030   0.433  13.776  0.0879  0.5881  0.6679
 7692TIP3    H144491   1.090   0.375  13.730 -0.3804  1.2372 -0.8176
 7692TIP3    H244492   0.992   0.487  13.707 -1.5597  0.7714  1.6829
 7693TIP3   OH244493   6.773   4.314  14.109  0.1991 -0.1958 -0.3996
 7693TIP3    H144494   6.769   4.246  14.042 -0.7574 -1.0992  0.5518
 7693TIP3    H244495   6.864   4.313  14.138  0.2321 -0.9429 -0.5218
 7694TIP3   OH244496   4.187   4.164   0.692  0.3830 -0.0416  0.1858
 7694TIP3    H144497   4.246   4.135   0.623  0.1513  2.1910 -1.0032
 7694TIP3    H244498   4.213   4.254   0.711 -0.1666 -0.2731  2.3864
 7695TIP3   OH244499   3.301   5.506   1.973  0.4747  0.0253 -0.3049
 7695TIP3    H144500   3.224   5.554   2.002 -0.0994 -0.3336 -1.2069
 7695TIP3    H244501   3.277   5.471   1.888  2.6352  2.4222 -2.0704
 7696TIP3   OH244502   3.872   3.518   5.718  0.4167  0.5688 -0.0393
 7696TIP3    H144503   3.878   3.466   5.638 -1.2825  0.7057 -0.2863
 7696TIP3    H244504   3.799   3.480   5.766  0.9867  0.9199  1.1499
 7697TIP3   OH244505   6.115   3.776  16.424 -0.3584  0.0955  0.2028
 7697TIP3    H144506   6.138   3.707  16.487  1.1152  2.1797  2.0753
 7697TIP3    H244507   6.086   3.849  16.477  0.1454  1.6861 -1.5932
 7698TIP3   OH244508   3.926   3.460  14.842  0.0751  0.3906  0.0413
 7698TIP3    H144509   3.897   3.548  14.866 -0.8646  0.4326 -1.1412
 7698TIP3    H244510   3.929   3.462  14.746 -0.9918 -1.1816 -0.0492
 7699TIP3   OH244511   1.030   2.002   0.944  0.0682  0.3010 -0.0570
 7699TIP3    H144512   1.012   2.075   1.004 -0.6965 -0.5862  0.8258
 7699TIP3    H244513   1.122   2.014   0.919  0.1142  1.2446  0.5176
 7700TIP3   OH244514   5.448   0.415   4.222  0.2689 -0.4250  0.1696
 7700TIP3    H144515   5.398   0.435   4.301 -1.1681  1.2257 -1.0716
 7700TIP3    H244516   5.517   0.482   4.219 -0.0625 -0.0940 -0.2653
 7701TIP3   OH244517   5.394   2.952   0.203  0.0203 -0.1102  0.1793
 7701TIP3    H144518   5.479   2.914   0.180  0.5974  0.4637  1.2863
 7701TIP3    H244519   5.386   2.939   0.298 -1.0144  0.0778  0.1389
 7702TIP3   OH244520   0.351   3.896   1.998  0.1207 -0.1319 -0.6529
 7702TIP3    H144521   0.307   3.813   1.978 -3.5239  1.2455  0.8765
 7702TIP3    H244522   0.295   3.963   1.959 -0.1994  1.8735  2.9104
 7703TIP3   OH244523   5.155   0.732  16.356 -0.7120  0.7518  0.3078
 7703TIP3    H144524   5.199   0.732  16.272  0.3560 -0.7268  0.8301
 7703TIP3    H244525   5.132   0.641  16.372 -1.1311  1.0382  1.5063
 7704TIP3   OH244526   1.458   6.246   3.111 -0.3003 -0.2467 -0.6451
 7704TIP3    H144527   1.547   6.258   3.078 -1.2584  2.4661 -2.5753
 7704TIP3    H244528   1.431   6.160   3.080  2.1389 -1.9172  1.4674
 7705TIP3   OH244529   3.898   3.220  15.013  0.0728 -0.1834  0.4694
 7705TIP3    H144530   3.945   3.137  15.015 -0.2494 -0.3560  0.9591
 7705TIP3    H244531   3.963   3.284  14.985  0.3200 -0.6015  0.0862
 7706TIP3   OH244532   5.724   1.914  13.528 -0.2577 -0.3603  0.5711
 7706TIP3    H144533   5.735   1.839  13.586 -0.1568  0.1557  1.2456
 7706TIP3    H244534   5.642   1.955  13.556  0.2979  0.4720  1.0526
 7707TIP3   OH244535   4.510   0.451   0.908 -0.1957  0.4679 -0.3602
 7707TIP3    H144536   4.563   0.398   0.967 -2.3180 -0.1485  1.1123
 7707TIP3    H244537   4.524   0.411   0.822  1.7973  0.4383 -0.0670
 7708TIP3   OH244538   6.169   0.787   4.527 -0.1887  0.0951 -0.1798
 7708TIP3    H144539   6.250   0.834   4.510 -0.0752  0.3039  0.9173
 7708TIP3    H244540   6.100   0.849   4.505 -0.0742 -0.1116 -1.1974
 7709TIP3   OH244541   1.188   1.847   6.068  0.5268  0.1312  0.4662
 7709TIP3    H144542   1.201   1.753   6.076  0.4002  0.2046  1.7526
 7709TIP3    H244543   1.240   1.872   5.992 -0.7369 -1.2138 -0.9122
 7710TIP3   OH244544   1.170   5.464   3.768 -0.3414  0.2058  0.1861
 7710TIP3    H144545   1.089   5.418   3.749  0.7217 -0.4847 -3.4955
 7710TIP3    H244546   1.157   5.552   3.733  0.6972 -0.1579 -1.2212
 7711TIP3   OH244547   0.160   4.417   5.166 -0.8579 -1.0666  0.0856
 7711TIP3    H144548   0.142   4.326   5.188 -0.7208 -1.0347  0.3344
 7711TIP3    H244549   0.254   4.426   5.178 -1.1474 -0.3275  2.2246
 7712TIP3   OH244550   3.359   2.989  14.637  0.0114 -0.0978  0.6606
 7712TIP3    H144551   3.271   2.955  14.653 -0.7017 -0.3942 -3.1422
 7712TIP3    H244552   3.379   3.042  14.715 -3.4996  0.0195  1.6237
 7713TIP3   OH244553   2.040   3.703   2.884  0.8716  0.3950 -0.2703
 7713TIP3    H144554   2.011   3.621   2.925 -2.7799  1.1077 -1.0230
 7713TIP3    H244555   2.070   3.758   2.956 -1.4736  0.1368  0.9956
 7714TIP3   OH244556   2.322   0.126  12.271 -0.4566  0.5559  0.3182
 7714TIP3    H144557   2.333   0.064  12.200  0.9588 -0.3227  1.2540
 7714TIP3    H244558   2.399   0.113  12.327  0.1596  3.4817  0.3146
 7715TIP3   OH244559   3.327   3.900  16.304 -0.0565  0.2483 -0.7850
 7715TIP3    H144560   3.350   3.957  16.231  0.1147  0.0718 -0.8704
 7715TIP3    H244561   3.243   3.934  16.336  0.0801  0.5911 -0.7883
 7716TIP3   OH244562   2.745   0.437   2.233 -0.1694 -0.2534 -0.9935
 7716TIP3    H144563   2.766   0.411   2.323  2.4270 -0.4088 -1.5656
 7716TIP3    H244564   2.660   0.480   2.240  0.1530  0.1472  1.6003
 7717TIP3   OH244565   0.377   4.150  14.552 -0.2546 -0.6455 -0.3697
 7717TIP3    H144566   0.366   4.214  14.482 -0.9473  0.4631  0.7264
 7717TIP3    H244567   0.464   4.168  14.587 -0.9141  0.5868  0.7501
 7718TIP3   OH244568   0.899   3.727  16.912 -0.2850 -0.4359  0.2163
 7718TIP3    H144569   0.927   3.681  16.833 -2.7195 -0.9869 -0.4134
 7718TIP3    H244570   0.897   3.659  16.980  0.2120 -0.3233  0.3436
 7719TIP3   OH244571   0.410   2.983   6.172 -0.2096 -0.0203 -0.7070
 7719TIP3    H144572   0.410   2.934   6.255 -0.3705 -0.0627 -0.7314
 7719TIP3    H244573   0.488   2.952   6.126  0.3496  0.6203 -0.2134
 7720TIP3   OH244574   6.427   1.898   5.533 -0.0433  0.1858  0.0331
 7720TIP3    H144575   6.358   1.903   5.599 -0.4394 -0.6168 -0.3075
 7720TIP3    H244576   6.499   1.854   5.577 -0.4004 -0.5840 -0.1303
 7721TIP3   OH244577   5.510   0.077   6.538  0.4401  0.6006 -0.4592
 7721TIP3    H144578   5.466   0.134   6.602  0.6530  0.5264 -0.2466
 7721TIP3    H244579   5.473  -0.010   6.555 -0.9210  0.9018 -1.7054
 7722TIP3   OH244580   3.317   5.741  11.720  0.3926  0.0078 -0.7198
 7722TIP3    H144581   3.365   5.823  11.708  1.3237 -0.5707 -1.0602
 7722TIP3    H244582   3.245   5.747  11.657 -0.9195  1.5268  0.8118
 7723TIP3   OH244583   4.709   2.124   3.292 -0.2226  0.8435 -0.3358
 7723TIP3    H144584   4.769   2.196   3.274  1.7730 -1.3339 -3.2782
 7723TIP3    H244585   4.640   2.133   3.226 -0.0347  0.1438 -0.6326
 7724TIP3   OH244586   2.614   5.555   4.951 -0.1296  0.6482  0.3132
 7724TIP3    H144587   2.575   5.593   5.029  0.6620  0.2736  0.8972
 7724TIP3    H244588   2.644   5.631   4.900  0.7043  0.8539  1.0866
 7725TIP3   OH244589   0.982   2.639  10.816 -0.2632 -0.1168  0.0766
 7725TIP3    H144590   0.920   2.618  10.886 -1.4886  0.2520 -0.8581
 7725TIP3    H244591   0.931   2.629  10.735  0.4103  1.8065 -0.6492
 7726TIP3   OH244592   2.765   1.112  13.759 -0.1170  0.2920  0.0568
 7726TIP3    H144593   2.779   1.167  13.835 -2.0961  1.1326 -0.1418
 7726TIP3    H244594   2.686   1.062  13.779 -0.4517  0.2432 -1.2802
 7727TIP3   OH244595   5.719   6.166  15.628  0.0856 -0.5537 -0.3469
 7727TIP3    H144596   5.774   6.230  15.674 -1.5417  0.0478  0.8636
 7727TIP3    H244597   5.779   6.122  15.568  1.2303  2.2894 -1.4693
 7728TIP3   OH244598   5.870   6.177   4.812 -0.2339  0.3762 -0.6223
 7728TIP3    H144599   5.840   6.233   4.884  1.2227 -2.2658  2.2751
 7728TIP3    H244600   5.818   6.098   4.819  1.1157 -0.6258 -1.3961
 7729TIP3   OH244601   6.683   2.745  15.324 -0.0940 -0.3438  0.2430
 7729TIP3    H144602   6.670   2.830  15.280  0.2637 -0.0813  0.6412
 7729TIP3    H244603   6.665   2.680  15.256 -0.9193  0.0398  0.0758
 7730TIP3   OH244604   5.055   0.193  14.889 -0.4993 -0.2431 -0.0965
 7730TIP3    H144605   5.032   0.139  14.813 -3.1191 -0.4641  0.7699
 7730TIP3    H244606   5.108   0.264  14.852 -2.6889  0.3579 -2.3978
 7731TIP3   OH244607   3.924   2.645   3.788 -0.1000 -0.6280  0.2811
 7731TIP3    H144608   3.953   2.715   3.729  2.4883 -0.2179  1.8439
 7731TIP3    H244609   3.896   2.574   3.731 -0.8661  0.9416 -1.3735
 7732TIP3   OH244610   4.461   1.187   0.690  0.2161  0.1494 -0.7340
 7732TIP3    H144611   4.493   1.112   0.740  0.3110  1.5566  1.4176
 7732TIP3    H244612   4.541   1.230   0.658  0.2978  0.7715  0.2647
 7733TIP3   OH244613   1.461   1.330   4.674  0.2535 -0.3843  0.6002
 7733TIP3    H144614   1.495   1.412   4.710 -0.2853  0.4875 -0.8302
 7733TIP3    H244615   1.539   1.281   4.648  0.5648 -0.2607  1.2762
 7734TIP3   OH244616   6.743   2.661   3.984 -0.2269  0.2621  0.6801
 7734TIP3    H144617   6.749   2.750   4.020 -1.5817  2.1650 -3.2162
 7734TIP3    H244618   6.649   2.643   3.981 -0.3868  0.9207 -2.9762
 7735TIP3   OH244619   1.408   4.437   5.505 -0.3377  0.0621  0.3623
 7735TIP3    H144620   1.466   4.458   5.578  0.1529  1.2006 -0.3161
 7735TIP3    H244621   1.329   4.488   5.522 -0.0479  0.6898 -0.1032
 7736TIP3   OH244622   3.845   3.821  16.808  0.0300 -0.0367  0.5583
 7736TIP3    H144623   3.800   3.792  16.887  1.0615  0.9366  1.5589
 7736TIP3    H244624   3.932   3.848  16.839  0.5190  0.2032 -0.9405
 7737TIP3   OH244625   4.827   3.110   5.586  0.0061 -0.1691  0.2896
 7737TIP3    H144626   4.850   3.202   5.571  0.4844 -0.4747 -0.9792
 7737TIP3    H244627   4.834   3.098   5.680 -0.4406  1.1977  0.5132
 7738TIP3   OH244628   6.061   4.112   6.579  0.1984  0.5714 -0.1914
 7738TIP3    H144629   6.130   4.056   6.613 -0.5717 -0.0942  0.3150
 7738TIP3    H244630   6.028   4.065   6.502  0.4983  1.0298 -0.6064
 7739TIP3   OH244631   4.701   5.501   1.651  0.1840 -0.0963 -0.5606
 7739TIP3    H144632   4.794   5.509   1.633  0.3019  0.4433  0.2265
 7739TIP3    H244633   4.686   5.408   1.664  0.6992 -0.1394 -0.2635
 7740TIP3   OH244634   3.661   0.497   5.352  0.6647 -0.3400  0.1192
 7740TIP3    H144635   3.724   0.443   5.399  0.3156  0.6879  1.8810
 7740TIP3    H244636   3.593   0.436   5.324  0.5441 -0.9385  1.5927
 7741TIP3   OH244637   6.634   0.236   2.686  0.2680 -0.3315 -0.2707
 7741TIP3    H144638   6.647   0.274   2.599 -1.8513  2.2177  0.3949
 7741TIP3    H244639   6.566   0.170   2.673 -0.3911  0.3757 -0.5218
 7742TIP3   OH244640   4.301   2.827  14.873 -0.0611  0.0053  0.3390
 7742TIP3    H144641   4.309   2.797  14.964 -0.5688  2.5978  1.3108
 7742TIP3    H244642   4.382   2.797  14.832  0.5319 -0.5825  1.8464
 7743TIP3   OH244643   4.706   4.287  16.104  0.4596  0.2183  0.0194
 7743TIP3    H144644   4.759   4.208  16.098  0.5924  0.4185 -4.8234
 7743TIP3    H244645   4.760   4.357  16.066 -0.8096  2.0002  1.2769
 7744TIP3   OH244646   3.893   4.132  16.442  0.2917  0.0207  0.5844
 7744TIP3    H144647   3.803   4.164  16.433  0.4117  0.8485  1.9942
 7744TIP3    H244648   3.920   4.111  16.353 -1.3100 -0.2950  0.1401
 7745TIP3   OH244649   6.771   2.126  16.768  0.3151 -0.1478 -0.0774
 7745TIP3    H144650   6.681   2.156  16.752 -0.7368 -2.0231  1.8523
 7745TIP3    H244651   6.792   2.072  16.692  0.1872  0.9901 -0.9615
 7746TIP3   OH244652   1.209   1.778   4.483 -0.0819  0.0738 -0.1223
 7746TIP3    H144653   1.259   1.719   4.540 -1.9649 -0.7120  0.8247
 7746TIP3    H244654   1.170   1.841   4.544  1.2725  1.8873 -1.0471
 7747TIP3   OH244655   0.295   0.493   3.835  0.3314 -0.1793  0.5271
 7747TIP3    H144656   0.388   0.498   3.858  0.5242  3.3265 -0.4317
 7747TIP3    H244657   0.293   0.504   3.740 -1.0989  1.1143  0.6797
 7748TIP3   OH244658   2.850   1.832   3.068  0.3085  0.5276  0.2598
 7748TIP3    H144659   2.837   1.809   3.160 -0.5084  1.6272  0.4436
 7748TIP3    H244660   2.945   1.840   3.059  0.4478 -0.3873  0.7916
 7749TIP3   OH244661   1.716   1.895  16.848  0.1255  0.4268 -0.0816
 7749TIP3    H144662   1.632   1.848  16.850 -0.9061  2.1854  0.7407
 7749TIP3    H244663   1.711   1.955  16.923  1.1760  2.1257 -1.2885
 7750TIP3   OH244664   6.369   1.437  16.656 -0.4247 -0.2320  0.7830
 7750TIP3    H144665   6.335   1.380  16.587 -2.6579 -0.0709  1.6655
 7750TIP3    H244666   6.366   1.524  16.618 -0.5000 -0.2858  0.6643
 7751TIP3   OH244667   2.659   2.270  14.720  0.1725 -0.1450 -0.1777
 7751TIP3    H144668   2.715   2.344  14.743 -1.1035  1.0018 -0.6309
 7751TIP3    H244669   2.649   2.221  14.802  1.1283  0.0917  0.0954
 7752TIP3   OH244670   3.723   3.103  12.716  0.0094 -0.4452  0.3978
 7752TIP3    H144671   3.684   3.190  12.706  1.9769  0.5723  0.9261
 7752TIP3    H244672   3.809   3.111  12.674 -0.3914 -2.6500 -0.9854
 7753TIP3   OH244673   5.311   2.966   0.461 -0.2422 -0.1041 -0.0766
 7753TIP3    H144674   5.233   3.022   0.468 -1.5272 -1.8481  0.1386
 7753TIP3    H244675   5.374   3.005   0.522 -1.3335  0.7436  0.5480
 7754TIP3   OH244676   5.868   3.551  11.588 -0.4249 -0.2226  0.3911
 7754TIP3    H144677   5.910   3.636  11.601 -1.6532  0.0997  3.0663
 7754TIP3    H244678   5.823   3.534  11.671 -1.3391 -2.8775 -0.5381
 7755TIP3   OH244679   4.357   2.215  14.175 -0.2124  0.1582 -0.4066
 7755TIP3    H144680   4.403   2.131  14.181 -0.5313  0.1021  2.4050
 7755TIP3    H244681   4.273   2.200  14.218  0.4687  2.3446  1.9277
 7756TIP3   OH244682   3.136   6.556  15.644  0.0914  0.2115 -0.0116
 7756TIP3    H144683   3.156   6.561  15.550  0.3570  0.4238  0.0538
 7756TIP3    H244684   3.063   6.494  15.650  0.1159  0.1471 -0.3522
 7757TIP3   OH244685   4.356   2.218  13.906  0.3261  0.3795  0.5200
 7757TIP3    H144686   4.269   2.207  13.867  1.3545 -0.5570 -1.6900
 7757TIP3    H244687   4.340   2.271  13.984 -2.2494  0.0406  0.3324
 7758TIP3   OH244688   0.472   2.064   0.639  0.5965  0.1459  0.0517
 7758TIP3    H144689   0.562   2.089   0.659  0.4702  0.9750 -0.3679
 7758TIP3    H244690   0.418   2.116   0.699  0.3706  0.1905 -0.1866
 7759TIP3   OH244691   5.561   0.014   5.195  0.5103 -0.1303  0.0633
 7759TIP3    H144692   5.470  -0.016   5.194  0.4229  0.1559 -0.4581
 7759TIP3    H244693   5.557   0.104   5.226  0.7021 -0.3927  0.8747
 7760TIP3   OH244694   2.293   1.518   0.976 -0.0261 -0.6544 -0.7580
 7760TIP3    H144695   2.261   1.566   0.899 -0.3452 -1.1213 -0.9198
 7760TIP3    H244696   2.221   1.522   1.039  0.8576  1.2139  0.2128
 7761TIP3   OH244697   4.963   4.885   2.720  0.1927  0.1166 -0.0519
 7761TIP3    H144698   5.051   4.849   2.728  0.1259  0.0198  0.2325
 7761TIP3    H244699   4.933   4.898   2.810  0.1998  0.8508 -0.1472
 7762TIP3   OH244700   4.788   0.687  16.583  0.4183  0.2800 -0.1774
 7762TIP3    H144701   4.777   0.594  16.567 -1.9405  0.5971 -0.7233
 7762TIP3    H244702   4.825   0.693  16.671  0.2181 -1.1510  0.0156
 7763TIP3   OH244703   2.963   4.995  13.531 -0.6440 -0.4381  0.1235
 7763TIP3    H144704   2.984   4.903  13.516 -2.6536 -0.5848 -2.2688
 7763TIP3    H244705   3.036   5.043  13.491 -0.7127 -0.9864 -0.6803
 7764TIP3   OH244706   0.424   2.519   1.380  0.3077  0.2263  0.5968
 7764TIP3    H144707   0.508   2.525   1.334  0.1843  1.1637  0.4868
 7764TIP3    H244708   0.449   2.509   1.472  0.5522 -1.5332  0.3827
 7765TIP3   OH244709   6.624   1.200  13.460  0.1679 -0.1202 -0.4426
 7765TIP3    H144710   6.601   1.118  13.505 -0.3497  0.1520 -0.2037
 7765TIP3    H244711   6.665   1.253  13.528 -1.5315  0.6941  0.0148
 7766TIP3   OH244712   1.795   4.617  16.748 -0.5919 -0.1514  0.2543
 7766TIP3    H144713   1.794   4.612  16.843 -1.8925 -0.4191  0.2378
 7766TIP3    H244714   1.772   4.528  16.719  0.3914 -0.2347 -0.3276
 7767TIP3   OH244715   1.257   0.178  11.976 -0.4501  0.8473 -0.3294
 7767TIP3    H144716   1.202   0.114  12.020  2.2030 -0.9775  0.5905
 7767TIP3    H244717   1.254   0.153  11.883 -0.7830  0.4635 -0.2158
 7768TIP3   OH244718   3.573   2.908  13.397  0.3094 -0.5717  0.0026
 7768TIP3    H144719   3.585   3.000  13.373 -1.1661 -0.3333  0.0819
 7768TIP3    H244720   3.608   2.859  13.322 -0.4727  0.0945 -0.8273
 7769TIP3   OH244721   6.283   1.688   1.521  0.8670 -0.2062  0.0164
 7769TIP3    H144722   6.353   1.647   1.572  0.5611  0.7465  1.2431
 7769TIP3    H244723   6.218   1.715   1.587  0.6305  1.3903 -0.8383
 7770TIP3   OH244724   3.870   3.906  11.063 -0.3842  0.1682  0.0974
 7770TIP3    H144725   3.871   3.996  11.095  0.1838 -0.2504  1.2898
 7770TIP3    H244726   3.780   3.876  11.078 -0.7576  0.7254 -0.9079
 7771TIP3   OH244727   6.634   5.566  13.367  0.3184  0.7983 -0.2011
 7771TIP3    H144728   6.630   5.542  13.459  1.2719  0.1158 -0.3169
 7771TIP3    H244729   6.649   5.483  13.321  1.8226  1.3485 -0.7738
 7772TIP3   OH244730   0.935   1.761  17.087 -0.1569  0.6237 -0.8768
 7772TIP3    H144731   0.859   1.714  17.052  0.7609 -1.0812 -0.6582
 7772TIP3    H244732   0.903   1.850  17.100 -1.7241  0.2881 -2.0760
 7773TIP3   OH244733   3.572   3.781  13.662 -0.2282  0.4509 -0.5566
 7773TIP3    H144734   3.571   3.710  13.727 -1.0040 -0.4794 -1.5348
 7773TIP3    H244735   3.504   3.842  13.692 -0.5220  0.0718 -0.4368
 7774TIP3   OH244736   4.652   6.127   1.726  0.5080  0.6916 -0.8449
 7774TIP3    H144737   4.646   6.108   1.632 -1.6829  0.3638 -0.6975
 7774TIP3    H244738   4.723   6.192   1.733  0.7652  0.6717 -2.6999
 7775TIP3   OH244739   0.320   0.652  12.767  0.5975  0.2830  0.0052
 7775TIP3    H144740   0.285   0.565  12.749  2.6565 -0.2875 -1.6798
 7775TIP3    H244741   0.402   0.636  12.813 -0.7382  1.5472  3.1225
 7776TIP3   OH244742   4.121   2.854   0.297  0.2703  0.4674  0.1805
 7776TIP3    H144743   4.041   2.904   0.310  0.5090  0.2743  3.0431
 7776TIP3    H244744   4.096   2.764   0.314  0.8912  0.2812  0.1362
 7777TIP3   OH244745   1.122   1.980  11.399 -0.0915  0.1791  0.4511
 7777TIP3    H144746   1.204   2.018  11.369  0.0265 -0.0630  0.4607
 7777TIP3    H244747   1.148   1.899  11.445 -0.4945 -1.5777 -2.1849
 7778TIP3   OH244748   1.995   6.660  16.430  0.4968  0.0324 -0.1575
 7778TIP3    H144749   2.077   6.651  16.479  0.6799 -0.4874 -0.5540
 7778TIP3    H244750   1.936   6.596  16.471  0.5527 -0.1812 -0.4084
 7779TIP3   OH244751   2.280   4.955  13.238 -0.3637  0.1143 -0.0995
 7779TIP3    H144752   2.343   5.027  13.248 -1.2823  0.8193  0.8287
 7779TIP3    H244753   2.307   4.911  13.158  0.9522  0.7618 -0.0484
 7780TIP3   OH244754   4.619   4.734   4.532  0.4268 -0.2214 -0.0308
 7780TIP3    H144755   4.684   4.763   4.596  0.6308 -3.2846  1.3618
 7780TIP3    H244756   4.655   4.653   4.497 -0.5540  0.4244 -2.7613
 7781TIP3   OH244757   3.294   0.320   0.945  0.3829  0.1550 -0.1046
 7781TIP3    H144758   3.280   0.260   1.018  2.2880 -1.1834 -0.7662
 7781TIP3    H244759   3.356   0.275   0.889  1.6791  2.6375 -0.7914
 7782TIP3   OH244760   2.881   3.409   0.916  1.0122  0.0613  0.0391
 7782TIP3    H144761   2.895   3.314   0.915  1.4218  0.0696 -2.4810
 7782TIP3    H244762   2.942   3.441   0.982  2.4692 -1.2668 -0.5842
 7783TIP3   OH244763   4.844   3.057   1.436  0.0457 -0.4302  0.7879
 7783TIP3    H144764   4.764   3.090   1.478  0.5459  1.2974  0.4454
 7783TIP3    H244765   4.822   3.052   1.343 -0.7636 -3.3768  1.0470
 7784TIP3   OH244766   3.320   3.606   1.439  0.2975  0.1808  0.2915
 7784TIP3    H144767   3.263   3.550   1.492  0.5845 -1.0452 -0.6409
 7784TIP3    H244768   3.288   3.695   1.454 -2.3657 -0.5117 -0.7850
 7785TIP3   OH244769   2.437   0.158  15.090 -0.2181 -0.5791 -0.1999
 7785TIP3    H144770   2.375   0.182  15.021  0.1215  1.3369  0.0987
 7785TIP3    H244771   2.399   0.194  15.170  0.9678  0.1355  0.0713
 7786TIP3   OH244772   5.471   2.001  13.586 -0.5496 -0.0889 -0.4657
 7786TIP3    H144773   5.433   2.003  13.673 -1.4421  0.2720 -0.8541
 7786TIP3    H244774   5.398   1.980  13.528  0.2786 -1.7165 -1.0033
 7787TIP3   OH244775   2.975   0.935   2.850  0.0237  0.0261  0.4477
 7787TIP3    H144776   3.028   1.013   2.832 -1.1715  1.1826  1.7102
 7787TIP3    H244777   2.922   0.923   2.771  0.9457 -0.1439 -0.1585
 7788TIP3   OH244778   3.767   6.268   0.049 -0.2766  0.3445  0.3557
 7788TIP3    H144779   3.756   6.198  -0.015  0.2279  1.4710 -1.0117
 7788TIP3    H244780   3.804   6.225   0.126 -0.5723 -0.9835 -0.2206
 7789TIP3   OH244781   1.512   0.717   2.054 -0.1981  0.5668 -0.7240
 7789TIP3    H144782   1.458   0.725   2.133  1.4189  0.4027  0.4647
 7789TIP3    H244783   1.468   0.771   1.989 -1.9174  0.2200  0.0868
 7790TIP3   OH244784   4.022   1.405   4.885 -0.0464  0.1995 -0.3965
 7790TIP3    H144785   4.058   1.449   4.963 -1.1384  1.5742 -0.6216
 7790TIP3    H244786   3.951   1.350   4.919 -0.5613  0.8434 -0.4035
 7791TIP3   OH244787   6.150   6.737  12.712 -0.1303 -0.2211 -0.0909
 7791TIP3    H144788   6.090   6.665  12.690 -2.6705  1.0525  2.1367
 7791TIP3    H244789   6.218   6.696  12.766 -1.3415 -1.0582  0.8533
 7792TIP3   OH244790   6.679   6.597  15.907  0.4454 -0.3741  0.0514
 7792TIP3    H144791   6.755   6.548  15.875  0.6999 -0.3148  0.5507
 7792TIP3    H244792   6.616   6.593  15.836 -0.1842 -2.7802  0.6640
 7793TIP3   OH244793   6.684   0.677   4.784  0.0176 -0.5036 -0.2000
 7793TIP3    H144794   6.701   0.747   4.848  0.6031  1.3305 -2.2355
 7793TIP3    H244795   6.660   0.601   4.837  1.0609  0.7382  2.2095
 7794TIP3   OH244796   6.288   4.796   2.058  0.5296  0.0880  0.2004
 7794TIP3    H144797   6.376   4.829   2.074  0.2053  0.6274  0.9644
 7794TIP3    H244798   6.287   4.709   2.099  0.5846  0.2649  0.5882
 7795TIP3   OH244799   0.243   4.547   5.492  0.7518  0.3490  0.4072
 7795TIP3    H144800   0.247   4.522   5.584  2.5270 -0.8939  0.0178
 7795TIP3    H244801   0.150   4.537   5.469  0.5290 -0.7533  1.6645
 7796TIP3   OH244802   4.554   3.422  13.235 -0.4519 -1.0147 -0.5723
 7796TIP3    H144803   4.487   3.380  13.181  0.4941 -0.7633 -2.0151
 7796TIP3    H244804   4.572   3.505  13.191  0.6971 -1.0151 -0.1570
 7797TIP3   OH244805   5.707   6.740   3.538 -0.1023 -0.1324  0.3465
 7797TIP3    H144806   5.690   6.692   3.619  0.9171 -0.4996  0.3538
 7797TIP3    H244807   5.802   6.742   3.531 -0.0630  2.1938  0.5382
 7798TIP3   OH244808   1.388   5.131  15.841  0.1307  0.2711 -0.6529
 7798TIP3    H144809   1.447   5.155  15.912  0.1233 -0.7454 -0.2942
 7798TIP3    H244810   1.413   5.189  15.769  0.5849  0.8454 -0.0457
 7799TIP3   OH244811   6.002   4.355   1.521  0.0051  0.5271 -0.2574
 7799TIP3    H144812   5.979   4.447   1.530 -0.9282  0.1708  1.2436
 7799TIP3    H244813   5.962   4.312   1.596  1.2387 -0.9652 -0.3993
 7800TIP3   OH244814   1.446   4.361  14.631 -0.4222  0.2578 -0.4915
 7800TIP3    H144815   1.487   4.293  14.684 -2.1201  0.2889  0.9789
 7800TIP3    H244816   1.494   4.360  14.548  1.5846 -0.5932  0.6126
 7801TIP3   OH244817   3.016   6.471   5.906  0.0665 -0.0538 -0.1643
 7801TIP3    H144818   3.041   6.556   5.869 -0.8658  0.0474 -0.6148
 7801TIP3    H244819   2.929   6.454   5.868  1.8690 -3.2169 -3.5621
 7802TIP3   OH244820   3.037   6.018   5.518  0.2012  0.7639 -0.4007
 7802TIP3    H144821   3.085   5.976   5.589  0.0202 -1.4040 -1.4977
 7802TIP3    H244822   2.954   6.044   5.557  0.1605 -0.2527  0.2232
 7803TIP3   OH244823   1.611   5.487   5.420 -0.8163  0.1436 -0.4593
 7803TIP3    H144824   1.572   5.552   5.479  3.4096  2.4762  0.1862
 7803TIP3    H244825   1.616   5.407   5.473 -1.7296  0.6963  0.5012
 7804TIP3   OH244826   6.184   0.356  12.039  0.1063 -0.1901 -0.2413
 7804TIP3    H144827   6.257   0.418  12.040 -0.2417  0.2262 -0.3244
 7804TIP3    H244828   6.158   0.346  12.130  1.2857 -1.5669 -0.0308
 7805TIP3   OH244829   2.060   0.977   2.957  0.8140 -0.0276  0.0251
 7805TIP3    H144830   2.012   1.059   2.963 -1.2848 -1.1843 -0.1001
 7805TIP3    H244831   2.058   0.954   2.864 -1.1995 -1.6125  0.3955
 7806TIP3   OH244832   2.890   5.463  15.300 -0.1561  0.0127 -0.3093
 7806TIP3    H144833   2.830   5.411  15.354 -0.4155 -1.1805 -1.6948
 7806TIP3    H244834   2.848   5.549  15.294 -1.6892 -0.7557 -1.1405
 7807TIP3   OH244835   2.032   5.253  12.293  0.0854  0.5894  0.5402
 7807TIP3    H144836   2.105   5.287  12.242 -0.0890  0.7969  0.4295
 7807TIP3    H244837   2.020   5.316  12.364 -1.8150  2.1233 -1.0269
 7808TIP3   OH244838   5.046   5.909  11.342 -0.8950  0.6385  0.3939
 7808TIP3    H144839   5.089   5.992  11.362  0.7675 -0.0344 -0.1240
 7808TIP3    H244840   5.079   5.886  11.255 -1.7744 -0.2785  0.2909
 7809TIP3   OH244841   4.013   2.327  16.137  0.4932  0.5103  0.0153
 7809TIP3    H144842   4.056   2.412  16.151 -0.1364  1.1349 -1.5552
 7809TIP3    H244843   3.951   2.319  16.210 -2.0772  3.1990 -1.6110
 7810TIP3   OH244844   0.351   4.850  15.243 -0.4082  0.4025  0.4142
 7810TIP3    H144845   0.355   4.770  15.294  2.1593  0.1390 -0.0649
 7810TIP3    H244846   0.341   4.821  15.152 -1.0000  0.6852  0.3880
 7811TIP3   OH244847   3.640   4.698   5.511  0.3811 -0.3536 -0.5925
 7811TIP3    H144848   3.659   4.604   5.514 -0.3327 -0.5064 -0.5943
 7811TIP3    H244849   3.661   4.730   5.599  1.0042 -0.4308 -0.7064
 7812TIP3   OH244850   1.617   6.361  13.603 -0.2098  0.1034  0.5035
 7812TIP3    H144851   1.583   6.353  13.692  2.9928  0.1751  1.8432
 7812TIP3    H244852   1.691   6.301  13.599 -1.3746 -1.3811 -2.8078
 7813TIP3   OH244853   0.775   0.601   2.377  0.5375 -0.2001 -0.0682
 7813TIP3    H144854   0.755   0.552   2.297 -1.1417 -0.2933  0.3756
 7813TIP3    H244855   0.862   0.570   2.403  1.8758  1.0250 -2.7168
 7814TIP3   OH244856   0.628   4.734  14.278 -0.0560  0.3961 -0.1732
 7814TIP3    H144857   0.662   4.772  14.359 -1.7604 -0.0853  0.8344
 7814TIP3    H244858   0.535   4.758  14.278 -0.6132 -1.5898 -0.7592
 7815TIP3   OH244859   3.411   6.682  16.960 -0.0265  0.3724  0.2140
 7815TIP3    H144860   3.384   6.755  17.015  0.0035 -0.4332  1.3322
 7815TIP3    H244861   3.447   6.618  17.021  0.9696 -0.1254 -0.8546
 7816TIP3   OH244862   0.122   6.263   0.958  0.1435  0.2656  0.7209
 7816TIP3    H144863   0.103   6.312   1.038 -0.8424  1.0018  0.0554
 7816TIP3    H244864   0.198   6.308   0.920  0.1850  0.3367  0.8867
 7817TIP3   OH244865   1.791   2.468  16.090 -0.0344  0.0333  0.3834
 7817TIP3    H144866   1.731   2.403  16.053  0.6510  0.7384 -2.1876
 7817TIP3    H244867   1.790   2.540  16.027  4.0089 -0.2076 -0.2240
 7818TIP3   OH244868   2.000   1.472   4.848  0.2867 -0.0809 -0.2662
 7818TIP3    H144869   1.915   1.435   4.870  0.5518 -0.3583  0.3139
 7818TIP3    H244870   2.063   1.414   4.891  0.7359  0.6361  0.0587
 7819TIP3   OH244871   1.714   3.474   4.849  0.2778  0.1122  0.2722
 7819TIP3    H144872   1.632   3.425   4.854 -0.4392  1.1650 -0.6444
 7819TIP3    H244873   1.699   3.551   4.904  0.8503  0.0385  0.5321
 7820TIP3   OH244874   2.205   4.432   0.438 -0.0598 -0.1824  0.3602
 7820TIP3    H144875   2.160   4.377   0.374  0.7706 -1.3742  0.7823
 7820TIP3    H244876   2.296   4.404   0.435  0.7483  2.2882 -0.5798
 7821TIP3   OH244877   3.741   4.773  16.808  0.2742 -0.7122  0.1979
 7821TIP3    H144878   3.827   4.755  16.847  0.5444  0.9137  0.4068
 7821TIP3    H244879   3.730   4.867  16.817 -0.5063 -0.5493 -1.9357
 7822TIP3   OH244880   5.599   0.358   3.659 -0.3979  0.0088 -0.3447
 7822TIP3    H144881   5.532   0.321   3.717  0.6593 -0.6200  0.5282
 7822TIP3    H244882   5.649   0.417   3.716  0.1236  0.0399 -0.8320
 7823TIP3   OH244883   3.891   3.423  16.333 -0.0493  0.1115  0.1793
 7823TIP3    H144884   3.800   3.450  16.342  0.1550  0.8757  0.0036
 7823TIP3    H244885   3.892   3.364  16.258 -0.0293  1.9407 -1.3300
 7824TIP3   OH244886   0.871   6.197   1.474  0.7791 -0.0854  0.2150
 7824TIP3    H144887   0.801   6.255   1.445 -0.4392 -0.4375  2.2431
 7824TIP3    H244888   0.853   6.114   1.431  0.8028  0.2168 -0.3903
 7825TIP3   OH244889   6.513   4.014  13.011  0.0404 -0.1708  0.5987
 7825TIP3    H144890   6.517   3.998  12.916 -2.2887  0.1753  0.3903
 7825TIP3    H244891   6.557   4.099  13.022 -0.5507  0.2850 -0.3396
 7826TIP3   OH244892   2.440   3.262   4.867  0.2856  0.6542  0.2708
 7826TIP3    H144893   2.356   3.248   4.911  0.2206  0.7985  0.1938
 7826TIP3    H244894   2.448   3.358   4.862 -0.9149  0.7156 -2.3112
 7827TIP3   OH244895   6.073   6.791  13.584  0.1347 -0.2947  0.8178
 7827TIP3    H144896   6.150   6.742  13.556  0.4454  1.1551 -1.0589
 7827TIP3    H244897   6.106   6.877  13.607 -0.8730  0.2580  0.2786
 7828TIP3   OH244898   4.005   2.588   4.803 -0.0934  0.2306  0.4343
 7828TIP3    H144899   3.917   2.617   4.827 -0.3767 -0.6881  0.5316
 7828TIP3    H244900   4.038   2.658   4.747  0.1719  1.8843  2.5586
 7829TIP3   OH244901   1.649   1.915  11.355  0.1856 -0.2697 -0.4291
 7829TIP3    H144902   1.632   1.991  11.299  0.7979  0.0369 -0.2099
 7829TIP3    H244903   1.707   1.860  11.303  1.3984  0.3874  0.1802
 7830TIP3   OH244904   4.427   2.737   5.960  0.1832 -0.2858  0.0740
 7830TIP3    H144905   4.418   2.813   6.018  0.9102  0.2022 -0.4387
 7830TIP3    H244906   4.376   2.759   5.883 -1.4252 -1.2582  0.8018
 7831TIP3   OH244907   0.416   4.517   4.934  0.4489 -0.5308 -0.1648
 7831TIP3    H144908   0.497   4.470   4.913  0.5542  0.1205 -1.3793
 7831TIP3    H244909   0.445   4.608   4.948 -0.0451 -0.3272 -0.4368
 7832TIP3   OH244910   6.201   6.108  14.918 -0.0155  0.0154 -0.0105
 7832TIP3    H144911   6.168   6.020  14.901  0.7781 -0.1170 -0.9582
 7832TIP3    H244912   6.286   6.094  14.959 -0.8931  0.3517  2.0416
 7833TIP3   OH244913   2.310   1.291  12.905 -0.1289 -0.5609  0.1076
 7833TIP3    H144914   2.240   1.356  12.903  1.4626  1.3811  1.9860
 7833TIP3    H244915   2.273   1.213  12.863 -2.9645  0.7500 -0.0131
 7834TIP3   OH244916   4.471   3.815  13.846 -0.3500 -0.8279 -0.2777
 7834TIP3    H144917   4.551   3.779  13.885  1.6214  1.0950 -2.2571
 7834TIP3    H244918   4.501   3.890  13.795 -3.6129  0.7000 -0.2089
 7835TIP3   OH244919   2.017   0.083  12.798 -0.4582  0.1563  0.1073
 7835TIP3    H144920   1.976   0.042  12.874  0.9484 -0.9213  0.3261
 7835TIP3    H244921   1.980   0.171  12.795 -0.5604  0.2156  2.0301
 7836TIP3   OH244922   1.447   5.227  10.748 -0.7089  0.5060 -0.1155
 7836TIP3    H144923   1.520   5.218  10.809 -0.5977 -3.4460 -0.5527
 7836TIP3    H244924   1.482   5.194  10.665 -2.5360 -0.1375 -0.6824
 7837TIP3   OH244925   5.466   5.982   6.124 -0.3076 -1.0568  0.4185
 7837TIP3    H144926   5.413   6.042   6.176 -1.2586 -2.4720  1.1336
 7837TIP3    H244927   5.538   5.958   6.182  1.0815  0.6924 -0.4750
 7838TIP3   OH244928   6.209   4.754   6.699 -0.1433  0.0312  0.1028
 7838TIP3    H144929   6.259   4.686   6.744 -0.7570  0.4031  1.4252
 7838TIP3    H244930   6.132   4.709   6.665  1.0420 -0.5470 -1.9560
 7839TIP3   OH244931   1.381   2.241  11.875  0.3284 -0.2935  0.3536
 7839TIP3    H144932   1.298   2.211  11.839  0.2959 -0.5469  0.6274
 7839TIP3    H244933   1.448   2.201  11.819  0.2832 -0.8733  0.7039
 7840TIP3   OH244934   0.805   3.680   3.318 -0.0120 -0.9204  0.2465
 7840TIP3    H144935   0.763   3.626   3.251 -3.0318  0.5232  0.8333
 7840TIP3    H244936   0.831   3.760   3.271 -3.4155  0.7206  0.8403
 7841TIP3   OH244937   0.248   5.773  16.094 -0.3021  0.2667  0.1863
 7841TIP3    H144938   0.155   5.785  16.109 -0.2652  1.5751 -0.5656
 7841TIP3    H244939   0.267   5.688  16.134 -2.0631 -0.6394 -0.7646
 7842TIP3   OH244940   2.150   2.842  16.015  0.3007  0.5386 -0.5406
 7842TIP3    H144941   2.097   2.845  15.935  0.0150  0.9698 -0.3390
 7842TIP3    H244942   2.089   2.868  16.085  1.0519  2.2437 -0.4611
 7843TIP3   OH244943   6.268   2.833  16.312 -0.0651 -0.2380 -0.3463
 7843TIP3    H144944   6.293   2.876  16.393 -0.3789  2.0003 -1.3547
 7843TIP3    H244945   6.233   2.748  16.339 -1.1006  0.8451  1.9303
 7844TIP3   OH244946   1.966   4.775  15.089  0.0184 -0.6945  0.5376
 7844TIP3    H144947   1.893   4.722  15.123 -1.2888  0.4803 -0.3346
 7844TIP3    H244948   1.928   4.824  15.016  1.8136 -0.3647 -0.2120
 7845TIP3   OH244949   5.220   0.903  12.785 -0.4666 -0.4736 -0.0101
 7845TIP3    H144950   5.158   0.850  12.734  0.0672  0.1126 -1.3271
 7845TIP3    H244951   5.295   0.915  12.726  0.4298 -0.2354  1.1417
 7846TIP3   OH244952   6.640   0.403   6.215  0.9685  0.1637  0.3702
 7846TIP3    H144953   6.557   0.445   6.239  1.5895  0.3936  2.2982
 7846TIP3    H244954   6.643   0.323   6.267  2.2747  0.5511  0.9578
 7847TIP3   OH244955   1.551   5.972  13.016 -0.2755 -0.0093  0.2466
 7847TIP3    H144956   1.502   6.053  13.023 -1.8225 -0.9450  0.8625
 7847TIP3    H244957   1.572   5.948  13.107  0.1312 -0.3257  0.0763
 7848TIP3   OH244958   5.434   3.822  16.412  0.1373 -0.1464 -0.5103
 7848TIP3    H144959   5.392   3.741  16.385  1.8443 -1.1283 -0.3449
 7848TIP3    H244960   5.510   3.831  16.354  0.0059  1.3142 -0.4938
 7849TIP3   OH244961   1.641   1.448   0.064  0.4677  0.1773 -0.2712
 7849TIP3    H144962   1.672   1.539   0.063  1.6147 -0.1779 -1.6823
 7849TIP3    H244963   1.624   1.427  -0.028 -0.7951 -0.7290  0.1366
 7850TIP3   OH244964   6.662   3.102   5.248  0.0790  0.2569  0.2940
 7850TIP3    H144965   6.598   3.145   5.191 -0.6641 -0.9980  0.1187
 7850TIP3    H244966   6.675   3.016   5.208  0.0806 -0.3890  1.6209
 7851TIP3   OH244967   6.542   0.358  16.106 -0.5463 -0.2164  0.0532
 7851TIP3    H144968   6.533   0.443  16.149  0.3306  0.1711 -0.4977
 7851TIP3    H244969   6.596   0.307  16.166 -0.0314  0.0426 -0.1770
 7852TIP3   OH244970   5.512   6.281  15.479 -0.8551 -0.1106 -0.1462
 7852TIP3    H144971   5.591   6.240  15.513 -1.8023 -1.4516  0.5491
 7852TIP3    H244972   5.492   6.232  15.400 -1.6851 -0.6347  0.3776
 7853TIP3   OH244973   1.258   3.010  17.143  0.5123  0.0981 -0.0138
 7853TIP3    H144974   1.247   2.938  17.081 -0.2900  1.2050 -1.1997
 7853TIP3    H244975   1.187   2.998  17.206 -2.9638  2.5362 -3.0165
 7854TIP3   OH244976   5.610   6.393   1.344  0.0278  0.2812  0.0974
 7854TIP3    H144977   5.684   6.453   1.332 -0.7667  1.1828 -0.5318
 7854TIP3    H244978   5.534   6.452   1.355 -0.6093 -0.6156  0.6116
 7855TIP3   OH244979   3.787   0.095  14.052 -0.2213  0.1976 -0.1918
 7855TIP3    H144980   3.851   0.157  14.086  2.0497 -1.4667 -1.1719
 7855TIP3    H244981   3.817   0.010  14.085 -0.2564 -0.9730 -2.9453
 7856TIP3   OH244982   3.774   4.187  16.763  0.3426 -0.1932  0.4193
 7856TIP3    H144983   3.825   4.145  16.694  0.7910 -0.1067  0.6951
 7856TIP3    H244984   3.839   4.234  16.816  0.1477 -1.1936  1.5774
 7857TIP3   OH244985   0.053   0.625  14.057  0.1078 -0.4280  0.6463
 7857TIP3    H144986   0.132   0.673  14.084 -0.8031 -0.6408  4.3000
 7857TIP3    H244987   0.071   0.597  13.968  1.9267  4.0792 -0.6861
 7858TIP3   OH244988   3.919   4.176   5.403 -0.1449  0.5193 -0.1034
 7858TIP3    H144989   3.928   4.270   5.388  0.1897  0.4043 -0.6712
 7858TIP3    H244990   3.985   4.137   5.346  0.0370 -0.0391  0.4774
 7859TIP3   OH244991   4.999   0.823   0.231  0.4797 -0.0403 -0.2071
 7859TIP3    H144992   4.940   0.898   0.223  0.2579 -0.1841  0.0421
 7859TIP3    H244993   4.948   0.758   0.279  0.3780 -0.6537 -1.1237
 7860TIP3   OH244994   5.324   2.200  15.953  0.1432 -0.3864 -0.7235
 7860TIP3    H144995   5.360   2.215  16.041 -0.3317 -0.1917 -0.5584
 7860TIP3    H244996   5.232   2.222  15.961 -0.1541 -1.4813 -0.9917
 7861TIP3   OH244997   5.909   4.374  12.775  0.0462 -0.1793 -0.5337
 7861TIP3    H144998   5.890   4.280  12.771  1.2053 -0.4522 -0.2075
 7861TIP3    H244999   5.824   4.416  12.768 -0.7079 -1.3016  1.1171
 7862TIP3   OH245000   2.602   2.580   3.421 -0.0976 -0.1091  0.0342
 7862TIP3    H145001   2.587   2.672   3.400  1.5940  0.0296 -0.7192
 7862TIP3    H245002   2.650   2.546   3.346 -2.9372 -2.3366 -0.9596
 7863TIP3   OH245003   2.505   5.840   2.363 -0.3961  0.0111 -0.4825
 7863TIP3    H145004   2.583   5.827   2.416 -0.7469  0.1681  0.0730
 7863TIP3    H245005   2.520   5.786   2.285  1.3234  1.8214 -1.5160
 7864TIP3   OH245006   2.663   3.241   2.231 -0.3139 -0.8147  0.3282
 7864TIP3    H145007   2.726   3.186   2.185 -0.4742 -0.3285 -0.4964
 7864TIP3    H245008   2.583   3.234   2.181  0.2884  2.0082 -1.2615
 7865TIP3   OH245009   1.580   5.453  16.730 -0.1889 -0.0076  0.6394
 7865TIP3    H145010   1.493   5.485  16.707 -0.1668  0.1880  0.8255
 7865TIP3    H245011   1.632   5.466  16.651  0.7014  3.5088  1.6034
 7866TIP3   OH245012   2.611   0.027   4.741  0.1355 -0.0697 -0.8898
 7866TIP3    H145013   2.605   0.090   4.812 -1.2454  0.3663 -1.3614
 7866TIP3    H245014   2.561  -0.049   4.772  2.5026 -1.3369  0.0325
 7867TIP3   OH245015   4.729   2.218  11.138  0.1377  0.2216 -0.7723
 7867TIP3    H145016   4.691   2.131  11.147 -0.1650  0.4648  0.5127
 7867TIP3    H245017   4.817   2.203  11.102  0.9107 -0.8021  1.4250
 7868TIP3   OH245018   3.355   6.441   3.707  0.0699  0.1857  0.2825
 7868TIP3    H145019   3.432   6.385   3.691 -0.7350 -0.7176 -0.5509
 7868TIP3    H245020   3.388   6.530   3.698  1.2722 -0.1488  1.0932
 7869TIP3   OH245021   2.625   6.653  15.790  0.1109  0.4812  0.3458
 7869TIP3    H145022   2.687   6.719  15.760 -0.7092  0.5316 -1.3475
 7869TIP3    H245023   2.542   6.678  15.749 -0.2802 -1.4284 -0.1270
 7870TIP3   OH245024   6.513   5.215  15.456  0.3189  0.3088 -0.0366
 7870TIP3    H145025   6.430   5.257  15.435 -0.5207 -1.0703  0.4050
 7870TIP3    H245026   6.521   5.221  15.551 -0.3517 -1.3957  0.1742
 7871TIP3   OH245027   4.951   6.424   1.234 -0.1733  0.6416  0.5012
 7871TIP3    H145028   4.959   6.426   1.139  0.8184  1.9366  0.5797
 7871TIP3    H245029   4.893   6.350   1.252 -1.8654  1.4704 -1.2002
 7872TIP3   OH245030   6.217   5.486  17.173  0.0415  0.2221 -0.6857
 7872TIP3    H145031   6.271   5.468  17.096  0.4091 -1.1530 -0.1469
 7872TIP3    H245032   6.162   5.408  17.182  0.7920 -0.1617  1.0622
 7873TIP3   OH245033   4.521   5.816   4.947 -0.5193 -0.0019  0.0680
 7873TIP3    H145034   4.429   5.814   4.917 -0.3001 -1.3094 -0.5871
 7873TIP3    H245035   4.570   5.848   4.870 -0.6466  3.4804  1.2363
 7874TIP3   OH245036   3.838   3.664   0.584  0.1409 -0.3466 -0.3641
 7874TIP3    H145037   3.826   3.578   0.542 -1.8034 -0.7122  0.8511
 7874TIP3    H245038   3.790   3.658   0.666  0.9323  1.5485  0.2953
 7875TIP3   OH245039   3.328   6.051   2.423 -0.5418 -0.0056  0.0294
 7875TIP3    H145040   3.360   6.140   2.416  0.9958 -0.3024  2.4381
 7875TIP3    H245041   3.251   6.057   2.480  0.4804 -0.3592  1.4949
 7876TIP3   OH245042   6.501   4.182   0.257  0.2310  0.2710 -0.1662
 7876TIP3    H145043   6.510   4.252   0.322  2.3777  0.0520 -0.1261
 7876TIP3    H245044   6.435   4.214   0.196 -0.4955  1.3065  1.1075
 7877TIP3   OH245045   3.284   1.614   4.322  0.4556  0.7997  0.2367
 7877TIP3    H145046   3.285   1.546   4.255 -0.5508  0.7895  0.2088
 7877TIP3    H245047   3.372   1.650   4.322  0.7121  0.1863 -0.4647
 7878TIP3   OH245048   3.353   3.047  14.354 -0.5438 -0.1938 -0.2238
 7878TIP3    H145049   3.374   2.958  14.326  0.2408 -0.1596  0.2160
 7878TIP3    H245050   3.342   3.041  14.448  2.4455  0.6418  0.2777
 7879TIP3   OH245051   0.792   1.350   4.851 -0.2236  0.3471  0.1340
 7879TIP3    H145052   0.764   1.262   4.876 -1.0776  0.1947 -1.2906
 7879TIP3    H245053   0.731   1.376   4.782  0.1344  1.9904  0.4055
 7880TIP3   OH245054   3.601   5.191   4.044  0.0650  0.3720 -0.5378
 7880TIP3    H145055   3.653   5.133   4.100 -0.9787  0.4514  0.5450
 7880TIP3    H245056   3.630   5.279   4.069 -0.5062  0.4126 -0.0061
 7881TIP3   OH245057   2.963   4.554   5.201 -0.1116 -0.3549 -0.3580
 7881TIP3    H145058   2.925   4.486   5.145 -1.4301  1.0161 -1.2061
 7881TIP3    H245059   2.911   4.551   5.281  0.3517 -0.8658 -0.0733
 7882TIP3   OH245060   2.030   2.383   3.768 -0.1960  0.1173  0.4516
 7882TIP3    H145061   2.031   2.435   3.849 -1.3855 -0.2770  0.7344
 7882TIP3    H245062   1.941   2.348   3.763 -0.9514  2.0764 -2.2894
 7883TIP3   OH245063   4.450   0.806  11.874  0.1366  0.2650  0.2606
 7883TIP3    H145064   4.470   0.718  11.904 -0.3752 -0.2834 -0.9727
 7883TIP3    H245065   4.464   0.804  11.780 -2.7970  0.6344 -0.2738
 7884TIP3   OH245066   2.682   2.955   4.586 -0.1059 -0.0595  0.1872
 7884TIP3    H145067   2.772   2.933   4.610  0.5112  1.2583 -0.7829
 7884TIP3    H245068   2.643   2.873   4.558  1.0794 -0.5010 -0.2120
 7885TIP3   OH245069   3.053   2.139   1.031  0.2016  0.9831 -0.1251
 7885TIP3    H145070   3.110   2.214   1.049 -0.2988  1.1154  1.0663
 7885TIP3    H245071   2.967   2.179   1.016  0.7643  1.0174 -4.4816
 7886TIP3   OH245072   6.693   0.401  11.336 -0.0726 -0.2652  0.5013
 7886TIP3    H145073   6.782   0.436  11.325 -0.3645  0.2416 -0.2852
 7886TIP3    H245074   6.638   0.477  11.352 -0.3242 -0.6120  1.3866
 7887TIP3   OH245075   5.252   4.288  16.459 -0.2878 -0.0715  0.4873
 7887TIP3    H145076   5.228   4.309  16.369  0.1404  1.9387  0.8060
 7887TIP3    H245077   5.325   4.346  16.479  0.8910 -1.8071  1.5399
 7888TIP3   OH245078   2.524   2.138   5.984 -0.5751  0.3629  1.0525
 7888TIP3    H145079   2.548   2.230   5.971  0.0432  0.2116  1.0970
 7888TIP3    H245080   2.449   2.141   6.044 -2.8855  1.0469 -1.6109
 7889TIP3   OH245081   4.906   4.853  11.736  0.4898 -0.2919 -0.2198
 7889TIP3    H145082   4.887   4.885  11.824  0.9026  0.2404 -0.3176
 7889TIP3    H245083   4.824   4.813  11.707 -0.1239  0.8455 -0.1502
 7890TIP3   OH245084   1.868   2.346   0.178  0.2784 -0.1705  0.1267
 7890TIP3    H145085   1.866   2.251   0.168 -2.6116 -0.0275 -2.2598
 7890TIP3    H245086   1.781   2.369   0.212  1.3587  1.5725  1.9212
 7891TIP3   OH245087   1.313   1.912   1.164 -0.5463 -0.1534  0.2866
 7891TIP3    H145088   1.368   1.836   1.145 -0.1697  0.5059 -1.4557
 7891TIP3    H245089   1.269   1.890   1.246 -0.0728 -2.0288  0.0833
 7892TIP3   OH245090   4.518   5.284  17.169  0.6209  0.1102  0.1317
 7892TIP3    H145091   4.600   5.296  17.122  0.0495 -1.3060 -1.3091
 7892TIP3    H245092   4.545   5.244  17.252  1.6712  2.9955  1.3118
 7893TIP3   OH245093   4.627   3.790   0.557  0.2623  0.8091 -1.1022
 7893TIP3    H145094   4.632   3.714   0.498  2.9193  0.2070 -0.2526
 7893TIP3    H245095   4.633   3.752   0.644  0.9494  1.9388 -0.6446
 7894TIP3   OH245096   6.455   3.929  11.507 -0.1421 -0.0348  0.1400
 7894TIP3    H145097   6.376   3.906  11.458 -0.0383 -1.4777  0.6052
 7894TIP3    H245098   6.437   3.901  11.597  1.1482 -1.0594  0.1170
 7895TIP3   OH245099   2.743   1.957   1.464 -0.7470  0.4558  0.3394
 7895TIP3    H145100   2.716   1.912   1.384  0.6831 -1.0492  0.6490
 7895TIP3    H245101   2.686   2.034   1.469 -1.6335 -0.0326 -1.5013
 7896TIP3   OH245102   6.348   3.334  15.529  0.1550  0.3931  0.1667
 7896TIP3    H145103   6.266   3.303  15.489  0.3657  0.0570 -0.0095
 7896TIP3    H245104   6.401   3.364  15.455  0.3952  0.1283  0.2312
 7897TIP3   OH245105   5.101   3.230  16.507  0.1443 -0.3296 -0.2844
 7897TIP3    H145106   5.043   3.178  16.452  0.4163 -0.6001 -0.3199
 7897TIP3    H245107   5.083   3.320  16.483 -1.7331 -0.2667  1.1233
 7898TIP3   OH245108   2.681   1.792   0.548  0.1123 -0.1001 -0.0715
 7898TIP3    H145109   2.719   1.870   0.507  0.7992 -0.7263 -0.6682
 7898TIP3    H245110   2.599   1.778   0.501  1.1756 -1.1598 -1.7252
 7899TIP3   OH245111   0.489   3.865   1.664 -0.0419 -0.3613  0.1367
 7899TIP3    H145112   0.518   3.898   1.579 -0.3199 -2.7410 -0.9542
 7899TIP3    H245113   0.393   3.871   1.660 -0.0690 -0.7591  0.1463
 7900TIP3   OH245114   2.932   4.130   0.638  0.7948 -0.7260 -0.5513
 7900TIP3    H145115   2.930   4.209   0.691  1.4484 -0.4365 -0.9426
 7900TIP3    H245116   2.844   4.093   0.646 -0.3614  1.3755 -2.3698
 7901TIP3   OH245117   0.978   2.705   4.698  0.4021 -0.3268 -0.1938
 7901TIP3    H145118   0.978   2.671   4.608  3.2607 -0.9120 -0.0661
 7901TIP3    H245119   1.027   2.787   4.693 -2.1046  1.3359  0.3901
 7902TIP3   OH245120   5.454   5.802  13.966 -0.4484 -0.4050 -0.5555
 7902TIP3    H145121   5.358   5.809  13.964 -0.4109  0.3109 -0.1233
 7902TIP3    H245122   5.485   5.878  13.917 -0.1017 -2.2607 -3.4601
 7903TIP3   OH245123   1.821   4.908   2.770  0.3121  0.3385 -0.2423
 7903TIP3    H145124   1.783   4.949   2.848  1.0571  0.8447 -0.1413
 7903TIP3    H245125   1.818   4.814   2.788 -1.6699  0.2834 -0.5884
 7904TIP3   OH245126   6.344   6.637  12.869 -0.2639  0.2562  0.1138
 7904TIP3    H145127   6.396   6.709  12.904 -1.9646  2.5038 -1.6889
 7904TIP3    H245128   6.406   6.584  12.819  0.8808  0.8712  0.8400
 7905TIP3   OH245129   5.056   6.342   2.234 -0.1575  0.0648  0.0147
 7905TIP3    H145130   5.054   6.375   2.144  0.3338  0.2330  0.0656
 7905TIP3    H245131   5.063   6.421   2.288 -0.5321 -0.0299  0.2079
 7906TIP3   OH245132   6.013   1.885  13.343  0.0710  0.3806 -0.6906
 7906TIP3    H145133   5.976   1.799  13.321  1.9966 -0.5989 -0.3635
 7906TIP3    H245134   6.085   1.896  13.281  1.8806  0.2430  1.2742
 7907TIP3   OH245135   4.526   2.280  11.657 -0.4163 -0.3149  0.6762
 7907TIP3    H145136   4.450   2.297  11.602  0.4723  0.9206 -0.2262
 7907TIP3    H245137   4.589   2.238  11.598 -0.0145 -0.4031  1.1592
 7908TIP3   OH245138   6.041   0.740   5.030  0.3524 -0.2168 -0.1008
 7908TIP3    H145139   5.966   0.709   5.081  1.0468  0.3927  1.3427
 7908TIP3    H245140   6.111   0.678   5.049  0.8560  0.4821  0.3795
 7909TIP3   OH245141   3.511   5.893  13.632 -0.3105  0.2693  0.1218
 7909TIP3    H145142   3.519   5.985  13.606  1.0776  0.0816 -0.1775
 7909TIP3    H245143   3.566   5.846  13.571 -1.8039 -0.9201 -0.3673
 7910TIP3   OH245144   0.140   4.082  13.381  0.0314 -0.0879 -0.6670
 7910TIP3    H145145   0.099   4.037  13.308  0.6158 -2.1700  0.1943
 7910TIP3    H245146   0.212   4.130  13.342 -0.4334 -0.1355 -1.6129
 7911TIP3   OH245147   4.402   2.487   0.657 -0.3041 -0.3456 -0.0392
 7911TIP3    H145148   4.483   2.536   0.642 -0.8319  0.4877 -0.2401
 7911TIP3    H245149   4.365   2.527   0.736 -2.3168  1.7725 -1.9204
 7912TIP3   OH245150   6.255   0.799  11.559 -0.3255  0.3536 -0.3636
 7912TIP3    H145151   6.175   0.752  11.582 -1.0433  0.8522 -1.7336
 7912TIP3    H245152   6.321   0.766  11.621 -1.5510 -0.1310  0.7304
 7913TIP3   OH245153   0.388   2.997  11.947  0.3189 -0.0823 -0.5191
 7913TIP3    H145154   0.327   2.951  12.004  0.1689  1.6135  0.7534
 7913TIP3    H245155   0.434   2.928  11.900 -0.3745 -1.4922  0.8091
 7914TIP3   OH245156   1.984   0.348  10.820 -0.2357  0.1191 -0.0678
 7914TIP3    H145157   1.996   0.408  10.893  0.1146 -0.1232  0.0769
 7914TIP3    H245158   1.961   0.264  10.860  0.4745 -0.1485 -0.1941
 7915TIP3   OH245159   3.129   1.765  15.414  0.0804  0.4330  0.2291
 7915TIP3    H145160   3.215   1.796  15.388 -1.1214  1.9623 -2.3342
 7915TIP3    H245161   3.119   1.794  15.505  1.3695  2.3902 -0.1854
 7916TIP3   OH245162   4.423   1.534   4.463  0.2720  0.0439  0.0754
 7916TIP3    H145163   4.360   1.465   4.484 -0.3284  0.3631 -0.6221
 7916TIP3    H245164   4.408   1.601   4.529 -0.7370  0.4954 -0.5774
 7917TIP3   OH245165   2.497   1.902   0.199 -0.0518 -0.1976 -0.0373
 7917TIP3    H145166   2.487   1.809   0.219  0.0267 -0.0709  0.6223
 7917TIP3    H245167   2.476   1.947   0.281  1.2689  0.2960  0.0596
 7918TIP3   OH245168   1.387   3.609  12.862 -0.1467  0.3510 -0.0498
 7918TIP3    H145169   1.480   3.593  12.849 -0.7530 -2.6988 -1.5041
 7918TIP3    H245170   1.358   3.653  12.783 -0.3467 -1.0034 -0.7616
 7919TIP3   OH245171   2.800   3.541   2.316 -0.4628 -0.4113  0.3146
 7919TIP3    H145172   2.746   3.470   2.280 -0.4003 -0.3162  0.0370
 7919TIP3    H245173   2.882   3.537   2.267  0.1160 -1.0930  1.3137
 7920TIP3   OH245174   4.115   6.104   1.696 -0.1865 -0.1005  0.0203
 7920TIP3    H145175   4.176   6.049   1.648  1.7813 -0.4325  2.6845
 7920TIP3    H245176   4.083   6.048   1.767  2.5911  2.1471  3.4053
 7921TIP3   OH245177   2.510   5.871  14.104 -0.1809 -0.2388  0.3358
 7921TIP3    H145178   2.475   5.846  14.190 -3.3619 -0.5587 -0.9106
 7921TIP3    H245179   2.531   5.788  14.062 -1.2971 -0.2827 -0.1710
 7922TIP3   OH245180   3.947   4.925  14.229  0.0067  0.1003  0.3741
 7922TIP3    H145181   4.031   4.953  14.192  0.9354  0.7335  2.7689
 7922TIP3    H245182   3.970   4.849  14.284 -1.1141 -0.1446  0.5174
 7923TIP3   OH245183   0.421   2.339  16.591 -0.1165  0.3720  0.6045
 7923TIP3    H145184   0.360   2.323  16.663  1.1354 -0.5325  1.5099
 7923TIP3    H245185   0.486   2.399  16.628  0.5047 -0.0540  0.2169
 7924TIP3   OH245186   4.658   0.041   5.309  0.4607 -0.2325  0.0088
 7924TIP3    H145187   4.694  -0.032   5.359  4.2398  1.8798  0.7924
 7924TIP3    H245188   4.680   0.022   5.218  0.0021 -0.7662  0.0063
 7925TIP3   OH245189   2.811   0.234  12.718 -0.4645  0.2871 -0.0727
 7925TIP3    H145190   2.798   0.142  12.698 -0.2941  0.4510 -0.9803
 7925TIP3    H245191   2.904   0.243  12.735 -0.2430  0.5140 -1.2938
 7926TIP3   OH245192   4.622   1.851  11.569 -0.2232  0.0243 -0.4188
 7926TIP3    H145193   4.564   1.792  11.521 -0.2474  0.6472 -1.1707
 7926TIP3    H245194   4.647   1.917  11.505  1.7255 -0.5020 -0.2473
 7927TIP3   OH245195   5.713   5.543   1.723  0.1516 -0.3373 -0.7618
 7927TIP3    H145196   5.687   5.550   1.632 -0.7052  0.6125 -0.4567
 7927TIP3    H245197   5.807   5.524   1.720 -0.0387 -1.1971 -1.8382
 7928TIP3   OH245198   6.247   1.326  11.774  0.2179  0.7419 -0.2431
 7928TIP3    H145199   6.301   1.314  11.853  0.8354 -1.2132 -0.8995
 7928TIP3    H245200   6.175   1.382  11.803  0.7105  0.5139  1.5812
 7929TIP3   OH245201   2.977   3.781   3.433 -1.1347 -0.0580 -0.1482
 7929TIP3    H145202   2.909   3.833   3.477  1.4144  1.4504  2.2958
 7929TIP3    H245203   2.990   3.705   3.490  0.0508  0.2980  0.0797
 7930TIP3   OH245204   3.044   3.434   3.788  0.0941  0.4254  0.2484
 7930TIP3    H145205   2.999   3.376   3.849 -1.3889 -0.2503 -1.4080
 7930TIP3    H245206   3.078   3.504   3.843  0.9045 -1.3563  2.1526
 7931TIP3   OH245207   6.353   6.625  12.196 -0.4887  0.8430 -0.0787
 7931TIP3    H145208   6.322   6.635  12.286  1.6581 -0.9577  0.9541
 7931TIP3    H245209   6.433   6.677  12.192  0.8302 -1.0890 -0.1006
 7932TIP3   OH245210   6.237   5.996  17.137 -0.1597 -0.3125  0.6291
 7932TIP3    H145211   6.255   5.947  17.217  2.1412 -1.6374 -0.6165
 7932TIP3    H245212   6.248   6.088  17.163  0.3463 -0.6992  1.8676
 7933TIP3   OH245213   1.897   6.631   2.709 -0.1985  0.0106 -0.0382
 7933TIP3    H145214   1.833   6.638   2.638 -0.3850  1.7239  0.2361
 7933TIP3    H245215   1.969   6.688   2.682 -0.0481  0.2943  0.9057
 7934TIP3   OH245216   5.059   0.601   5.736 -0.0997 -0.0265 -0.2828
 7934TIP3    H145217   5.121   0.628   5.804 -1.0463  2.8981 -0.4327
 7934TIP3    H245218   5.085   0.651   5.659 -1.1099 -0.6998 -1.0872
 7935TIP3   OH245219   4.530   2.432  15.061  0.5619 -0.2575 -0.2954
 7935TIP3    H145220   4.594   2.400  14.997 -0.6504  0.3327 -1.8981
 7935TIP3    H245221   4.464   2.478  15.007 -1.7564 -1.7311  1.1188
 7936TIP3   OH245222   3.526   4.140  16.846  0.8326  0.4019  0.2146
 7936TIP3    H145223   3.612   4.165  16.812  1.0754  0.0768  0.5792
 7936TIP3    H245224   3.464   4.185  16.789  1.2463  0.7986  0.0701
 7937TIP3   OH245225   4.812   1.355   1.870  0.3272  0.1448  0.0758
 7937TIP3    H145226   4.751   1.389   1.805  0.9880 -0.9787 -1.1739
 7937TIP3    H245227   4.769   1.275   1.902 -0.2609  0.9748  1.4916
 7938TIP3   OH245228   1.584   3.054  12.829 -0.2094  0.1141 -0.7011
 7938TIP3    H145229   1.607   2.963  12.843  1.4141  0.4799 -0.7857
 7938TIP3    H245230   1.489   3.057  12.836 -0.2459 -1.5085 -0.3345
 7939TIP3   OH245231   4.826   1.078  10.662  1.3243  0.0498  0.2399
 7939TIP3    H145232   4.854   1.012  10.725  2.0284 -1.3561 -1.4655
 7939TIP3    H245233   4.898   1.083  10.599 -0.5280 -0.8255 -2.1065
 7940TIP3   OH245234   4.972   1.999  13.382  0.5601  0.4377 -0.6160
 7940TIP3    H145235   4.922   2.080  13.377 -1.1219 -0.6238 -2.1235
 7940TIP3    H245236   5.032   2.002  13.308  1.2397  0.7374 -0.0681
 7941TIP3   OH245237   3.447   6.575   3.374 -0.2070 -0.3227 -0.1805
 7941TIP3    H145238   3.473   6.536   3.291 -2.1174 -0.3021 -0.8340
 7941TIP3    H245239   3.526   6.573   3.427  0.4388 -2.6652 -1.1020
 7942TIP3   OH245240   2.091   0.203   2.689 -0.3510  0.1326 -0.3147
 7942TIP3    H145241   2.173   0.251   2.694  0.5386 -1.3724  0.2391
 7942TIP3    H245242   2.056   0.206   2.778 -2.5593  3.4118 -1.1270
 7943TIP3   OH245243   2.483   5.398   6.273  0.1582  0.5904  0.0425
 7943TIP3    H145244   2.462   5.328   6.335 -1.9643  0.2284 -1.0197
 7943TIP3    H245245   2.455   5.478   6.318  0.8715  0.5989  0.4971
 7944TIP3   OH245246   1.580   4.202  15.313  0.6655 -0.0838  0.2795
 7944TIP3    H145247   1.559   4.205  15.407  0.7990  1.0160  0.2867
 7944TIP3    H245248   1.508   4.250  15.271  0.4709 -0.7966 -0.2109
 7945TIP3   OH245249   3.309   1.461   0.960 -0.3693 -0.1304 -0.2792
 7945TIP3    H145250   3.347   1.548   0.947 -1.1463  0.0576 -1.5775
 7945TIP3    H245251   3.383   1.405   0.982  0.4181  0.5113 -1.1993
 7946TIP3   OH245252   0.566   4.031  13.132  0.8339 -0.6965 -0.1672
 7946TIP3    H145253   0.526   3.955  13.090  1.9373 -0.8128 -1.0577
 7946TIP3    H245254   0.654   4.035  13.095  1.2490  0.2371  0.8654
 7947TIP3   OH245255   0.649   1.155  14.487  0.6591 -0.4224  0.4235
 7947TIP3    H145256   0.595   1.080  14.462  0.7986 -0.5011  0.3530
 7947TIP3    H245257   0.678   1.135  14.576  1.1086 -0.6981  0.2255
 7948TIP3   OH245258   1.382   4.884   3.670 -0.3178 -0.0327  0.0390
 7948TIP3    H145259   1.382   4.789   3.682 -1.2087 -0.0971 -0.3850
 7948TIP3    H245260   1.366   4.896   3.576 -3.9196  0.5192  0.5538
 7949TIP3   OH245261   1.909   4.675   0.343 -0.4557 -0.2754  0.2608
 7949TIP3    H145262   2.004   4.667   0.341 -0.5308 -1.2829 -1.4322
 7949TIP3    H245263   1.891   4.729   0.420  1.5448  1.0182 -0.0980
 7950TIP3   OH245264   0.759   6.028  16.263 -0.0434  0.0025 -0.3701
 7950TIP3    H145265   0.822   5.984  16.206  0.2036 -0.4709  0.2571
 7950TIP3    H245266   0.674   5.989  16.240 -0.2701  1.2762 -1.8490
 7951TIP3   OH245267   4.887   5.564  16.262 -0.6651 -0.1470 -0.3029
 7951TIP3    H145268   4.802   5.606  16.268  0.0966  1.4253  0.0121
 7951TIP3    H245269   4.915   5.552  16.353 -0.9907 -1.6759 -0.3700
 7952TIP3   OH245270   5.378   5.924   5.193  0.1753  0.5211  0.7175
 7952TIP3    H145271   5.388   5.868   5.115  0.1789  2.4501 -0.7596
 7952TIP3    H245272   5.423   5.876   5.263  0.0587 -1.3541 -0.4231
 7953TIP3   OH245273   3.515   0.749  16.144 -0.4262  0.1768 -0.1548
 7953TIP3    H145274   3.467   0.719  16.067  1.0155  0.1368 -1.0934
 7953TIP3    H245275   3.534   0.841  16.125 -2.3269  0.9409  1.3847
 7954TIP3   OH245276   4.593   4.718   2.240 -0.0280 -0.3631  0.3601
 7954TIP3    H145277   4.532   4.791   2.257 -1.1455 -0.9028 -1.1236
 7954TIP3    H245278   4.574   4.656   2.311 -0.8395 -0.2853  0.2299
 7955TIP3   OH245279   3.487   1.226   5.628 -0.1132 -0.9539 -0.9763
 7955TIP3    H145280   3.426   1.176   5.682 -1.7079  0.0856 -1.7192
 7955TIP3    H245281   3.554   1.257   5.689 -2.0254  0.4663  0.5317
 7956TIP3   OH245282   4.067   3.495   2.006  0.1640  0.6958  0.0843
 7956TIP3    H145283   3.998   3.456   1.953  0.5321 -1.4246  1.0571
 7956TIP3    H245284   4.027   3.573   2.044 -0.9225  0.7953 -1.1864
 7957TIP3   OH245285   1.853   5.060  13.652  0.2188  0.2128 -0.3313
 7957TIP3    H145286   1.942   5.025  13.644  0.8626  1.5731  0.6177
 7957TIP3    H245287   1.850   5.134  13.592 -0.4117 -0.0494 -0.6395
 7958TIP3   OH245288   3.561   2.167   2.239  0.5848 -0.1298  0.1419
 7958TIP3    H145289   3.584   2.260   2.237 -0.6623  0.1831 -2.1216
 7958TIP3    H245290   3.615   2.128   2.170 -2.0526 -0.2065 -2.0239
 7959TIP3   OH245291   0.273   5.093   3.280 -0.1325 -0.5529  0.7318
 7959TIP3    H145292   0.270   5.090   3.375  0.4379 -0.2034  0.7631
 7959TIP3    H245293   0.366   5.088   3.258 -0.1199  1.0633  0.2681
 7960TIP3   OH245294   6.141   6.304   4.148  0.0350  0.2557 -0.5777
 7960TIP3    H145295   6.138   6.375   4.213 -0.6489  1.8266 -2.2232
 7960TIP3    H245296   6.179   6.345   4.070  0.6135 -1.5048 -1.2678
 7961TIP3   OH245297   1.037   0.072   0.599 -0.2129  0.9204 -0.0936
 7961TIP3    H145298   1.022   0.081   0.693  0.4708  0.9302  0.0175
 7961TIP3    H245299   0.989   0.145   0.560  1.4318  2.3365  0.4333
 7962TIP3   OH245300   3.646   4.679   0.481  0.1472  0.5638  0.6372
 7962TIP3    H145301   3.555   4.707   0.467 -0.0293 -0.5336 -0.5570
 7962TIP3    H245302   3.654   4.597   0.432  1.4376 -0.0143  1.7522
 7963TIP3   OH245303   2.464   2.990   5.572 -0.1329  0.0397  0.1367
 7963TIP3    H145304   2.385   3.044   5.563 -1.1452 -1.5298 -0.8993
 7963TIP3    H245305   2.537   3.051   5.558 -1.2265  1.0730 -1.3366
 7964TIP3   OH245306   4.523   1.980   4.218  0.0311  0.5013  0.2589
 7964TIP3    H145307   4.469   1.902   4.231  1.2355 -0.0459  2.6011
 7964TIP3    H245308   4.469   2.052   4.251 -0.2187  0.3439  0.2019
 7965TIP3   OH245309   4.437   4.904   1.586 -0.4698 -0.0451 -0.1415
 7965TIP3    H145310   4.478   4.909   1.672  0.7072 -3.5700 -0.3475
 7965TIP3    H245311   4.488   4.964   1.532 -0.1420  0.9196  1.1902
 7966TIP3   OH245312   1.785   3.184   5.764  0.1024  0.7472  0.2537
 7966TIP3    H145313   1.715   3.217   5.820 -2.4934 -2.1869 -0.9810
 7966TIP3    H245314   1.836   3.126   5.820  0.8322  1.9085  0.8299
 7967TIP3   OH245315   6.039   6.714   1.340  0.0801 -0.0374  0.0577
 7967TIP3    H145316   6.134   6.721   1.350 -0.0529  0.9707  0.8154
 7967TIP3    H245317   6.006   6.797   1.373 -1.0456 -0.2171 -0.5880
 7968TIP3   OH245318   2.521   2.313  16.481 -0.0251  0.0275  0.4386
 7968TIP3    H145319   2.604   2.266  16.473 -0.6398 -1.7740  3.0842
 7968TIP3    H245320   2.481   2.277  16.561 -2.8757  1.5809 -0.1482
 7969TIP3   OH245321   1.743   1.698   2.599  0.0627  0.4028 -0.0199
 7969TIP3    H145322   1.701   1.702   2.685 -0.8240  1.7727 -0.4865
 7969TIP3    H245323   1.717   1.613   2.563 -3.3268  1.6131 -0.7438
 7970TIP3   OH245324   1.724   3.489  11.488 -0.2107 -0.1809  0.4509
 7970TIP3    H145325   1.643   3.463  11.443 -1.3521  2.5233  0.7354
 7970TIP3    H245326   1.774   3.536  11.421  1.2989 -2.0157  0.2190
 7971TIP3   OH245327   0.506   0.594  16.275 -0.1901 -0.3224  0.0228
 7971TIP3    H145328   0.547   0.509  16.292  0.3712  0.4091  2.7824
 7971TIP3    H245329   0.412   0.576  16.276 -0.0679 -1.1935 -1.4221
 7972TIP3   OH245330   1.450   0.251  13.737 -0.2050  0.2706  0.3231
 7972TIP3    H145331   1.505   0.320  13.701  0.1587 -0.7061 -1.0672
 7972TIP3    H245332   1.501   0.171  13.723 -1.0200 -0.3882  1.0615
 7973TIP3   OH245333   1.440   6.235  13.423 -0.3241  0.0809  0.0215
 7973TIP3    H145334   1.446   6.297  13.350  0.1300 -0.7287 -0.6519
 7973TIP3    H245335   1.492   6.275  13.493 -0.9800  0.9919  0.0084
 7974TIP3   OH245336   6.396   3.794   0.961  0.6010  0.0117 -0.2340
 7974TIP3    H145337   6.372   3.886   0.972  2.7070  0.4605  1.2064
 7974TIP3    H245338   6.469   3.795   0.898  0.8832 -0.6364  0.0668
 7975TIP3   OH245339   6.083   2.185  13.368 -0.3669 -0.0556  0.5655
 7975TIP3    H145340   6.138   2.191  13.290 -0.3095 -0.7229  0.5490
 7975TIP3    H245341   6.086   2.272  13.406 -1.6273  0.7440 -1.0026
 7976TIP3   OH245342   4.534   0.532  15.811 -0.1503 -0.2143 -0.2939
 7976TIP3    H145343   4.526   0.593  15.885  1.1310 -1.6209  1.0982
 7976TIP3    H245344   4.445   0.503  15.794 -0.3881 -0.6522  1.4612
 7977TIP3   OH245345   2.505   2.887   1.293 -0.0788 -0.0638 -0.3475
 7977TIP3    H145346   2.543   2.799   1.298  1.4090  0.6194  2.3867
 7977TIP3    H245347   2.580   2.946   1.284 -0.7317  1.0963  1.3548
 7978TIP3   OH245348   0.567   3.948  16.668  0.1173  0.0085  0.2917
 7978TIP3    H145349   0.624   4.014  16.628  0.5097 -0.6340 -0.2310
 7978TIP3    H245350   0.621   3.869  16.674 -0.1600 -0.1168  1.4469
 7979TIP3   OH245351   3.240   3.833  15.304  0.5170  0.4578  0.4304
 7979TIP3    H145352   3.289   3.891  15.362 -0.7942  1.5763  0.4794
 7979TIP3    H245353   3.163   3.808  15.355 -0.8953  1.8158 -0.8933
 7980TIP3   OH245354   2.648   5.061  15.271 -0.3069 -0.6302 -0.2050
 7980TIP3    H145355   2.729   5.099  15.303  0.3160  1.0299 -3.3759
 7980TIP3    H245356   2.663   4.966  15.275  1.5847 -0.3663 -0.2506
 7981TIP3   OH245357   1.996   1.678   5.573  0.4056 -0.3223 -0.0687
 7981TIP3    H145358   1.922   1.680   5.512 -0.7898 -1.1375  1.2859
 7981TIP3    H245359   2.073   1.681   5.517 -0.6372 -0.9166 -1.6201
 7982TIP3   OH245360   6.013   2.680   0.668  0.2402  0.1734  0.0975
 7982TIP3    H145361   5.985   2.733   0.742  1.2640 -2.2600  2.3979
 7982TIP3    H245362   6.107   2.669   0.679  0.3386 -0.6836 -1.2661
 7983TIP3   OH245363   4.366   3.743   3.972  0.2629  0.0443 -0.3741
 7983TIP3    H145364   4.364   3.647   3.969  1.1766 -0.0157  0.5082
 7983TIP3    H245365   4.352   3.764   4.065  0.9858  0.7308 -0.4156
 7984TIP3   OH245366   1.281   3.027  12.463  0.0796  0.2017 -0.8554
 7984TIP3    H145367   1.375   3.011  12.461 -0.0922 -0.8585 -1.5341
 7984TIP3    H245368   1.258   3.029  12.556  1.1196  2.9425 -0.5490
 7985TIP3   OH245369   0.264   2.849  15.597  0.1957  0.0066  0.1769
 7985TIP3    H145370   0.356   2.833  15.616  0.4166  2.2403  1.3199
 7985TIP3    H245371   0.218   2.825  15.678 -0.0262  0.4666  0.1873
 7986TIP3   OH245372   4.745   2.739  15.884  0.2857 -0.2458 -0.0102
 7986TIP3    H145373   4.759   2.689  15.803 -0.9091 -1.0321  0.2330
 7986TIP3    H245374   4.831   2.776  15.905  0.5505  0.2210 -1.7835
 7987TIP3   OH245375   2.202   4.915  16.148 -0.3035  0.3587 -0.2022
 7987TIP3    H145376   2.215   4.922  16.243  0.2264  1.0229 -0.3129
 7987TIP3    H245377   2.169   4.826  16.134  0.2415  0.0377  0.5320
 7988TIP3   OH245378   4.119   6.721  11.642 -0.2775 -0.3152 -0.1717
 7988TIP3    H145379   4.152   6.811  11.635  2.9955 -1.3272  0.9798
 7988TIP3    H245380   4.092   6.712  11.733 -1.3821 -0.3099 -0.4806
 7989TIP3   OH245381   1.525   0.430   2.210 -0.4456  0.9590 -0.1218
 7989TIP3    H145382   1.555   0.490   2.142  0.4655  1.7877  0.9551
 7989TIP3    H245383   1.569   0.347   2.190 -0.8801  0.9302 -1.0171
 7990TIP3   OH245384   0.162   5.881  16.368 -0.0166 -0.4391  0.0034
 7990TIP3    H145385   0.242   5.842  16.333  1.4170  2.1392  0.1407
 7990TIP3    H245386   0.188   5.919  16.452 -1.4800  0.0797  0.2566
 7991TIP3   OH245387   1.286   0.966   3.829  0.5598 -0.2445 -0.1378
 7991TIP3    H145388   1.230   0.945   3.905  1.3717 -0.3146  0.4556
 7991TIP3    H245389   1.304   1.059   3.838  0.1628 -0.1175 -0.5958
 7992TIP3   OH245390   2.408   4.059   3.205 -0.6664 -0.2321 -0.2847
 7992TIP3    H145391   2.458   4.055   3.124 -1.6246 -0.1030 -0.8929
 7992TIP3    H245392   2.419   4.148   3.236  2.4411 -1.1047  1.5334
 7993TIP3   OH245393   5.306   6.690  11.087 -0.0696 -0.1593  0.1003
 7993TIP3    H145394   5.264   6.611  11.054 -0.8984  0.3649 -0.1190
 7993TIP3    H245395   5.398   6.666  11.097  0.0094 -0.6279 -1.5993
 7994TIP3   OH245396   3.831   3.831   1.592 -0.0801  0.1323 -0.2387
 7994TIP3    H145397   3.913   3.839   1.641  0.0140 -0.4472 -0.2973
 7994TIP3    H245398   3.817   3.918   1.555  1.0207  0.0012 -1.0359
 7995TIP3   OH245399   1.873   6.036   3.197  0.0272  0.2886  0.2408
 7995TIP3    H145400   1.949   6.022   3.141  0.4976 -0.2696  1.0062
 7995TIP3    H245401   1.858   5.952   3.239  0.0819  0.8531  1.4356
 7996TIP3   OH245402   0.442   0.995  12.555  0.4908  0.9200 -0.1097
 7996TIP3    H145403   0.438   0.900  12.563  2.2385  0.8727  0.5800
 7996TIP3    H245404   0.351   1.023  12.548 -0.1015 -0.7203  0.6934
 7997TIP3   OH245405   6.510   1.092   0.284 -0.0409  0.0122  0.2011
 7997TIP3    H145406   6.585   1.032   0.277  0.0364  0.0272  0.8617
 7997TIP3    H245407   6.506   1.114   0.377  0.3456  1.5832 -0.1376
 7998TIP3   OH245408   5.701   1.148  12.632  0.2114  0.0581  0.2981
 7998TIP3    H145409   5.747   1.080  12.681 -2.1631 -1.0964  1.0554
 7998TIP3    H245410   5.661   1.203  12.699  1.5625  1.9041 -0.3173
 7999TIP3   OH245411   6.735   1.615  10.854 -0.0089  0.0823  1.0075
 7999TIP3    H145412   6.777   1.650  10.933  0.3641  0.7771  0.5126
 7999TIP3    H245413   6.659   1.567  10.887  1.2412 -1.3340  1.9360
 8000TIP3   OH245414   4.592   1.903   0.960  0.2182  0.1595 -0.5357
 8000TIP3    H145415   4.601   1.808   0.971 -0.2923  0.1632  0.0092
 8000TIP3    H245416   4.612   1.919   0.868  0.8520 -0.4082 -0.5043
 8001TIP3   OH245417   1.656   4.813  12.430 -0.5263  0.0669  0.0985
 8001TIP3    H145418   1.708   4.887  12.400  1.8936 -0.9908  1.3876
 8001TIP3    H245419   1.569   4.828  12.393  0.8969  1.4010 -3.0444
 8002TIP3   OH245420   5.377   3.970   0.152  0.0432  0.0508 -0.3251
 8002TIP3    H145421   5.465   3.930   0.153  0.8162  1.6968  0.1863
 8002TIP3    H245422   5.333   3.928   0.078  0.6517 -2.0349  0.4285
 8003TIP3   OH245423   5.321   4.608   0.748 -0.0197 -0.2085  0.0592
 8003TIP3    H145424   5.352   4.685   0.795  0.5811 -0.1126 -0.4813
 8003TIP3    H245425   5.280   4.553   0.815  2.2334 -0.8411  1.0236
 8004TIP3   OH245426   5.231   2.467  11.944 -0.4796 -0.0357  0.2285
 8004TIP3    H145427   5.319   2.505  11.947 -0.7041  0.4287  1.8192
 8004TIP3    H245428   5.246   2.372  11.938  0.1083  0.0933 -0.4507
 8005TIP3   OH245429   2.179   5.290   5.114  0.3302  0.1046  0.0232
 8005TIP3    H145430   2.175   5.323   5.204 -1.2657  0.1046 -0.0073
 8005TIP3    H245431   2.238   5.350   5.069  0.2703  0.7843  0.8141
 8006TIP3   OH245432   1.440   5.097   2.635 -0.2067 -0.4603 -0.0269
 8006TIP3    H145433   1.458   5.138   2.720  0.6250 -0.1893 -0.3335
 8006TIP3    H245434   1.457   5.004   2.649  0.8275 -0.2945 -0.1369
 8007TIP3   OH245435   3.808   3.982  13.646  0.4770  0.1661  0.0823
 8007TIP3    H145436   3.716   3.959  13.657 -0.3390  3.4419  1.0031
 8007TIP3    H245437   3.853   3.897  13.641 -2.7465 -1.6315 -2.7038
 8008TIP3   OH245438   3.011   4.485   2.758  0.2566  0.0618 -0.2753
 8008TIP3    H145439   3.023   4.453   2.847  1.6505 -0.8958 -0.7792
 8008TIP3    H245440   2.925   4.450   2.732  0.5069 -0.9406  0.1743
 8009TIP3   OH245441   4.152   0.896   4.270 -0.2553 -0.1991  0.8835
 8009TIP3    H145442   4.096   0.900   4.347  2.4386 -0.7553  3.0289
 8009TIP3    H245443   4.211   0.823   4.286  1.3689  0.5825 -1.0243
 8010TIP3   OH245444   2.603   1.564   2.214  0.1582 -0.3150  0.1047
 8010TIP3    H145445   2.556   1.586   2.133  1.6938 -0.2750 -0.8091
 8010TIP3    H245446   2.619   1.470   2.208 -0.1492 -0.4049  0.6111
 8011TIP3   OH245447   2.841   0.920   4.373  0.0885  0.3139  0.4601
 8011TIP3    H145448   2.910   0.948   4.313  0.2313  1.0252  0.9429
 8011TIP3    H245449   2.797   1.001   4.398 -2.2753 -0.2714 -1.4315
 8012TIP3   OH245450   1.499   3.294  15.297 -0.1239  0.1217  0.2613
 8012TIP3    H145451   1.513   3.389  15.294 -1.7449  0.3725 -1.8731
 8012TIP3    H245452   1.526   3.263  15.211 -2.3252 -0.8608 -0.1561
 8013TIP3   OH245453   1.009   6.711  14.022  0.3073  0.7313  0.1320
 8013TIP3    H145454   1.003   6.634  14.078 -0.2274 -0.0754 -0.9888
 8013TIP3    H245455   1.000   6.785  14.081 -1.1673 -0.1062  1.0037
 8014TIP3   OH245456   6.105   3.746   2.260 -0.0245 -0.5829  0.1152
 8014TIP3    H145457   6.074   3.814   2.319 -1.2116  0.3630 -1.5142
 8014TIP3    H245458   6.072   3.772   2.174  1.3894 -2.0467 -0.9344
 8015TIP3   OH245459   2.272   0.730  17.025 -0.2349  0.2079  0.7242
 8015TIP3    H145460   2.344   0.693  16.975 -0.6291 -0.9631  0.9975
 8015TIP3    H245461   2.201   0.666  17.017 -0.8982  0.8513  1.3031
 8016TIP3   OH245462   3.157   4.126  10.943  0.0771 -0.1479  0.0305
 8016TIP3    H145463   3.099   4.066  10.989  0.2010 -0.3783 -0.1148
 8016TIP3    H245464   3.225   4.070  10.906 -0.1703  0.0061 -0.6668
 8017TIP3   OH245465   1.868   1.763  11.586 -0.1651 -0.0786  0.5842
 8017TIP3    H145466   1.889   1.780  11.495 -0.4190 -2.1837  0.0855
 8017TIP3    H245467   1.940   1.804  11.635  0.4281  0.3288 -0.5988
 8018TIP3   OH245468   3.740   3.912   0.589 -0.4367  0.1112 -0.6412
 8018TIP3    H145469   3.778   3.825   0.600 -0.1982  0.3059  0.0654
 8018TIP3    H245470   3.815   3.970   0.579 -0.3887  0.7913  2.7254
 8019TIP3   OH245471   2.634   5.508   1.053  0.6391  0.1749  0.2268
 8019TIP3    H145472   2.578   5.435   1.025  1.6660 -0.9986  1.0885
 8019TIP3    H245473   2.674   5.540   0.972 -0.2658  0.1672 -0.2310
 8020TIP3   OH245474   2.489   0.157  15.574 -0.5855 -0.0038 -0.1027
 8020TIP3    H145475   2.461   0.113  15.654 -0.8059 -1.4256 -0.9057
 8020TIP3    H245476   2.485   0.088  15.507  4.5991 -0.3679 -0.4224
 8021TIP3   OH245477   2.998   4.995  11.304 -0.4216 -0.2023 -0.3791
 8021TIP3    H145478   3.051   5.020  11.229 -1.1565  1.0859 -0.5081
 8021TIP3    H245479   2.989   4.900  11.298  2.1945 -0.5289 -0.0909
 8022TIP3   OH245480   3.638   0.817   4.949  0.4978  0.0576 -0.1263
 8022TIP3    H145481   3.577   0.888   4.968  0.4717  0.5013 -1.7437
 8022TIP3    H245482   3.592   0.738   4.979  0.4619  0.6614  1.5309
 8023TIP3   OH245483   5.123   5.871   5.011 -0.2478  0.0294 -0.1162
 8023TIP3    H145484   5.171   5.797   5.048  0.5012  0.0979 -0.9033
 8023TIP3    H245485   5.036   5.836   4.992  0.2442 -0.8050 -0.9196
 8024TIP3   OH245486   2.553   4.682  10.861 -0.8242  0.2547 -0.2798
 8024TIP3    H145487   2.474   4.629  10.865 -0.0817 -0.8318  3.0495
 8024TIP3    H245488   2.522   4.772  10.865 -1.9346 -0.1015 -0.5835
 8025TIP3   OH245489   4.914   6.199  13.092  0.4103  0.2088 -0.6579
 8025TIP3    H145490   4.874   6.234  13.172 -0.2910 -0.2730 -0.7811
 8025TIP3    H245491   5.008   6.198  13.110  0.2901  0.4813  0.0100
 8026TIP3   OH245492   2.782   5.271  11.877 -0.1178  0.1761  0.0575
 8026TIP3    H145493   2.737   5.261  11.793  0.6630 -1.4635 -0.2038
 8026TIP3    H245494   2.862   5.318  11.856 -0.3352  0.5362  0.0327
 8027TIP3   OH245495   2.729   2.591  14.230 -0.4961 -0.0006 -0.8530
 8027TIP3    H145496   2.743   2.520  14.292  1.8265  1.2519  0.2019
 8027TIP3    H245497   2.753   2.554  14.145 -1.4244 -1.0618 -0.6722
 8028TIP3   OH245498   1.542   0.656  12.717 -0.8552 -0.1750 -0.7096
 8028TIP3    H145499   1.597   0.599  12.665 -1.5216  0.0545 -1.6849
 8028TIP3    H245500   1.547   0.620  12.806  0.6136 -0.3258 -0.8238
 8029TIP3   OH245501   0.000   4.306   0.286  0.5431 -0.1952  0.2953
 8029TIP3    H145502   0.009   4.304   0.190  1.6492  2.3413  0.2466
 8029TIP3    H245503  -0.017   4.216   0.311 -0.2722 -0.8584 -2.3363
 8030TIP3   OH245504   2.598   0.683  11.654 -0.9056  0.1540  0.4051
 8030TIP3    H145505   2.585   0.590  11.635  0.5644 -0.3321  1.5775
 8030TIP3    H245506   2.674   0.707  11.601  1.9269 -0.6892  3.7226
 8031TIP3   OH245507   4.432   0.322  11.307 -0.2302  0.5617  0.0599
 8031TIP3    H145508   4.496   0.287  11.245  1.7139  0.4866  1.9984
 8031TIP3    H245509   4.409   0.408  11.273  0.9166  0.5848 -0.6853
 8032TIP3   OH245510   3.850   1.450  15.739  0.1229  0.2232 -0.1920
 8032TIP3    H145511   3.846   1.541  15.768  1.9609  1.5494 -3.6528
 8032TIP3    H245512   3.932   1.417  15.775  1.0401  0.9849 -1.5394
 8033TIP3   OH245513   6.573   4.114  15.499  0.0413 -0.1838  0.2417
 8033TIP3    H145514   6.489   4.072  15.519  0.2490 -0.4876  0.4809
 8033TIP3    H245515   6.639   4.054  15.534  0.3467  0.2403  0.3996
 8034TIP3   OH245516   6.140   0.859  16.096  0.1751  0.0615  0.2808
 8034TIP3    H145517   6.179   0.947  16.091  1.1937 -0.4149 -0.4878
 8034TIP3    H245518   6.114   0.850  16.188  0.1190  1.1402  0.3840
 8035TIP3   OH245519   3.452   0.025  13.103 -0.1923 -0.0565  0.3106
 8035TIP3    H145520   3.410  -0.061  13.100 -1.5343  0.5982 -1.0670
 8035TIP3    H245521   3.478   0.036  13.195 -0.0248 -1.8937  0.5172
 8036TIP3   OH245522   0.631   5.193   5.498  0.6998 -0.7028 -0.9967
 8036TIP3    H145523   0.586   5.127   5.551 -0.8801 -0.3720 -1.8526
 8036TIP3    H245524   0.722   5.189   5.527  0.1061 -1.2580  0.9857
 8037TIP3   OH245525   2.409   4.062  16.171  0.0377  0.0806  0.0073
 8037TIP3    H145526   2.471   4.097  16.108  0.7206 -2.0937 -0.5969
 8037TIP3    H245527   2.334   4.034  16.119 -0.7777  1.1827  0.5486
 8038TIP3   OH245528   6.288   1.663   0.730 -0.0282  0.4023  0.1619
 8038TIP3    H145529   6.370   1.675   0.682  0.1540 -1.0327  0.0629
 8038TIP3    H245530   6.288   1.570   0.753 -1.1232  0.6216  1.0988
 8039TIP3   OH245531   3.067   1.537  11.547 -0.0760  0.7701  0.5126
 8039TIP3    H145532   3.122   1.600  11.500 -0.8102  0.6974 -0.4883
 8039TIP3    H245533   3.044   1.472  11.481  1.7781 -1.3452  1.8339
 8040TIP3   OH245534   4.697   0.264   5.449  0.1281  0.2893 -0.0804
 8040TIP3    H145535   4.687   0.172   5.422 -1.0030  1.1819 -3.0236
 8040TIP3    H245536   4.736   0.258   5.537  2.6821 -2.9372 -1.2029
 8041TIP3   OH245537   5.382   4.627   5.240 -0.5449 -0.3106 -0.1984
 8041TIP3    H145538   5.344   4.677   5.168  2.0503  0.1912 -1.3414
 8041TIP3    H245539   5.421   4.693   5.298 -0.0239 -0.8498  0.0801
 8042TIP3   OH245540   6.457   3.677   4.253 -0.2642 -0.2720  0.3605
 8042TIP3    H145541   6.550   3.679   4.275 -0.3647  1.5233  0.8317
 8042TIP3    H245542   6.454   3.690   4.158 -0.0035 -2.8860 -0.0871
 8043TIP3   OH245543   0.935   1.605   5.792  0.2160 -0.3976  0.2943
 8043TIP3    H145544   1.017   1.633   5.751 -0.3214  1.0459  0.1689
 8043TIP3    H245545   0.961   1.579   5.881  0.3678  3.5651  1.5739
 8044TIP3   OH245546   3.662   1.005  14.996 -0.1730 -0.1378 -0.1426
 8044TIP3    H145547   3.733   1.026  14.936 -0.2337 -0.3830 -0.3037
 8044TIP3    H245548   3.697   0.935  15.051  0.6614  1.5334  1.5688
 8045TIP3   OH245549   0.125   1.555  13.605 -0.3395 -0.0812 -0.0109
 8045TIP3    H145550   0.167   1.623  13.657  0.0469  0.0334 -0.4688
 8045TIP3    H245551   0.162   1.565  13.517  0.8644 -1.8228  0.2383
 8046TIP3   OH245552   4.415   3.547  14.274 -0.7809 -0.1069 -0.1176
 8046TIP3    H145553   4.335   3.518  14.318 -0.0674  0.5630  1.7044
 8046TIP3    H245554   4.478   3.478  14.290 -0.9815 -0.6771 -1.6354
 8047TIP3   OH245555   5.036   5.007  13.890 -0.0271 -1.2402  0.0343
 8047TIP3    H145556   4.997   4.936  13.940 -0.9718 -1.6014 -1.1808
 8047TIP3    H245557   5.089   4.964  13.823  2.3158 -0.7617  1.4602
 8048TIP3   OH245558   2.151   4.302  12.054 -0.0536  0.2643 -0.2950
 8048TIP3    H145559   2.092   4.335  12.122  0.3876 -0.8753  0.6712
 8048TIP3    H245560   2.123   4.211  12.041  1.3682 -0.2480  0.0777
 8049TIP3   OH245561   3.282   0.329   0.110 -0.0463 -0.2096  0.3381
 8049TIP3    H145562   3.371   0.364   0.123 -0.9144  1.6669  1.8713
 8049TIP3    H245563   3.253   0.304   0.198 -0.0269 -3.6458 -0.5243
 8050TIP3   OH245564   3.178   0.190  16.649 -0.4335  0.1905 -0.0558
 8050TIP3    H145565   3.175   0.284  16.664  0.3700  0.0837  0.8417
 8050TIP3    H245566   3.089   0.160  16.665 -0.9757  0.9507 -1.5011
 8051TIP3   OH245567   1.359   4.744  11.037 -0.1607  0.7617  0.0180
 8051TIP3    H145568   1.337   4.726  10.946  1.1836 -1.2059  0.0180
 8051TIP3    H245569   1.427   4.811  11.033  0.3279  0.2435 -0.4754
 8052TIP3   OH245570   6.256   1.988   1.602  0.1146  0.3844  0.0575
 8052TIP3    H145571   6.310   1.934   1.545 -0.5282 -0.3824  0.1556
 8052TIP3    H245572   6.266   2.077   1.568  0.0658 -0.0004 -0.9887
 8053TIP3   OH245573   1.861   2.346   4.884  0.1568  0.3332 -0.2291
 8053TIP3    H145574   1.923   2.311   4.949  0.5935 -0.0256 -0.8210
 8053TIP3    H245575   1.900   2.429   4.857 -0.7177  1.1534  0.9417
 8054TIP3   OH245576   0.198   3.550  16.949 -0.7179  0.4404  0.1217
 8054TIP3    H145577   0.272   3.519  16.896 -1.2293 -0.0665 -0.3173
 8054TIP3    H245578   0.184   3.640  16.920 -0.5763  0.3806 -0.1391
 8055TIP3   OH245579   5.033   5.555   4.748 -0.6886 -0.0946 -0.2518
 8055TIP3    H145580   5.060   5.636   4.704  1.4397  0.3750  1.6859
 8055TIP3    H245581   5.021   5.492   4.677  1.3307  0.9334 -1.6191
 8056TIP3   OH245582   3.634   5.307  12.539 -0.6790 -0.1096 -0.0603
 8056TIP3    H145583   3.696   5.236  12.523 -0.5697  0.1507 -0.8579
 8056TIP3    H245584   3.619   5.306  12.634 -0.1514 -0.7493  0.0204
 8057TIP3   OH245585   0.724   5.823   2.326  0.1773  0.0675  0.0490
 8057TIP3    H145586   0.809   5.863   2.309  0.7566 -1.7154 -1.6275
 8057TIP3    H245587   0.665   5.861   2.261  0.5611 -1.1622 -1.0723
 8058TIP3   OH245588   5.326   3.892   5.246  0.3056 -0.1856 -0.4888
 8058TIP3    H145589   5.233   3.911   5.250 -0.0068 -1.3107 -1.8571
 8058TIP3    H245590   5.366   3.974   5.215  0.1794  1.1996  2.5995
 8059TIP3   OH245591   5.854   0.795   3.461  0.6405 -0.5947  0.3814
 8059TIP3    H145592   5.845   0.828   3.372 -0.9435  3.2766  1.7184
 8059TIP3    H245593   5.787   0.728   3.469 -0.5461  0.3916 -0.8427
 8060TIP3   OH245594   5.830   3.162  12.529 -0.1870  0.0291 -0.0456
 8060TIP3    H145595   5.912   3.156  12.480 -0.8651 -1.0479 -1.0925
 8060TIP3    H245596   5.843   3.107  12.606 -0.1674 -0.7115 -0.5752
 8061TIP3   OH245597   4.336   2.155   2.806 -0.5569  0.2880  0.6610
 8061TIP3    H145598   4.413   2.118   2.849 -1.7257 -2.2458  0.7235
 8061TIP3    H245599   4.370   2.193   2.725  0.5486 -2.7685 -0.4405
 8062TIP3   OH245600   6.646   6.515  14.294  0.5951  0.7647 -0.5356
 8062TIP3    H145601   6.624   6.445  14.356 -0.1066  3.2673  2.2178
 8062TIP3    H245602   6.563   6.534  14.249  0.4217  0.8707 -0.1726
 8063TIP3   OH245603   2.941   2.410   2.260  0.6199  0.1018  0.3327
 8063TIP3    H145604   2.935   2.447   2.348 -0.1393 -0.3443  0.4782
 8063TIP3    H245605   2.917   2.482   2.202  0.6871  0.2752  0.5194
 8064TIP3   OH245606   2.155   0.572  10.470 -0.0040  0.6036 -0.3586
 8064TIP3    H145607   2.250   0.582  10.479 -0.0920  1.1181  0.0750
 8064TIP3    H245608   2.119   0.632  10.535 -0.6187 -0.9372  0.7755
 8065TIP3   OH245609   3.134   6.602   2.684 -0.0536 -0.1530  0.0030
 8065TIP3    H145610   3.094   6.567   2.764 -0.1382 -2.3338 -0.9219
 8065TIP3    H245611   3.107   6.694   2.682 -1.0892 -0.3612  1.8135
 8066TIP3   OH245612   1.474   2.107  10.368 -0.6811 -0.2644  0.4641
 8066TIP3    H145613   1.557   2.069  10.340 -0.6467 -1.2778  1.8457
 8066TIP3    H245614   1.498   2.184  10.420 -0.4686 -1.5599  2.3911
 8067TIP3   OH245615   2.839   3.378   4.746 -0.1006  0.4169 -0.1883
 8067TIP3    H145616   2.890   3.405   4.822  0.1434  1.3138 -0.6584
 8067TIP3    H245617   2.821   3.460   4.699  1.6094 -0.2922 -2.2545
 8068TIP3   OH245618   1.404   5.135  17.097 -0.4069  0.0547 -0.5672
 8068TIP3    H145619   1.351   5.214  17.097  0.4405  0.6803  0.8481
 8068TIP3    H245620   1.463   5.145  17.023 -0.2284  0.8273 -0.3325
 8069TIP3   OH245621   3.599   4.863  16.511 -0.1406  0.2912 -0.2152
 8069TIP3    H145622   3.628   4.850  16.601 -1.7402  0.2965  0.3401
 8069TIP3    H245623   3.669   4.913  16.470  0.1330  1.2681  1.3489
 8070TIP3   OH245624   0.318   3.946  10.543 -0.4110  0.2568 -0.5988
 8070TIP3    H145625   0.254   3.913  10.480 -0.8761 -2.3048  1.0748
 8070TIP3    H245626   0.265   3.984  10.614 -0.1877 -1.7377  0.7208
 8071TIP3   OH245627   2.050   3.595   6.370  0.4049 -0.5194 -0.0803
 8071TIP3    H145628   2.095   3.678   6.354  0.3259 -0.6099 -0.7772
 8071TIP3    H245629   1.976   3.619   6.426  0.1390 -0.0503 -0.6198
 8072TIP3   OH245630   4.493   0.084  11.637 -0.3129 -0.1642  0.5145
 8072TIP3    H145631   4.410   0.131  11.631 -1.0238 -1.3995  0.2460
 8072TIP3    H245632   4.529   0.089  11.549 -0.3091  0.0047  0.5248
 8073TIP3   OH245633   5.427   6.692  15.219 -0.0492 -1.0455 -0.0487
 8073TIP3    H145634   5.360   6.647  15.271 -1.6294 -0.8063 -1.7822
 8073TIP3    H245635   5.440   6.636  15.143 -0.2463  0.1826 -1.0252
 8074TIP3   OH245636   4.000   0.882  14.199 -0.4467  0.3681  0.3939
 8074TIP3    H145637   3.970   0.793  14.217 -0.2562  0.4550  1.1697
 8074TIP3    H245638   3.968   0.934  14.273  1.3080  0.5256  1.0829
 8075TIP3   OH245639   2.529   6.026  12.171 -0.3228 -0.1946  0.4965
 8075TIP3    H145640   2.437   6.004  12.157 -0.6390  0.6279  1.1477
 8075TIP3    H245641   2.526   6.103  12.228  0.7509  0.3197 -0.1175
 8076TIP3   OH245642   1.303   3.240  16.777  0.2663  0.6681 -0.8146
 8076TIP3    H145643   1.358   3.242  16.698 -0.7122 -0.5603 -1.5604
 8076TIP3    H245644   1.227   3.293  16.755 -0.7172 -0.8705 -1.2877
 8077TIP3   OH245645   3.593   3.751   0.075 -0.2859 -0.8333 -0.1012
 8077TIP3    H145646   3.611   3.845   0.080 -0.8686 -0.7759  1.3566
 8077TIP3    H245647   3.601   3.731  -0.019  1.1588  0.3857 -0.2891
 8078TIP3   OH245648   6.114   2.035  12.644 -0.0959 -1.2421 -0.2211
 8078TIP3    H145649   6.197   2.071  12.613 -0.5901  0.6770  0.5555
 8078TIP3    H245650   6.118   2.043  12.739 -1.5398 -0.1797 -0.2149
 8079TIP3   OH245651   5.774   5.897  10.868  0.1352  0.1283 -0.1054
 8079TIP3    H145652   5.725   5.937  10.796 -2.7197 -1.5310  0.7381
 8079TIP3    H245653   5.811   5.817  10.830 -1.1649 -0.6209  0.1494
 8080TIP3   OH245654   4.273   2.377   3.257 -0.0284 -0.0860  0.2782
 8080TIP3    H145655   4.323   2.442   3.307 -0.8033  1.0181 -0.3250
 8080TIP3    H245656   4.277   2.297   3.309  1.0645  0.4118  0.9810
 8081TIP3   OH245657   0.274   6.370  12.560 -0.2267 -0.0572  0.0961
 8081TIP3    H145658   0.212   6.296  12.554 -0.4246  0.1948 -1.7793
 8081TIP3    H245659   0.336   6.354  12.488  1.7262 -0.1083  1.7067
 8082TIP3   OH245660   2.733   5.531   0.070 -0.5077  0.1179  0.4140
 8082TIP3    H145661   2.678   5.483   0.131  1.2936 -0.6732  1.4950
 8082TIP3    H245662   2.737   5.620   0.105  0.2377 -0.2470  1.2900
 8083TIP3   OH245663   1.500   2.234  14.416 -0.3490 -0.2165  0.2307
 8083TIP3    H145664   1.454   2.150  14.424 -1.3227  0.1661 -1.0484
 8083TIP3    H245665   1.459   2.277  14.341  1.0742  0.8261  0.0137
 8084TIP3   OH245666   4.510   0.149  13.731 -0.0800 -0.6913 -0.0842
 8084TIP3    H145667   4.446   0.207  13.689 -0.0076 -0.4053  0.1945
 8084TIP3    H245668   4.462   0.106  13.801  0.3690  0.6291  1.0947
 8085TIP3   OH245669   3.321   6.540   1.536  0.2349  0.0129 -0.0963
 8085TIP3    H145670   3.355   6.513   1.451  2.4743  1.4358  0.2732
 8085TIP3    H245671   3.291   6.630   1.523  0.7536  0.3047  0.6340
 8086TIP3   OH245672   5.645   5.711   5.664  0.1163 -0.1284 -0.2443
 8086TIP3    H145673   5.715   5.676   5.719  0.1285 -1.7944 -1.2324
 8086TIP3    H245674   5.568   5.658   5.686 -0.6543  1.1451  0.2519
 8087TIP3   OH245675   3.325   3.854   2.625 -0.7728 -0.0226 -0.4169
 8087TIP3    H145676   3.395   3.918   2.637 -0.2723 -0.7117  0.3503
 8087TIP3    H245677   3.260   3.877   2.692 -0.2912 -0.7144  0.3016
 8088TIP3   OH245678   0.629   3.222  12.527 -0.8548  1.1651  0.3211
 8088TIP3    H145679   0.584   3.203  12.444 -0.5165 -0.3237  0.4498
 8088TIP3    H245680   0.566   3.195  12.595 -0.1098 -0.1713  0.5089
 8089TIP3   OH245681   6.650   2.080   5.067  0.4061 -0.1986  0.0192
 8089TIP3    H145682   6.707   2.157   5.076  0.1983  0.0365 -0.6262
 8089TIP3    H245683   6.710   2.006   5.074  0.4176 -0.0632  2.2672
 8090TIP3   OH245684   5.294   4.800   5.762  0.0783  0.0791 -0.2494
 8090TIP3    H145685   5.372   4.781   5.710  1.0941  0.6366  1.0460
 8090TIP3    H245686   5.221   4.788   5.700  1.0665 -1.7246 -1.1439
 8091TIP3   OH245687   0.646   6.702   3.377 -0.4751  0.0291  0.0573
 8091TIP3    H145688   0.699   6.625   3.395 -0.3590  0.6227  2.6561
 8091TIP3    H245689   0.680   6.737   3.295  1.2986 -1.1315  0.2572
 8092TIP3   OH245690   2.840   1.037  13.443  0.2429 -0.1320  0.2060
 8092TIP3    H145691   2.865   1.010  13.532 -0.4032 -0.9532  0.1554
 8092TIP3    H245692   2.756   1.083  13.455  0.5364  0.4389  0.1027
 8093TIP3   OH245693   0.072   0.669  12.654  0.1529  0.2244 -0.2476
 8093TIP3    H145694   0.066   0.723  12.575 -0.3479 -0.4285 -0.6622
 8093TIP3    H245695   0.157   0.692  12.692  0.9931 -0.3777 -1.6672
 8094TIP3   OH245696   3.747   0.653   0.724  0.6433  0.2656 -1.0096
 8094TIP3    H145697   3.788   0.739   0.732 -0.2842  1.0039 -3.3175
 8094TIP3    H245698   3.663   0.663   0.769  1.7836 -0.4622  1.4528
 8095TIP3   OH245699   3.417   2.870  13.094  0.0900 -0.4252  0.0621
 8095TIP3    H145700   3.355   2.933  13.130  1.6279  0.4472  1.3643
 8095TIP3    H245701   3.481   2.924  13.047  0.2808 -1.2116 -0.5981
 8096TIP3   OH245702   0.910   3.190   1.193 -0.8423  0.5282  0.4091
 8096TIP3    H145703   0.878   3.153   1.111 -0.4825 -1.6259  1.1764
 8096TIP3    H245704   0.840   3.173   1.256  0.5195 -1.6117  1.4441
 8097TIP3   OH245705   6.138   6.021  12.676 -0.7527  0.0880 -0.1372
 8097TIP3    H145706   6.198   6.067  12.735 -0.5665  2.7219 -2.2409
 8097TIP3    H245707   6.172   5.931  12.674  2.5579  1.2045 -0.3985
 8098TIP3   OH245708   3.558   0.211   3.823 -0.0467 -0.1960 -0.4792
 8098TIP3    H145709   3.616   0.258   3.764 -0.3507  1.4932  0.5007
 8098TIP3    H245710   3.491   0.275   3.848 -1.2882 -1.5650 -0.1719
 8099TIP3   OH245711   6.750   6.264  11.698 -0.1376 -0.2160 -0.1381
 8099TIP3    H145712   6.822   6.268  11.635 -0.6475 -0.1565 -0.7201
 8099TIP3    H245713   6.685   6.325  11.665 -0.5081 -0.3489  0.3299
 8100TIP3   OH245714   0.532   5.009   2.789  0.7061  0.2694 -0.4455
 8100TIP3    H145715   0.501   4.955   2.862 -1.7868  1.1848 -0.7011
 8100TIP3    H245716   0.619   5.037   2.814  1.3983 -2.4274  0.4710
 8101TIP3   OH245717   1.329   5.392  15.711  0.3001  0.3866  0.1176
 8101TIP3    H145718   1.320   5.473  15.660  0.7277  0.9599  0.9337
 8101TIP3    H245719   1.240   5.361  15.723  0.1722  0.3816 -0.7492
 8102TIP3   OH245720   1.509   0.435  15.710  0.1943 -0.3051 -0.6827
 8102TIP3    H145721   1.424   0.449  15.668  0.7051  2.2932 -1.0579
 8102TIP3    H245722   1.514   0.341  15.725 -3.3331 -0.4107  0.6616
 8103TIP3   OH245723   1.916   3.722   1.860 -0.2093  0.1875 -0.1222
 8103TIP3    H145724   1.865   3.769   1.794 -0.1113 -0.2637 -0.5233
 8103TIP3    H245725   1.980   3.672   1.810  1.0522  1.2088  0.3925
 8104TIP3   OH245726   4.522   3.610   6.489 -0.5183 -0.3412  0.5148
 8104TIP3    H145727   4.599   3.595   6.435 -0.6584  2.0028 -0.4613
 8104TIP3    H245728   4.556   3.619   6.578  0.5124  1.6075 -0.0273
 8105TIP3   OH245729   0.769   3.464  13.084  0.1754  0.1657 -0.5846
 8105TIP3    H145730   0.734   3.548  13.113  2.3241  1.0431 -0.3069
 8105TIP3    H245731   0.802   3.481  12.996  0.1381 -0.5480 -0.7453
 8106TIP3   OH245732   3.731   1.754  16.268  0.5316 -0.2715 -0.3233
 8106TIP3    H145733   3.741   1.674  16.216 -0.3770  0.5328 -1.8180
 8106TIP3    H245734   3.639   1.753  16.296 -0.0235  1.0497 -1.8771
 8107TIP3   OH245735   4.606   0.122  13.072  0.8829  0.3363 -0.0894
 8107TIP3    H145736   4.512   0.125  13.058  0.7149  1.5818  1.1045
 8107TIP3    H245737   4.644   0.150  12.989  0.1752  0.7205 -0.2907
 8108TIP3   OH245738   6.057   3.838   0.323 -0.0655 -0.1607  0.6110
 8108TIP3    H145739   5.969   3.830   0.286  0.4262  2.5171 -1.4901
 8108TIP3    H245740   6.070   3.932   0.333  2.8453 -0.4036 -0.0009
 8109TIP3   OH245741   0.550   5.055  17.062 -0.3432 -0.6466  0.1864
 8109TIP3    H145742   0.583   5.051  16.972 -0.9833 -0.2197 -0.0769
 8109TIP3    H245743   0.535   5.148  17.078 -1.6166 -0.8384  0.2051
 8110TIP3   OH245744   4.289   2.730   0.086 -0.2542  0.4198  0.7805
 8110TIP3    H145745   4.273   2.669   0.014  0.0394  1.8907 -0.5987
 8110TIP3    H245746   4.208   2.782   0.092 -0.0261  0.7504  1.0476
 8111TIP3   OH245747   5.962   6.625   4.747  0.3435  0.0045  0.0113
 8111TIP3    H145748   6.044   6.674   4.735 -0.0066  0.9344  1.3060
 8111TIP3    H245749   5.906   6.683   4.797 -1.0696 -0.7021 -0.6930
 8112TIP3   OH245750   1.326   4.876  12.090  0.1855 -0.3017  0.1977
 8112TIP3    H145751   1.311   4.827  12.009  0.4621 -1.6085  0.8915
 8112TIP3    H245752   1.240   4.910  12.114  0.0837  0.0039 -0.5828
 8113TIP3   OH245753   2.109   3.177  13.238 -0.3352 -0.0526 -0.9071
 8113TIP3    H145754   2.028   3.155  13.194 -0.1893  1.2368 -1.8708
 8113TIP3    H245755   2.123   3.106  13.300 -3.0506  0.4871  0.4755
 8114TIP3   OH245756   6.770   1.003  16.295  0.3107  0.4062  0.2874
 8114TIP3    H145757   6.771   1.042  16.207 -0.5360 -0.0279  0.0743
 8114TIP3    H245758   6.679   0.981  16.310  0.8928 -2.7695 -0.1816
 8115TIP3   OH245759   4.382   5.018   0.625 -0.1109 -0.1349  0.1910
 8115TIP3    H145760   4.413   5.006   0.715 -0.1892  0.0067  0.2368
 8115TIP3    H245761   4.461   5.035   0.574 -0.2596  1.9326  0.5837
 8116TIP3   OH245762   4.803   3.450   1.425 -0.0824 -0.5036 -0.6832
 8116TIP3    H145763   4.855   3.438   1.346 -0.3955  0.9869 -1.1484
 8116TIP3    H245764   4.851   3.402   1.493  0.1496 -1.8728 -1.7622
 8117TIP3   OH245765   5.870   4.189   1.767 -0.3678 -0.0040 -0.6038
 8117TIP3    H145766   5.947   4.227   1.809 -0.8932 -0.0537  0.4443
 8117TIP3    H245767   5.828   4.138   1.836 -1.1690 -0.2331 -1.2464
 8118TIP3   OH245768   3.342   3.496  13.496 -0.0867  0.0061 -0.0950
 8118TIP3    H145769   3.379   3.421  13.544  1.1902  0.4796 -0.2924
 8118TIP3    H245770   3.415   3.557  13.487 -0.4538  0.2379 -2.0332
 8119TIP3   OH245771   5.224   2.440   4.744  0.0578  0.0019 -0.4427
 8119TIP3    H145772   5.163   2.512   4.755 -0.9121 -0.4533 -2.4293
 8119TIP3    H245773   5.173   2.361   4.763 -0.2725 -0.4320 -2.8449
 8120TIP3   OH245774   1.095   4.835  14.130  0.1625 -0.0825  0.5961
 8120TIP3    H145775   1.126   4.909  14.181  1.0471 -0.0350  0.0139
 8120TIP3    H245776   1.119   4.758  14.183  0.6292 -0.0126  0.4939
 8121TIP3   OH245777   0.672   1.995  13.609 -0.7436 -0.2771  0.0777
 8121TIP3    H145778   0.746   2.013  13.667 -0.3885 -2.3194  0.3337
 8121TIP3    H245779   0.623   2.077  13.606  1.1444  0.9311  0.4547
 8122TIP3   OH245780   3.085   3.432   4.473  0.6103 -0.3351  0.4477
 8122TIP3    H145781   3.030   3.497   4.516 -0.3423 -0.0828 -1.0959
 8122TIP3    H245782   3.107   3.471   4.388  1.2638 -1.4042  0.1091
 8123TIP3   OH245783   3.979   3.193   3.554 -0.1258  0.7494  0.3607
 8123TIP3    H145784   4.040   3.264   3.535 -0.5172  1.4588  1.6095
 8123TIP3    H245785   3.969   3.195   3.649 -3.3371  1.7468  0.1195
 8124TIP3   OH245786   6.146   6.060   5.123 -0.1775  0.0422  0.2864
 8124TIP3    H145787   6.143   5.998   5.050  1.2726  1.3496 -0.9531
 8124TIP3    H245788   6.188   6.011   5.193  2.2233 -0.0394 -1.1022
 8125TIP3   OH245789   2.842   2.381  13.186 -0.1742  0.1207  0.1225
 8125TIP3    H145790   2.871   2.423  13.105 -1.8079  0.0748 -0.5177
 8125TIP3    H245791   2.827   2.453  13.247  1.9167  0.1100  0.7309
 8126TIP3   OH245792   5.083   3.746   4.995  0.2188  0.6266 -0.4543
 8126TIP3    H145793   4.990   3.763   5.011  0.3156  0.0965  0.8527
 8126TIP3    H245794   5.121   3.833   4.981 -0.4096  0.8791 -0.6471
 8127TIP3   OH245795   2.685   4.502   0.185  0.1439 -0.0849 -0.3743
 8127TIP3    H145796   2.629   4.498   0.108  1.7725 -1.4367 -1.5523
 8127TIP3    H245797   2.760   4.445   0.164  0.0424 -1.5430  2.7012
 8128TIP3   OH245798   6.379   1.056   2.221  0.1147  0.3093  0.2737
 8128TIP3    H145799   6.332   1.023   2.298 -0.3773  2.6856  1.0849
 8128TIP3    H245800   6.345   1.004   2.148 -0.5836 -0.9472  1.4457
 8129TIP3   OH245801   6.276   2.177   3.457  0.2312 -0.1350  0.1693
 8129TIP3    H145802   6.246   2.219   3.376  0.5719  0.9338  0.5753
 8129TIP3    H245803   6.314   2.249   3.508  2.8719 -1.2762 -0.0234
 8130TIP3   OH245804   6.391   1.267  11.987 -0.0396  0.2077 -0.2182
 8130TIP3    H145805   6.352   1.299  12.068  1.1968 -0.2662  0.5895
 8130TIP3    H245806   6.484   1.290  11.994  0.0217  0.5604 -1.7141
 8131TIP3   OH245807   6.725   3.183  15.889  0.4635 -0.0425 -0.4166
 8131TIP3    H145808   6.682   3.118  15.945 -1.7479  0.9455 -0.8648
 8131TIP3    H245809   6.694   3.163  15.801  2.2670 -0.2833 -1.0358
 8132TIP3   OH245810   5.833   5.505   0.545 -0.0203  0.2853 -0.0898
 8132TIP3    H145811   5.835   5.560   0.623  0.2761  1.2314 -0.7528
 8132TIP3    H245812   5.755   5.450   0.556 -1.0524  1.7163  0.0033
 8133TIP3   OH245813   5.885   4.055  15.093  0.7313 -0.1429 -0.3514
 8133TIP3    H145814   5.907   3.991  15.160 -0.3749 -0.7447 -0.5357
 8133TIP3    H245815   5.950   4.042  15.024  0.1922 -1.4714 -0.6351
 8134TIP3   OH245816   6.328   4.236  16.612 -0.2767 -0.0509 -0.0848
 8134TIP3    H145817   6.318   4.213  16.704  0.3021 -0.8662 -0.2101
 8134TIP3    H245818   6.421   4.255  16.601 -0.4699  0.7600 -0.3467
 8135TIP3   OH245819   4.717   3.406   1.743 -0.0500 -0.3854  0.3753
 8135TIP3    H145820   4.808   3.415   1.714 -0.2797 -0.7280 -0.4839
 8135TIP3    H245821   4.710   3.465   1.819  0.9043 -0.4179  0.5021
 8136TIP3   OH245822   2.295   1.847  14.568 -0.7313 -0.1466 -0.4783
 8136TIP3    H145823   2.291   1.920  14.629 -0.0682 -1.0460  0.6819
 8136TIP3    H245824   2.265   1.883  14.484 -0.3347  1.4533  0.0504
 8137TIP3   OH245825   5.119   4.113  13.651  0.1738 -0.0230  0.1617
 8137TIP3    H145826   5.065   4.066  13.714 -0.2476 -3.1679 -2.2563
 8137TIP3    H245827   5.191   4.053  13.632  0.9352  1.2980 -1.4260
 8138TIP3   OH245828   1.592   1.421  13.202  0.0725 -0.5649 -0.2055
 8138TIP3    H145829   1.536   1.344  13.184 -2.6866  1.1494  0.3996
 8138TIP3    H245830   1.642   1.396  13.279 -1.3852 -1.5082  0.4935
 8139TIP3   OH245831   5.966   2.102   4.651 -0.2888  0.3765 -0.0043
 8139TIP3    H145832   6.028   2.055   4.595  0.8666 -0.2060  1.6763
 8139TIP3    H245833   5.887   2.110   4.598  0.4856 -0.8475 -1.4221
 8140TIP3   OH245834   2.812   2.441  16.444  0.8960 -0.3775  0.2819
 8140TIP3    H145835   2.800   2.503  16.515  2.8261 -0.4726  0.7503
 8140TIP3    H245836   2.726   2.399  16.434 -0.9229  3.2148 -0.9807
 8141TIP3   OH245837   5.420   5.496   3.512  0.3685  0.2279  0.1889
 8141TIP3    H145838   5.416   5.433   3.584  0.1004 -0.4753 -0.4313
 8141TIP3    H245839   5.339   5.482   3.463  2.2322 -2.1299 -2.5540
 8142TIP3   OH245840   4.315   1.315  12.519  0.5571 -1.1697 -0.6231
 8142TIP3    H145841   4.247   1.375  12.490 -0.2119 -1.5031  0.4467
 8142TIP3    H245842   4.323   1.330  12.613  2.8657 -0.2455 -0.8976
 8143TIP3   OH245843   2.838   3.569  15.645 -0.0162 -0.5327 -0.3787
 8143TIP3    H145844   2.887   3.505  15.594  2.7286  1.9857 -1.1585
 8143TIP3    H245845   2.765   3.594  15.589 -0.4913 -2.0652 -0.5093
 8144TIP3   OH245846   2.905   6.310  11.791  0.2816  0.6111 -0.2983
 8144TIP3    H145847   2.820   6.286  11.829  0.9959  1.9306  2.4143
 8144TIP3    H245848   2.915   6.403  11.812  1.3545  1.1284 -2.7812
 8145TIP3   OH245849   2.786   3.512  16.550 -0.2339 -0.5761  0.3619
 8145TIP3    H145850   2.750   3.468  16.627  2.0187 -0.1597  1.7623
 8145TIP3    H245851   2.828   3.442  16.501 -0.3368 -0.6157  0.3296
 8146TIP3   OH245852   6.679   1.508  17.088 -0.0095 -0.5848 -0.3053
 8146TIP3    H145853   6.717   1.526  17.002  2.1953  1.9382  1.0552
 8146TIP3    H245854   6.671   1.413  17.091  3.6806 -1.1092 -1.8367
 8147TIP3   OH245855   3.318   3.589  12.110  0.3161 -0.0376  0.4559
 8147TIP3    H145856   3.297   3.508  12.063 -1.1506  0.6582 -0.1517
 8147TIP3    H245857   3.268   3.657  12.064  0.3353  0.9796  1.8752
 8148TIP3   OH245858   0.272   0.127  15.162 -0.2662  0.0894 -0.0405
 8148TIP3    H145859   0.317   0.207  15.189  2.3102 -1.0985 -0.5335
 8148TIP3    H245860   0.241   0.146  15.073 -0.2822  0.7404  0.0949
 8149TIP3   OH245861   1.434   2.760  13.319  0.1932  0.0412 -0.2013
 8149TIP3    H145862   1.356   2.790  13.273  0.4812  2.0053  0.4865
 8149TIP3    H245863   1.419   2.786  13.410  0.1550 -2.6741  0.6357
 8150TIP3   OH245864   1.171   5.387   4.554 -0.4981 -0.4417  0.5420
 8150TIP3    H145865   1.261   5.354   4.560  0.4380  0.9331 -3.1967
 8150TIP3    H245866   1.143   5.396   4.645  3.7099  0.5268  1.9775
 8151TIP3   OH245867   1.531   1.440  16.979 -0.5588 -0.1360  0.3150
 8151TIP3    H145868   1.508   1.394  16.898 -1.1914  0.9404 -0.1358
 8151TIP3    H245869   1.626   1.440  16.981 -0.5371 -0.0862 -0.4851
 8152TIP3   OH245870   6.104   0.220   5.516  0.0168 -0.0761 -0.4100
 8152TIP3    H145871   6.178   0.207   5.457  0.8621  2.6383 -0.1063
 8152TIP3    H245872   6.080   0.312   5.503 -1.6105 -0.1938  1.4237
 8153TIP3   OH245873   6.103   4.572  13.574 -0.1314  0.2098  0.3794
 8153TIP3    H145874   6.139   4.554  13.487  1.3168 -1.4623  1.2625
 8153TIP3    H245875   6.105   4.667  13.581  1.3362  0.3009 -0.7813
 8154TIP3   OH245876   3.464   3.814   1.709 -0.0890  0.4791 -0.2158
 8154TIP3    H145877   3.522   3.880   1.746 -0.1156  0.5440 -0.2906
 8154TIP3    H245878   3.377   3.838   1.740 -0.4580  1.8679 -2.1656
 8155TIP3   OH245879   2.399   1.876   1.146 -0.1781  0.0785  0.2781
 8155TIP3    H145880   2.387   1.871   1.052  0.4811  2.6235 -0.0232
 8155TIP3    H245881   2.360   1.796   1.180 -2.8464  0.3174 -1.9203
 8156TIP3   OH245882   5.714   6.075   3.441  0.5599 -0.0655 -0.2224
 8156TIP3    H145883   5.739   6.062   3.532 -0.9937  0.2363  0.2653
 8156TIP3    H245884   5.737   5.992   3.398 -1.6227 -1.4936  1.1473
 8157TIP3   OH245885   2.846   1.555  17.185  0.5752 -0.1517  0.2750
 8157TIP3    H145886   2.930   1.572  17.142  1.1662 -2.3094  0.4322
 8157TIP3    H245887   2.869   1.522  17.272 -0.4632 -0.2587  0.5301
 8158TIP3   OH245888   4.897   0.627  15.273 -0.5965  0.1744  0.1775
 8158TIP3    H145889   4.871   0.640  15.364 -1.0427 -0.1681  0.0998
 8158TIP3    H245890   4.982   0.670  15.266 -0.5645  0.2082  0.7548
 8159TIP3   OH245891   3.936   0.663   6.357 -0.0364  0.3251 -0.3765
 8159TIP3    H145892   3.992   0.715   6.415  1.0287 -2.1299  0.9658
 8159TIP3    H245893   3.857   0.646   6.408  0.0017 -0.1047 -0.4566
 8160TIP3   OH245894   2.277   5.097  10.710  0.2260 -0.2016 -0.4006
 8160TIP3    H145895   2.274   5.134  10.622  1.3508  1.5318  0.2424
 8160TIP3    H245896   2.365   5.119  10.742 -0.4629 -0.0054  1.4740
 8161TIP3   OH245897   5.411   1.472  16.182  0.5843 -0.1369 -0.5099
 8161TIP3    H145898   5.503   1.447  16.195  0.7177 -1.0246 -2.7795
 8161TIP3    H245899   5.405   1.560  16.219  1.8859 -0.7299  1.2571
 8162TIP3   OH245900   3.143   4.639  15.640 -0.1729  0.3448  0.0086
 8162TIP3    H145901   3.055   4.669  15.663  0.1234  0.0908  1.5624
 8162TIP3    H245902   3.199   4.715  15.654  0.1088  0.0018  0.7587
 8163TIP3   OH245903   3.505   2.489   6.342  0.5784 -0.2806  0.1018
 8163TIP3    H145904   3.486   2.583   6.342 -1.1805 -0.5872  0.5109
 8163TIP3    H245905   3.419   2.448   6.330  1.3338 -1.8414 -0.2095
 8164TIP3   OH245906   4.429   2.392   3.668  0.4884  0.1658  0.6498
 8164TIP3    H145907   4.510   2.443   3.677 -0.0465  1.1477  0.1293
 8164TIP3    H245908   4.419   2.379   3.574  0.0242  0.0808  0.7097
 8165TIP3   OH245909   1.773   5.252  13.923  0.3179 -0.4915  0.7219
 8165TIP3    H145910   1.869   5.250  13.927  0.3326  0.7461  2.4362
 8165TIP3    H245911   1.748   5.171  13.878  2.1470 -0.9516  0.4649
 8166TIP3   OH245912   0.038   3.876   2.016 -0.5348  0.3590  0.0178
 8166TIP3    H145913  -0.052   3.865   1.986 -0.0784 -0.3087 -1.1812
 8166TIP3    H245914   0.078   3.934   1.952 -0.1360  0.7834  0.6320
 8167TIP3   OH245915   4.582   4.168   6.540  0.6547  0.1008 -0.3040
 8167TIP3    H145916   4.532   4.240   6.578 -0.9544 -0.6977 -0.8133
 8167TIP3    H245917   4.664   4.208   6.511  1.2837  1.0482  2.4853
 8168TIP3   OH245918   1.530   1.229  10.945  0.1196  0.2473 -0.3683
 8168TIP3    H145919   1.465   1.186  10.889 -1.0645  2.9640 -1.2821
 8168TIP3    H245920   1.547   1.166  11.015 -2.8402 -0.9758 -0.5891
 8169TIP3   OH245921   6.691   4.897  15.433 -0.0837  0.3845 -0.2360
 8169TIP3    H145922   6.732   4.944  15.360  1.2046  0.5884  0.5934
 8169TIP3    H245923   6.688   4.806  15.403 -0.4766  0.6091 -0.9219
 8170TIP3   OH245924   6.263   0.622  14.453 -0.1929  0.0840  0.0552
 8170TIP3    H145925   6.263   0.571  14.534  0.8003  0.8429  0.5600
 8170TIP3    H245926   6.224   0.706  14.477 -0.9164 -0.0724 -0.5314
 8171TIP3   OH245927   1.747   5.559   3.884 -0.4349  0.4399  0.0353
 8171TIP3    H145928   1.795   5.626   3.835 -0.5541  0.3048 -0.2639
 8171TIP3    H245929   1.806   5.484   3.886  0.3226  1.0164  1.6194
 8172TIP3   OH245930   1.515   6.363  14.739 -0.6862  1.0421  0.5650
 8172TIP3    H145931   1.591   6.382  14.793  0.5135 -0.8739 -0.3533
 8172TIP3    H245932   1.546   6.301  14.674 -2.4939  1.9160 -1.2638
 8173TIP3   OH245933   5.634   4.997   0.929 -0.2889  0.3089 -0.3220
 8173TIP3    H145934   5.590   4.995   0.844  0.4896 -0.2792 -0.7283
 8173TIP3    H245935   5.562   4.998   0.993 -0.8872  0.2709 -0.9763
 8174TIP3   OH245936   2.797   0.726   4.907  0.1654  0.1464 -0.4985
 8174TIP3    H145937   2.742   0.791   4.863 -0.3044  0.1288  0.0389
 8174TIP3    H245938   2.881   0.770   4.920 -0.1730  0.6831 -0.0667
 8175TIP3   OH245939   0.774   3.199  13.101 -0.1078 -0.2578  0.3473
 8175TIP3    H145940   0.703   3.156  13.055 -1.1820  1.5310  0.2454
 8175TIP3    H245941   0.750   3.292  13.101  1.6704  0.2458  1.3041
 8176TIP3   OH245942   5.081   2.383  11.665 -0.3519 -0.0701 -0.1603
 8176TIP3    H145943   5.063   2.460  11.720 -0.7738 -0.8231  0.7767
 8176TIP3    H245944   5.150   2.412  11.606  0.7786  0.5135  1.3700
 8177TIP3   OH245945   3.429   2.285   4.362  0.4890 -0.2249 -0.1521
 8177TIP3    H145946   3.353   2.312   4.310 -0.0053 -1.8889 -0.3461
 8177TIP3    H245947   3.495   2.352   4.344 -0.5200  0.6070 -0.9187
 8178TIP3   OH245948   1.115   5.910  14.515 -0.2482  0.4198  0.4146
 8178TIP3    H145949   1.131   6.001  14.490 -1.1941  0.3857 -0.3898
 8178TIP3    H245950   1.066   5.873  14.441  1.6287 -1.2481 -0.0865
 8179TIP3   OH245951   5.897   3.022   0.309 -0.2807  0.1437 -0.5983
 8179TIP3    H145952   5.853   2.982   0.235 -0.3463 -1.8640  0.4607
 8179TIP3    H245953   5.885   2.960   0.381  2.3886  0.5525  0.3074
 8180TIP3   OH245954   5.561   4.032  13.040  0.2724  0.0894 -0.7561
 8180TIP3    H145955   5.590   3.942  13.054 -0.1113 -0.2944 -2.3033
 8180TIP3    H245956   5.613   4.083  13.102 -0.9425 -1.3852  1.6022
 8181TIP3   OH245957   5.966   5.665  13.606  0.4840 -0.2838  0.4415
 8181TIP3    H145958   5.920   5.606  13.545  0.2008  0.0293  0.3529
 8181TIP3    H245959   6.057   5.660  13.578  0.1752  0.8785 -0.8662
 8182TIP3   OH245960   1.681   1.125   5.062  0.0177 -0.1930  0.2051
 8182TIP3    H145961   1.638   1.039   5.057 -3.6905  1.5242 -0.4584
 8182TIP3    H245962   1.687   1.142   5.156 -1.6905 -0.1294  0.3343
 8183TIP3   OH245963   6.246   4.350  12.905 -0.2009  0.2952 -0.3146
 8183TIP3    H145964   6.216   4.384  12.821  1.8426 -0.8177 -1.5869
 8183TIP3    H245965   6.339   4.372  12.908  0.0860 -0.9204  1.0331
 8184TIP3   OH245966   1.429   2.664   2.829 -0.1114  0.0648 -0.7351
 8184TIP3    H145967   1.334   2.657   2.830 -0.0232 -2.1807  2.0416
 8184TIP3    H245968   1.458   2.591   2.774  0.0141 -0.2577 -0.2505
 8185TIP3   OH245969   1.678   2.127  12.263  0.3179 -0.1132  0.2340
 8185TIP3    H145970   1.702   2.214  12.294 -0.5197  1.0971 -2.2219
 8185TIP3    H245971   1.752   2.072  12.285  1.5499  1.5896  0.5009
 8186TIP3   OH245972   3.027   4.440  14.268 -0.2089  0.6404 -0.7808
 8186TIP3    H145973   3.072   4.394  14.198  1.5710 -2.3164  2.0437
 8186TIP3    H245974   2.947   4.390  14.283 -0.1454  0.7052 -0.1620
 8187TIP3   OH245975   2.850   5.454  15.922  0.1791  0.7937  0.8726
 8187TIP3    H145976   2.824   5.543  15.899 -0.7875  0.1382 -0.7746
 8187TIP3    H245977   2.924   5.435  15.865 -1.4458 -0.4096 -0.9947
 8188TIP3   OH245978   1.859   0.932  11.080 -0.0415  0.0221 -0.1250
 8188TIP3    H145979   1.797   0.879  11.030  0.6626 -1.3288  0.3800
 8188TIP3    H245980   1.929   0.871  11.104  0.8890  1.2242  0.3474
 8189TIP3   OH245981   5.340   2.816   5.465  0.0791 -0.1171  0.3491
 8189TIP3    H145982   5.342   2.903   5.503 -0.4682 -0.3768  0.9923
 8189TIP3    H245983   5.358   2.756   5.538  1.3245 -0.5141 -0.2474
 8190TIP3   OH245984   1.983   3.901  13.250 -0.6927  0.7943 -1.0248
 8190TIP3    H145985   1.937   3.818  13.267 -0.1448  0.7036  0.1462
 8190TIP3    H245986   1.914   3.967  13.251 -1.1041  0.3912 -1.7247
 8191TIP3   OH245987   6.168   6.746   0.770  0.7339  0.2524 -0.0531
 8191TIP3    H145988   6.154   6.790   0.686 -1.5259 -1.4090 -0.6582
 8191TIP3    H245989   6.084   6.704   0.789  2.4205 -3.1181  0.8049
 8192TIP3   OH245990   0.970   5.285  14.541 -0.4404  0.4325 -0.4254
 8192TIP3    H145991   1.008   5.307  14.456  0.3392  1.7348  0.2303
 8192TIP3    H245992   1.045   5.266  14.597 -0.9335 -0.2059  0.0326
 8193TIP3   OH245993   2.858   3.944   4.593 -0.0552 -0.3549 -0.5185
 8193TIP3    H145994   2.884   3.928   4.503  1.3658 -1.6865  0.0856
 8193TIP3    H245995   2.916   4.014   4.623  1.7171 -2.1027  0.2895
 8194TIP3   OH245996   4.370   0.873   2.765  0.2828 -0.6016 -0.7949
 8194TIP3    H145997   4.355   0.787   2.802  2.0682 -0.6831 -0.1814
 8194TIP3    H245998   4.465   0.885   2.767  0.0295  1.9158  0.4148
 8195TIP3   OH245999   2.481   6.566   4.766 -0.6273 -0.3040 -0.0620
 8195TIP3    H146000   2.438   6.520   4.838  1.0861 -3.7443 -1.0144
 8195TIP3    H246001   2.490   6.500   4.697  1.8999  1.5227 -1.6597
 8196TIP3   OH246002   2.970   4.676  14.063 -0.4681 -0.3317 -0.5235
 8196TIP3    H146003   3.000   4.633  14.142 -1.4970  3.1363  2.0003
 8196TIP3    H246004   3.007   4.764  14.068 -0.9286  0.1771 -3.7412
 8197TIP3   OH246005   1.052   6.375   2.199  0.2421 -0.0229  0.0006
 8197TIP3    H146006   1.135   6.413   2.229  0.6161 -0.1666 -0.8337
 8197TIP3    H246007   0.998   6.372   2.278  0.8279  0.5953  0.4434
 8198TIP3   OH246008   6.091   1.668  17.071  0.0917 -0.2391  0.4971
 8198TIP3    H146009   6.120   1.647  17.159 -2.2353 -3.9325  0.6194
 8198TIP3    H246010   6.162   1.638  17.014 -0.0016 -1.4983  1.0255
 8199TIP3   OH246011   1.035   0.335  11.088 -0.2583  0.5471  0.1436
 8199TIP3    H146012   1.008   0.245  11.071 -0.3561 -0.2620  3.8247
 8199TIP3    H246013   1.126   0.339  11.058 -0.5078 -0.4863 -0.8224
 8200TIP3   OH246014   2.283   5.127  14.487 -0.0162  0.0074 -0.6467
 8200TIP3    H146015   2.249   5.044  14.522 -0.2069  0.2729 -0.1938
 8200TIP3    H246016   2.286   5.114  14.392 -3.2911  0.6496 -0.9414
 8201TIP3   OH246017   5.267   0.158  12.022  0.2092 -0.5652 -0.8470
 8201TIP3    H146018   5.277   0.098  11.948  0.7896 -0.7276 -0.6481
 8201TIP3    H246019   5.243   0.101  12.096 -4.7237 -0.0177 -1.7027
 8202TIP3   OH246020   1.397   5.656   2.741 -0.3272 -0.6592 -0.0574
 8202TIP3    H146021   1.352   5.581   2.781 -0.3340 -0.5572  0.1273
 8202TIP3    H246022   1.486   5.624   2.723 -0.2012 -0.5843  0.4116
 8203TIP3   OH246023   5.011   3.228  11.263  0.7067  0.5589  0.0603
 8203TIP3    H146024   4.995   3.212  11.170 -0.9670  1.8698  0.0732
 8203TIP3    H246025   5.106   3.240  11.269  0.7586  1.3124 -1.6306
 8204TIP3   OH246026   6.018   1.076  13.664  0.0804 -0.1358 -0.1470
 8204TIP3    H146027   5.968   1.050  13.586  1.0149 -1.2842 -0.4030
 8204TIP3    H246028   6.017   0.998  13.720  2.6645 -0.7070 -0.7592
 8205TIP3   OH246029   5.958   0.505  13.716 -0.6415 -0.5707  0.0727
 8205TIP3    H146030   5.984   0.458  13.795  0.1356 -1.6887 -0.8087
 8205TIP3    H246031   6.039   0.512  13.665 -1.3582 -1.0428 -1.2005
 8206TIP3   OH246032   5.152   6.447  13.964 -0.2789  0.0262  0.2609
 8206TIP3    H146033   5.229   6.482  13.920  0.3793 -0.7803  0.7445
 8206TIP3    H246034   5.152   6.354  13.942 -1.4296  0.1096 -0.1756
 8207TIP3   OH246035   4.430   1.475  10.676  0.0525  0.6822  0.5504
 8207TIP3    H146036   4.382   1.412  10.730  0.4679 -1.6135 -1.6108
 8207TIP3    H246037   4.507   1.497  10.728  0.5818 -1.6707  0.8940
 8208TIP3   OH246038   4.515   5.698  17.023  0.8594 -0.7884  0.3593
 8208TIP3    H146039   4.505   5.728  16.932 -1.4708  1.2407  1.1762
 8208TIP3    H246040   4.442   5.638  17.037 -1.3208  1.9756  1.9097
 8209TIP3   OH246041   6.337   5.743   0.037  0.3497 -0.7067 -0.7137
 8209TIP3    H146042   6.337   5.769   0.129  0.3450 -0.0372 -0.8963
 8209TIP3    H246043   6.290   5.660   0.035 -0.3749 -0.3154 -0.2283
 8210TIP3   OH246044   3.929   0.141   0.889 -0.2094  0.3435  0.6296
 8210TIP3    H146045   3.936   0.158   0.983  0.9962  0.1088  0.5937
 8210TIP3    H246046   3.899   0.224   0.852 -0.1324  0.6055  1.1492
 8211TIP3   OH246047   3.310   0.606  11.757  0.2977 -0.3857  0.5538
 8211TIP3    H146048   3.227   0.619  11.713 -0.0835 -0.2484  1.2873
 8211TIP3    H246049   3.355   0.690  11.750  0.7829 -0.7371 -0.6553
 8212TIP3   OH246050   6.072   0.166   4.158  0.2536  0.4954  0.6327
 8212TIP3    H146051   6.146   0.188   4.215  0.7052  1.0407 -0.1452
 8212TIP3    H246052   6.113   0.140   4.075 -0.4092  0.2142  0.3896
 8213TIP3   OH246053   3.772   6.635   0.484 -0.4224  0.0994  0.0994
 8213TIP3    H146054   3.864   6.609   0.484 -0.4101  0.1107  1.1128
 8213TIP3    H246055   3.726   6.563   0.441  0.0148 -0.0542 -0.1110
 8214TIP3   OH246056   0.334   3.459   3.649  0.2777  0.7442 -0.3625
 8214TIP3    H146057   0.327   3.429   3.558 -0.1410 -0.4338  0.0409
 8214TIP3    H246058   0.278   3.536   3.653 -1.0226 -0.1505 -0.7279
 8215TIP3   OH246059   3.136   5.047   0.549 -0.5657  0.3787 -0.0492
 8215TIP3    H146060   3.125   4.952   0.546  1.5908  0.1006 -2.6651
 8215TIP3    H246061   3.229   5.060   0.566 -0.7673  2.0222 -0.0546
 8216TIP3   OH246062   4.155   5.313  14.687 -0.2382  0.6551 -0.4403
 8216TIP3    H146063   4.247   5.290  14.699 -0.6115  0.2499  2.3136
 8216TIP3    H246064   4.109   5.230  14.692 -0.8149  0.8996 -1.4485
 8217TIP3   OH246065   3.455   4.170   1.410 -0.3934  0.5660 -0.1641
 8217TIP3    H146066   3.422   4.137   1.493 -0.6427 -1.2563 -0.9156
 8217TIP3    H246067   3.445   4.265   1.415 -2.2796  0.3568  1.0841
 8218TIP3   OH246068   5.496   1.614  12.920 -0.5118  0.2524  0.5467
 8218TIP3    H146069   5.420   1.592  12.974 -1.0393 -0.3664 -0.4129
 8218TIP3    H246070   5.458   1.652  12.840  0.2392  0.9087  0.4969
 8219TIP3   OH246071   4.405   4.385   1.348  0.7730  0.3301 -0.0034
 8219TIP3    H146072   4.461   4.315   1.380 -0.5973  0.6084  3.4696
 8219TIP3    H246073   4.422   4.458   1.408 -1.4752  1.2186 -0.3636
 8220TIP3   OH246074   5.255   3.710   5.743 -0.4709 -0.7771  0.7683
 8220TIP3    H146075   5.307   3.780   5.704 -1.2527 -0.2515  0.6623
 8220TIP3    H246076   5.320   3.654   5.786  0.1971 -0.2121  0.5215
 8221TIP3   OH246077   3.593   5.271  13.104  0.3458  0.6326  0.2113
 8221TIP3    H146078   3.601   5.340  13.038  0.4930 -0.5547 -1.0674
 8221TIP3    H246079   3.653   5.202  13.075  0.1603 -0.0747  1.4071
 8222TIP3   OH246080   1.553   6.156   3.446 -0.0210 -0.5377 -0.4732
 8222TIP3    H146081   1.577   6.067   3.420 -0.4733 -0.6914 -0.3693
 8222TIP3    H246082   1.579   6.162   3.538  0.9704 -0.2112 -0.7588
 8223TIP3   OH246083   4.531   2.100  15.027  0.7535 -0.5966 -0.6519
 8223TIP3    H146084   4.605   2.161  15.031 -0.1456  0.4750  0.5296
 8223TIP3    H246085   4.570   2.017  15.000  2.1830  0.2265 -1.2771
 8224TIP3   OH246086   5.214   2.347  16.981 -0.1734 -0.0792  0.0412
 8224TIP3    H146087   5.280   2.320  17.045  0.5551 -0.4388 -0.8379
 8224TIP3    H246088   5.228   2.441  16.970 -0.2898 -0.0188  0.3834
 8225TIP3   OH246089   5.430   4.832   1.872  0.2074  0.6604  0.3086
 8225TIP3    H146090   5.434   4.779   1.792 -2.5362  0.4179  0.2593
 8225TIP3    H246091   5.446   4.769   1.942 -0.7010  0.2088  0.1202
 8226TIP3   OH246092   6.707   4.863   5.155  0.1567 -0.5096 -0.2191
 8226TIP3    H146093   6.619   4.826   5.145  0.5343 -1.3485 -0.5297
 8226TIP3    H246094   6.755   4.797   5.206 -0.2976  1.3805  2.9701
 8227TIP3   OH246095   5.830   4.079  11.644 -0.1035  0.0901  0.3546
 8227TIP3    H146096   5.882   4.030  11.708  0.8137  0.3544 -0.1794
 8227TIP3    H246097   5.815   4.017  11.573 -0.7279 -0.0553  0.6018
 8228TIP3   OH246098   5.839   2.060  16.050 -0.1065  0.2165  0.0787
 8228TIP3    H146099   5.927   2.071  16.086 -0.4360  2.9862  0.2584
 8228TIP3    H246100   5.821   1.966  16.059  2.2864 -0.2048  1.2725
 8229TIP3   OH246101   4.735   0.850  15.240 -0.1127 -0.3061  0.3811
 8229TIP3    H146102   4.807   0.789  15.254 -1.4262 -2.5557 -1.8298
 8229TIP3    H246103   4.656   0.796  15.245 -1.4232  1.3839 -0.7198
 8230TIP3   OH246104   1.503   2.869  12.256  0.0435  0.3198  0.0213
 8230TIP3    H146105   1.558   2.876  12.178 -1.5292  2.6323 -1.0016
 8230TIP3    H246106   1.542   2.931  12.318 -1.6290  2.5056 -0.9634
 8231TIP3   OH246107   5.467   6.506  14.982  0.2264 -0.3718 -0.0779
 8231TIP3    H146108   5.561   6.503  14.997  0.3066 -0.3430 -0.5700
 8231TIP3    H246109   5.457   6.492  14.888 -0.2257  0.2248 -0.1224
 8232TIP3   OH246110   5.043   4.867   1.353  0.0195  0.0615  0.1877
 8232TIP3    H146111   4.971   4.842   1.410  0.9719 -1.0176  0.9657
 8232TIP3    H246112   5.054   4.793   1.294  1.5928 -0.5816  1.2223
 8233TIP3   OH246113   0.478   4.991  12.946 -0.2491  0.2995  0.3570
 8233TIP3    H146114   0.431   5.073  12.939 -1.7207 -0.6216 -1.2458
 8233TIP3    H246115   0.557   5.012  12.997 -1.3045  2.3438  1.2438
 8234TIP3   OH246116   4.708   3.399  13.462 -0.0698  0.5857 -0.0719
 8234TIP3    H146117   4.791   3.369  13.425  0.0595 -0.7075  1.1934
 8234TIP3    H246118   4.653   3.417  13.385  0.8098 -0.1964 -0.9177
 8235TIP3   OH246119   4.769   6.309   3.312 -0.4258  0.1979 -0.0688
 8235TIP3    H146120   4.691   6.316   3.256 -1.2387  0.9903  1.1274
 8235TIP3    H246121   4.793   6.399   3.332  0.9925 -0.0249 -0.6413
 8236TIP3   OH246122   3.130   4.605   0.954 -0.2122  0.6102 -0.5992
 8236TIP3    H146123   3.141   4.538   0.887  1.6772 -0.5815  0.8181
 8236TIP3    H246124   3.123   4.687   0.905 -1.2970 -0.4461 -2.3165
 8237TIP3   OH246125   2.770   4.278  11.740 -0.3220 -0.6113  0.5940
 8237TIP3    H146126   2.857   4.238  11.743 -0.4128 -0.8484  0.1308
 8237TIP3    H246127   2.722   4.240  11.813 -0.3385 -1.1855  0.2848
 8238TIP3   OH246128   0.640   1.766  10.625  0.2168  0.0216  0.7337
 8238TIP3    H146129   0.730   1.796  10.639  0.8078 -1.5058  0.3692
 8238TIP3    H246130   0.586   1.840  10.653  1.5991  2.3135 -2.1674
 8239TIP3   OH246131   4.033   4.121   4.538 -0.1014  0.4181  0.3810
 8239TIP3    H146132   3.992   4.185   4.596 -1.2695 -2.3351  2.8455
 8239TIP3    H246133   3.992   4.136   4.453  0.7877  3.8311  0.4088
 8240TIP3   OH246134   4.290   5.144  13.793 -0.3845 -0.2366  0.4382
 8240TIP3    H146135   4.289   5.073  13.857 -0.9223 -1.2879 -0.7041
 8240TIP3    H246136   4.218   5.201  13.820  0.1587 -0.0134  1.4615
 8241TIP3   OH246137   1.318   1.610   4.681  0.1918  0.0807  0.3176
 8241TIP3    H146138   1.338   1.579   4.769  0.4452 -1.6236 -0.3088
 8241TIP3    H246139   1.224   1.592   4.670  0.2266  0.0093  0.1346
 8242TIP3   OH246140   4.669   4.993   3.440 -0.4783 -0.7895  0.5580
 8242TIP3    H146141   4.719   4.951   3.510  1.7864  2.3107  0.9851
 8242TIP3    H246142   4.607   5.050   3.485  1.1663  1.4229  0.1609
 8243TIP3   OH246143   0.301   4.568  12.768  0.4511  0.4433  0.4566
 8243TIP3    H146144   0.226   4.556  12.710  1.0140  0.4029 -0.2668
 8243TIP3    H246145   0.297   4.493  12.828 -0.7761  1.0781  1.2129
 8244TIP3   OH246146   1.313   1.287   3.741 -0.1934 -0.0359  0.1580
 8244TIP3    H146147   1.400   1.309   3.775 -0.5018  0.0203  0.9277
 8244TIP3    H246148   1.254   1.298   3.816 -0.7040 -1.1402 -0.0599
 8245TIP3   OH246149   3.819   0.093   4.363  0.4224  0.3932  0.1758
 8245TIP3    H146150   3.912   0.084   4.341  0.3831 -1.4990  0.6180
 8245TIP3    H246151   3.788   0.163   4.305  1.7431 -0.0849 -1.1784
 8246TIP3   OH246152   4.932   5.484   0.646  0.3544  0.1272  0.5392
 8246TIP3    H146153   4.870   5.481   0.719 -0.6010 -1.4256 -0.2913
 8246TIP3    H246154   4.882   5.453   0.570  2.7259 -3.9030  0.3389
 8247TIP3   OH246155   1.784   2.012   3.169  0.2039 -0.2533  0.2734
 8247TIP3    H146156   1.800   2.009   3.075 -1.1594  1.9893 -0.1079
 8247TIP3    H246157   1.852   1.956   3.207  0.6208 -1.4212 -2.0351
 8248TIP3   OH246158   3.141   2.944   0.372  0.1705  0.2338 -0.0626
 8248TIP3    H146159   3.062   2.963   0.321  0.3579 -0.4251 -0.6161
 8248TIP3    H246160   3.176   3.030   0.394  0.1611  0.5394 -1.1829
 8249TIP3   OH246161   3.172   1.126   4.485 -0.2077  0.4558 -0.5525
 8249TIP3    H146162   3.266   1.106   4.482  0.1184  0.4517  3.6829
 8249TIP3    H246163   3.129   1.048   4.451  1.3631 -2.5212  3.4839
 8250TIP3   OH246164   1.423   4.502   4.747  0.3473  0.1888  0.5592
 8250TIP3    H146165   1.440   4.481   4.655  0.0678 -0.2449  0.6010
 8250TIP3    H246166   1.448   4.594   4.756 -0.2786  0.4438 -0.1307
 8251TIP3   OH246167   3.828   0.945  15.860  0.1508 -1.0128 -0.0693
 8251TIP3    H146168   3.877   0.907  15.787 -0.7323 -2.0120 -0.1852
 8251TIP3    H246169   3.798   0.869  15.910 -0.4973 -0.3998  0.4956
 8252TIP3   OH246170   2.317   4.821   0.891  0.4430  0.0457  0.2110
 8252TIP3    H146171   2.320   4.747   0.952  1.1634  0.1386  0.3026
 8252TIP3    H246172   2.224   4.837   0.876  0.2742 -0.5153  0.6342
 8253TIP3   OH246173   6.499   2.691   1.328  0.1535  0.5631 -0.1972
 8253TIP3    H146174   6.506   2.719   1.419  1.8576  0.2287 -0.1897
 8253TIP3    H246175   6.410   2.657   1.320 -0.4646  1.7982  0.9811
 8254TIP3   OH246176   1.124   0.243  15.631 -0.1790 -0.6024  0.0146
 8254TIP3    H146177   1.035   0.246  15.667 -0.3950  0.9045 -0.5462
 8254TIP3    H246178   1.165   0.168  15.674 -1.6885 -1.2799  0.3461
 8255TIP3   OH246179   2.672   3.714  11.515 -0.0155 -0.6855 -0.6182
 8255TIP3    H146180   2.758   3.728  11.476 -0.7979 -0.8432 -2.5103
 8255TIP3    H246181   2.641   3.633  11.475 -1.2016 -0.4270 -0.2449
 8256TIP3   OH246182   0.755   3.180   2.918 -0.1274 -0.0078  0.4828
 8256TIP3    H146183   0.748   3.103   2.862  0.1378  0.2139  0.1445
 8256TIP3    H246184   0.820   3.156   2.985 -0.1428 -0.1249  0.4547
 8257TIP3   OH246185   1.813   5.919   4.919 -0.0947  0.2387 -0.4483
 8257TIP3    H146186   1.769   5.962   4.992 -1.8039 -1.4891 -0.3882
 8257TIP3    H246187   1.742   5.887   4.863  1.1595  0.3975 -2.2151
 8258TIP3   OH246188   0.822   4.417   0.581  0.1540  0.0091  0.4507
 8258TIP3    H146189   0.835   4.370   0.498 -0.1140 -1.0141  0.9619
 8258TIP3    H246190   0.728   4.409   0.598  0.6110 -2.5126  2.3608
 8259TIP3   OH246191   4.877   1.022   2.046  0.4162 -0.3383 -0.0066
 8259TIP3    H146192   4.852   0.958   2.112  0.1988 -0.0827  0.1619
 8259TIP3    H246193   4.803   1.082   2.042  1.3597  0.9882  1.1847
 8260TIP3   OH246194   1.647   1.460   4.276  0.1440 -0.5507  0.2105
 8260TIP3    H146195   1.593   1.400   4.225  1.7114 -1.4822 -0.4110
 8260TIP3    H246196   1.606   1.461   4.363 -1.4327 -0.4377 -0.5111
 8261TIP3   OH246197   0.743   5.127  15.037  0.2057  0.3586 -0.5230
 8261TIP3    H146198   0.781   5.101  14.953  0.5733  1.2764 -0.6402
 8261TIP3    H246199   0.700   5.211  15.020 -2.3425 -0.8399 -0.5325
 8262TIP3   OH246200   4.541   1.295   5.537 -0.0966  0.4778 -0.1413
 8262TIP3    H146201   4.447   1.305   5.547 -0.0229  2.1176 -0.6633
 8262TIP3    H246202   4.575   1.298   5.627 -0.4512  1.3950 -0.0217
 8263TIP3   OH246203   2.642   0.540   4.084 -0.1646 -0.5439 -0.0959
 8263TIP3    H146204   2.723   0.541   4.135 -0.6374  1.4155  0.6991
 8263TIP3    H246205   2.635   0.628   4.048 -2.4180 -0.3596  0.6339
 8264TIP3   OH246206   6.277   2.855  15.595  0.4668  0.1982 -0.2927
 8264TIP3    H146207   6.328   2.840  15.675  2.0964 -0.5309 -1.4112
 8264TIP3    H246208   6.241   2.943  15.605 -1.8918 -0.9209  2.5426
 8265TIP3   OH246209   6.511   0.761   2.315 -0.0572 -0.3572  0.7574
 8265TIP3    H146210   6.458   0.793   2.389  0.3829 -2.3360  2.0167
 8265TIP3    H246211   6.461   0.785   2.237 -0.7118  1.5057  1.6860
 8266TIP3   OH246212   0.726   4.300  10.970 -0.3651 -0.3383  0.0059
 8266TIP3    H146213   0.691   4.385  10.994  1.2852  0.9868 -1.9748
 8266TIP3    H246214   0.651   4.241  10.976 -1.4613  1.1116  1.8035
 8267TIP3   OH246215   2.379   4.119   4.539 -0.2011 -0.1346  0.4216
 8267TIP3    H146216   2.425   4.143   4.620 -1.1885 -0.5075  1.0989
 8267TIP3    H246217   2.311   4.186   4.529  0.0111  0.0013 -0.2002
 8268TIP3   OH246218   6.074   5.770  10.914 -0.7832 -0.4344 -0.2420
 8268TIP3    H146219   6.061   5.790  10.821  0.5622 -1.7733 -0.7544
 8268TIP3    H246220   6.160   5.728  10.918 -0.5512  0.1412  1.7074
 8269TIP3   OH246221   5.201   3.153  16.126  0.1742  0.0959  0.1870
 8269TIP3    H146222   5.272   3.094  16.104  1.2470  1.9759 -1.8606
 8269TIP3    H246223   5.214   3.174  16.218  1.5940 -0.4782  0.1367
 8270TIP3   OH246224   4.588   3.088  15.304 -0.0422  0.0936 -0.4632
 8270TIP3    H146225   4.494   3.075  15.321  0.2131 -0.9271  0.2206
 8270TIP3    H246226   4.630   3.009  15.337  1.0309  0.3623 -1.1485
 8271TIP3   OH246227   5.559   4.232  14.818 -0.1191  0.4335  0.3184
 8271TIP3    H146228   5.571   4.234  14.723  0.1860  0.9798  0.3600
 8271TIP3    H246229   5.466   4.216  14.830  0.0525 -0.9968 -0.0556
 8272TIP3   OH246230   4.485   0.707  13.544  0.0128 -0.5699  0.8844
 8272TIP3    H146231   4.492   0.734  13.635 -0.7662 -1.3782  1.2006
 8272TIP3    H246232   4.401   0.661  13.539  1.5758 -3.6858  0.6277
 8273TIP3   OH246233   5.042   3.981  13.982 -0.0328 -0.2270 -0.1320
 8273TIP3    H146234   5.019   3.956  13.893  0.2208 -0.6451 -0.0821
 8273TIP3    H246235   5.043   3.899  14.031  0.0054 -0.0229  0.2200
 8274TIP3   OH246236   6.498   4.827   4.261  0.0657 -0.2608 -0.4071
 8274TIP3    H146237   6.450   4.845   4.180 -0.4463 -0.6369 -0.1974
 8274TIP3    H246238   6.472   4.897   4.320 -0.2426 -0.4690 -0.2907
 8275TIP3   OH246239   0.714   4.060   5.714 -0.6563 -0.5003 -0.4148
 8275TIP3    H146240   0.696   4.118   5.640 -0.6063 -0.7684 -0.6372
 8275TIP3    H246241   0.762   4.115   5.776 -0.2206 -0.4268 -0.8165
 8276TIP3   OH246242   5.384   5.581   4.079  0.1149 -0.5912 -0.2720
 8276TIP3    H146243   5.353   5.665   4.045  0.1109 -0.4722  0.0170
 8276TIP3    H246244   5.307   5.523   4.074  0.8412 -1.4316 -3.1398
 8277TIP3   OH246245   0.171   2.961   5.084  0.2360  0.6090 -0.5145
 8277TIP3    H146246   0.210   2.885   5.041 -0.1139 -0.1142  0.3989
 8277TIP3    H246247   0.085   2.971   5.043 -0.2008 -0.2336  0.1786
 8278TIP3   OH246248   0.571   1.332   4.679 -0.0987 -0.6562  0.4963
 8278TIP3    H146249   0.494   1.379   4.646  0.5374  0.0380 -0.0090
 8278TIP3    H246250   0.557   1.241   4.652 -0.8659 -0.5950  0.6449
 8279TIP3   OH246251   6.176   4.588  13.295 -0.3147 -0.3569  0.3844
 8279TIP3    H146252   6.147   4.528  13.227 -0.4656  0.6759 -0.4863
 8279TIP3    H246253   6.208   4.665  13.248  2.9285 -1.0087  1.3272
 8280TIP3   OH246254   5.182   0.653  13.916 -0.5663 -0.6433 -0.7166
 8280TIP3    H146255   5.266   0.690  13.890  0.5400 -3.1786 -0.9858
 8280TIP3    H246256   5.121   0.726  13.908  1.8175  1.7153  0.9818
 8281TIP3   OH246257   3.465   4.699  16.895 -0.4694 -0.0752 -0.7434
 8281TIP3    H146258   3.537   4.700  16.832  0.0476  0.2532 -0.1561
 8281TIP3    H246259   3.495   4.641  16.965  0.2075  1.7956  0.6032
 8282TIP3   OH246260   3.293   5.854   3.579 -0.7369 -0.0897 -0.6235
 8282TIP3    H146261   3.287   5.946   3.606  1.4106  0.1081 -0.6321
 8282TIP3    H246262   3.304   5.858   3.484 -1.0863 -0.3845 -0.6770
 8283TIP3   OH246263   3.900   3.230   2.500  0.5883  0.4226  0.2025
 8283TIP3    H146264   3.952   3.174   2.558 -1.1304 -1.6575 -0.1279
 8283TIP3    H246265   3.868   3.300   2.557  1.2042 -0.0191  1.1238
 8284TIP3   OH246266   3.394   1.232  15.459 -0.3481  0.2693 -0.1086
 8284TIP3    H146267   3.396   1.177  15.538  1.3902 -1.5130 -1.2790
 8284TIP3    H246268   3.301   1.249  15.444 -0.8118 -0.6404  1.4804
 8285TIP3   OH246269   5.839   5.189   3.422 -0.0998  0.1162  0.6721
 8285TIP3    H146270   5.792   5.234   3.492 -1.3689  0.3146 -0.2819
 8285TIP3    H246271   5.771   5.149   3.368  0.9270 -1.9202  0.7594
 8286TIP3   OH246272   5.986   0.940   2.826 -0.3080  0.0557 -0.5411
 8286TIP3    H146273   5.896   0.937   2.858 -0.4159  1.0770 -0.7140
 8286TIP3    H246274   5.992   0.866   2.765 -0.1386 -1.8682  1.6567
 8287TIP3   OH246275   5.127   6.298   6.310 -0.3635  0.0284 -0.3852
 8287TIP3    H146276   5.168   6.384   6.318 -0.0857 -0.1991  0.9338
 8287TIP3    H246277   5.190   6.247   6.259 -0.0996  0.3541 -0.3947
 8288TIP3   OH246278   0.464   0.730   5.429  0.7000  0.3235 -0.3359
 8288TIP3    H146279   0.460   0.712   5.335  0.3757 -1.7491  0.0181
 8288TIP3    H246280   0.407   0.805   5.442 -1.9605 -1.3742 -1.3892
 8289TIP3   OH246281   1.001   2.380   0.930  0.6719  0.2551  0.0971
 8289TIP3    H146282   1.075   2.391   0.870  1.4155  1.7243  1.1938
 8289TIP3    H246283   1.042   2.371   1.016 -0.3273 -2.6279  0.3685
 8290TIP3   OH246284   6.302   3.706   2.655  0.6602  0.4592  0.1013
 8290TIP3    H146285   6.319   3.721   2.562  0.4247  0.0278 -0.0144
 8290TIP3    H246286   6.209   3.682   2.658  0.9458 -0.6559  0.3085
 8291TIP3   OH246287   2.505   3.906  12.733  0.7888 -0.4325 -0.7728
 8291TIP3    H146288   2.514   3.987  12.783  0.5301 -0.6993 -0.2971
 8291TIP3    H246289   2.594   3.871  12.727  1.4111  1.2519 -3.3015
 8292TIP3   OH246290   4.087   5.121  11.265 -0.4261  0.8355 -0.5997
 8292TIP3    H146291   4.065   5.163  11.348 -0.3760  0.5381 -0.4321
 8292TIP3    H246292   4.107   5.193  11.206  0.0868  1.0345 -0.1964
 8293TIP3   OH246293   2.226   2.647  11.683 -0.4392  0.0097 -0.3566
 8293TIP3    H146294   2.246   2.658  11.590 -1.1661 -0.6059 -0.6055
 8293TIP3    H246295   2.304   2.606  11.720 -0.6678 -1.0609 -1.0067
 8294TIP3   OH246296   5.820   4.864  13.600 -0.2676  0.4663 -0.5734
 8294TIP3    H146297   5.731   4.871  13.567 -0.4954 -3.4679 -1.3085
 8294TIP3    H246298   5.876   4.884  13.525 -0.5971  0.6656 -0.7644
 8295TIP3   OH246299   2.730   2.305   4.151  0.2821  0.6376  0.4361
 8295TIP3    H146300   2.730   2.396   4.182  0.2757  0.8355 -0.1394
 8295TIP3    H246301   2.725   2.312   4.056  5.6326  0.2385 -0.1708
 8296TIP3   OH246302   5.451   2.010   4.337 -0.1422 -0.2757 -0.4261
 8296TIP3    H146303   5.369   2.037   4.377 -0.1244 -0.4928 -0.2346
 8296TIP3    H246304   5.458   1.917   4.358 -0.7306 -0.6977 -1.9948
 8297TIP3   OH246305   6.191   1.521  13.760  0.2831 -0.2273 -0.0330
 8297TIP3    H146306   6.285   1.512  13.745  0.2493 -0.4760 -0.1067
 8297TIP3    H246307   6.180   1.508  13.854  0.2788 -0.5850 -0.0827
 8298TIP3   OH246308   2.539   1.288  11.401 -0.7230  0.0040  0.0284
 8298TIP3    H146309   2.606   1.240  11.449 -1.0083  0.3694  0.8143
 8298TIP3    H246310   2.585   1.326  11.326  0.1920  1.1378  1.1313
 8299TIP3   OH246311   2.421   0.699   2.794  0.0570 -0.2955  0.4404
 8299TIP3    H146312   2.364   0.652   2.856  0.2685 -0.4553  0.5159
 8299TIP3    H246313   2.406   0.655   2.710 -0.5646  0.2058  0.2790
 8300TIP3   OH246314   3.380   4.485  16.617  0.2434  0.1270  0.6155
 8300TIP3    H146315   3.470   4.486  16.651  0.3886  1.1145  0.2441
 8300TIP3    H246316   3.331   4.435  16.681  1.1070 -0.6374  0.7034
 8301TIP3   OH246317   2.765   6.423   0.611 -0.2567 -0.3232  0.1417
 8301TIP3    H146318   2.714   6.417   0.530 -0.4082  0.4613  0.1762
 8301TIP3    H246319   2.808   6.508   0.607 -0.4933 -0.1538  1.0149
 8302TIP3   OH246320   3.235   6.536  13.512  0.3194  0.2366  0.2041
 8302TIP3    H146321   3.286   6.565  13.587 -0.1269  1.9782 -0.1059
 8302TIP3    H246322   3.179   6.466  13.546  0.7250  0.4130  1.2756
 8303TIP3   OH246323   6.005   2.921   3.477 -0.0968 -0.1099  0.0169
 8303TIP3    H146324   5.940   2.925   3.408  0.0395  1.1656 -0.0497
 8303TIP3    H246325   5.991   2.835   3.518  0.5053 -1.3374 -2.2229
 8304TIP3   OH246326   6.164   2.859  13.730 -0.2527 -0.0193  0.3099
 8304TIP3    H146327   6.197   2.800  13.799  0.6941  2.0048  1.7165
 8304TIP3    H246328   6.121   2.929  13.778 -0.9217  0.6981 -1.2762
 8305TIP3   OH246329   2.427   4.999   4.487  0.5013 -0.9305  0.3237
 8305TIP3    H146330   2.425   5.018   4.393 -0.7160 -1.0612  0.3048
 8305TIP3    H246331   2.520   5.000   4.510  0.8766 -1.7007 -1.0506
 8306TIP3   OH246332   1.881   4.520  15.461 -0.2933 -0.0059 -0.2220
 8306TIP3    H146333   1.920   4.606  15.477  0.5805 -0.7194  1.7875
 8306TIP3    H246334   1.953   4.466  15.428 -0.6688 -0.1749 -0.7865
 8307TIP3   OH246335   4.455   3.322   4.301 -0.1944 -0.0736 -0.0296
 8307TIP3    H146336   4.450   3.272   4.219  0.2763 -1.1427  0.5836
 8307TIP3    H246337   4.440   3.413   4.273 -2.1514 -0.6296 -1.0302
 8308TIP3   OH246338   4.298   2.880  16.370 -0.0036 -0.2078 -0.9549
 8308TIP3    H146339   4.279   2.807  16.430  2.8226 -0.5460 -0.3476
 8308TIP3    H246340   4.344   2.839  16.297  1.0471  0.8780 -0.9186
 8309TIP3   OH246341   2.732   4.253   3.719  0.4090 -0.2204 -0.4802
 8309TIP3    H146342   2.685   4.330   3.751  1.9325  0.7312 -0.4128
 8309TIP3    H246343   2.809   4.289   3.674  1.9929 -1.7025  0.8799
 8310TIP3   OH246344   2.031   0.753   4.086  0.1652 -0.5450  0.2674
 8310TIP3    H146345   2.031   0.695   4.010 -2.0134 -0.1162 -0.1331
 8310TIP3    H246346   1.989   0.833   4.054  0.4845  0.1505  1.5577
 8311TIP3   OH246347   4.992   4.336  15.654 -0.1935 -0.9713 -0.4871
 8311TIP3    H146348   5.067   4.342  15.595  1.2055 -1.6999  1.1278
 8311TIP3    H246349   4.948   4.421  15.645  1.6037  0.0167 -0.5193
 8312TIP3   OH246350   4.732   0.232  16.342 -0.0301 -0.2289  0.4057
 8312TIP3    H146351   4.683   0.299  16.390 -0.2516  0.6194 -0.9506
 8312TIP3    H246352   4.664   0.174  16.307  0.1301 -0.8307  1.0653
 8313TIP3   OH246353   2.801   3.591   5.791 -0.0464  0.4771  0.4051
 8313TIP3    H146354   2.769   3.673   5.831  1.4919  0.5440  1.5777
 8313TIP3    H246355   2.746   3.523   5.830 -0.5356  0.8343  0.3490
 8314TIP3   OH246356   6.598   0.020  15.450 -0.3312 -0.4339 -0.0830
 8314TIP3    H146357   6.544  -0.059  15.458  0.6587 -1.2347 -1.0337
 8314TIP3    H246358   6.606   0.033  15.355  0.7690 -0.0735  0.0485
 8315TIP3   OH246359   2.887   6.703   0.057  0.2038 -0.6411  0.2343
 8315TIP3    H146360   2.916   6.650  -0.018  0.6878  0.5078 -0.4093
 8315TIP3    H246361   2.857   6.785   0.018  0.2554 -0.1112  1.2862
 8316TIP3   OH246362   3.786   0.811   3.706  0.3275  0.0200 -0.9084
 8316TIP3    H146363   3.728   0.883   3.727 -1.3433 -1.4488 -0.2368
 8316TIP3    H246364   3.772   0.794   3.613 -0.0074 -0.0671 -0.8415
 8317TIP3   OH246365   2.646   5.204  14.804  0.0213 -0.1065  0.5420
 8317TIP3    H146366   2.571   5.180  14.751 -0.7334  0.1485  1.4713
 8317TIP3    H246367   2.646   5.143  14.877  2.0058 -1.5167 -0.5338
 8318TIP3   OH246368   3.378   0.872   5.623  0.3062  0.2246 -0.3244
 8318TIP3    H146369   3.435   0.803   5.657 -0.9892 -1.5279 -1.4960
 8318TIP3    H246370   3.348   0.920   5.700 -0.2185 -1.7208  0.7404
 8319TIP3   OH246371   4.610   1.256   1.170 -0.7775 -0.0454 -0.2693
 8319TIP3    H146372   4.666   1.189   1.210  0.7768  0.6440 -1.1825
 8319TIP3    H246373   4.525   1.244   1.212 -0.2413 -1.8251  0.4317
 8320TIP3   OH246374   6.680   1.817   3.150 -0.8478 -0.0921 -0.0480
 8320TIP3    H146375   6.659   1.807   3.243  1.5896 -1.8362  0.4063
 8320TIP3    H246376   6.776   1.817   3.147 -0.8578 -0.8839 -2.6408
 8321TIP3   OH246377   1.917   6.012  12.415  0.0045  0.1373 -0.2701
 8321TIP3    H146378   1.895   5.926  12.451  2.2606 -0.1693  0.5177
 8321TIP3    H246379   1.867   6.074  12.468 -0.9427 -0.6157 -0.2546
 8322TIP3   OH246380   6.604   1.555   5.087  0.1258  0.0824  0.0221
 8322TIP3    H146381   6.511   1.532   5.082  0.1834  0.0449 -0.9613
 8322TIP3    H246382   6.607   1.626   5.152 -0.3203 -1.2369  1.5557
 8323TIP3   OH246383   5.285   0.611  15.561  0.5031  0.0429 -0.0836
 8323TIP3    H146384   5.357   0.671  15.579 -0.4670  1.3243 -0.3433
 8323TIP3    H246385   5.263   0.574  15.646  2.0890 -1.1516 -0.1360
 8324TIP3   OH246386   2.246   0.870   1.530  0.1353  0.3318  0.4553
 8324TIP3    H146387   2.298   0.821   1.594  0.4739  0.6902  0.4596
 8324TIP3    H246388   2.310   0.905   1.468 -0.1410  0.4277  0.2220
 8325TIP3   OH246389   4.502   6.386  15.071  0.4734  0.4451 -0.2936
 8325TIP3    H146390   4.548   6.375  15.154 -0.1286  3.2054  0.5296
 8325TIP3    H246391   4.513   6.479  15.050 -1.4042  0.3401 -2.0804
 8326TIP3   OH246392   0.379   2.814   2.748  0.1082 -0.0168  0.0733
 8326TIP3    H146393   0.298   2.862   2.764 -0.3310 -0.2877 -1.1893
 8326TIP3    H246394   0.420   2.805   2.834 -0.8851  0.6805  0.6324
 8327TIP3   OH246395   6.784   0.591   0.912  0.8703 -0.1784 -0.2057
 8327TIP3    H146396   6.717   0.654   0.887  0.3858 -1.4162 -2.3008
 8327TIP3    H246397   6.737   0.524   0.962  1.1091  0.3505  0.7512
 8328TIP3   OH246398   6.361   5.281   5.692  0.2630  0.0167  0.2245
 8328TIP3    H146399   6.302   5.305   5.620  0.3937 -0.0549  0.0914
 8328TIP3    H246400   6.329   5.196   5.722 -1.4942  1.2474  2.0809
 8329TIP3   OH246401   4.951   2.595  13.549 -0.4722 -0.2178  0.0192
 8329TIP3    H146402   4.894   2.652  13.600 -0.3114  0.3004 -0.3820
 8329TIP3    H246403   5.003   2.654  13.495 -0.9373 -0.7813 -1.0675
 8330TIP3   OH246404   2.554   5.994  16.640 -0.1193  0.7743 -0.3899
 8330TIP3    H146405   2.472   5.995  16.689 -0.7028 -0.8443 -1.2892
 8330TIP3    H246406   2.574   5.902  16.627  3.4511  0.9524  2.3533
 8331TIP3   OH246407   0.606   1.900  17.072  0.3729  0.4830 -0.1731
 8331TIP3    H146408   0.575   1.857  17.151  0.0567 -0.2816 -0.6964
 8331TIP3    H246409   0.531   1.897  17.012  0.4452  1.4910 -0.3352
 8332TIP3   OH246410   3.371   6.064   5.202  0.0202  0.1962 -0.5239
 8332TIP3    H146411   3.354   5.979   5.162  0.1162  1.6109 -3.8894
 8332TIP3    H246412   3.430   6.108   5.140  1.1706  2.1910  1.8270
 8333TIP3   OH246413   2.919   4.950   4.362 -0.1008 -0.0828  0.2932
 8333TIP3    H146414   2.841   4.918   4.317 -0.2330 -0.8639  1.0407
 8333TIP3    H246415   2.892   5.032   4.403 -0.5131 -0.3037  0.4718
 8334TIP3   OH246416   4.571   2.556   3.113 -0.3985  0.3213  0.1428
 8334TIP3    H146417   4.625   2.634   3.128  1.1763 -0.6227 -0.3986
 8334TIP3    H246418   4.577   2.506   3.194  1.3818 -0.8282 -0.6466
 8335TIP3   OH246419   1.628   3.536  16.099  0.1425  0.0889 -0.1827
 8335TIP3    H146420   1.655   3.445  16.087  2.0883  0.6808 -0.7635
 8335TIP3    H246421   1.665   3.561  16.184 -0.8499  0.1960  0.2259
 8336TIP3   OH246422   2.735   1.986   0.373  0.5968 -0.0539  0.5808
 8336TIP3    H146423   2.753   2.079   0.388 -0.4179 -0.1008  2.4590
 8336TIP3    H246424   2.651   1.984   0.328  0.0831 -0.0612  1.5168
 8337TIP3   OH246425   3.339   5.616  11.265 -0.4391 -0.1271 -0.5105
 8337TIP3    H146426   3.355   5.704  11.299  2.2563 -1.0753  0.9497
 8337TIP3    H246427   3.306   5.567  11.341 -1.7559 -0.4518 -1.2661
 8338TIP3   OH246428   0.282   0.417  16.579  0.1108  0.6399  0.9906
 8338TIP3    H146429   0.247   0.342  16.530 -0.1234  0.3584  1.5785
 8338TIP3    H246430   0.374   0.393  16.596  0.4425  1.1190 -0.0392
 8339TIP3   OH246431   1.433   3.200   1.001  0.1989  0.3449 -0.0545
 8339TIP3    H146432   1.490   3.255   1.055  1.2371 -0.9224  0.2019
 8339TIP3    H246433   1.350   3.196   1.048  0.7783  0.0422  0.9732
 8340TIP3   OH246434   4.522   0.267  15.680 -0.2446  0.2026 -0.5723
 8340TIP3    H146435   4.526   0.354  15.721 -0.0457  1.3260 -2.8086
 8340TIP3    H246436   4.434   0.236  15.699  0.2894  0.0183  1.8590
 8341TIP3   OH246437   0.058   0.470  15.681 -0.3071  0.0341  0.0447
 8341TIP3    H146438  -0.036   0.479  15.698 -0.2353  1.2843 -0.1326
 8341TIP3    H246439   0.094   0.558  15.696  1.0435 -0.6955  1.3829
 8342TIP3   OH246440   1.835   5.276   5.909  0.2581  0.1625  0.4030
 8342TIP3    H146441   1.908   5.216   5.895  1.0361  1.0272  0.6869
 8342TIP3    H246442   1.842   5.300   6.001  0.1254  0.9021  0.2239
 8343TIP3   OH246443   1.903   3.214  16.851 -0.6625 -0.2328  0.4848
 8343TIP3    H146444   1.916   3.283  16.915 -0.4216 -1.5717  1.9288
 8343TIP3    H246445   1.892   3.134  16.902  0.4767 -1.5174 -1.1448
 8344TIP3   OH246446   2.638   5.055   0.111  0.4769 -0.2610  0.4285
 8344TIP3    H146447   2.698   5.093   0.047  0.4374  1.3060  1.2743
 8344TIP3    H246448   2.556   5.103   0.098 -0.6123 -2.2413 -0.5869
 8345TIP3   OH246449   0.989   3.851   5.125  0.2419 -0.0594  0.2514
 8345TIP3    H146450   0.961   3.926   5.074  2.0954  0.3504 -0.2347
 8345TIP3    H246451   1.032   3.888   5.202  0.1476 -0.6407  0.5969
 8346TIP3   OH246452   3.232   5.995   1.369 -1.3050  0.2164  0.3231
 8346TIP3    H146453   3.278   5.934   1.311 -0.4873  1.6229 -0.5420
 8346TIP3    H246454   3.244   6.081   1.329 -0.8730  1.2243  2.4737
 8347TIP3   OH246455   0.803   1.311   3.381 -0.3656  0.5118 -0.3501
 8347TIP3    H146456   0.729   1.338   3.436  0.6313 -0.2899  1.4673
 8347TIP3    H246457   0.871   1.285   3.443  2.2514  3.1375 -1.8419
 8348TIP3   OH246458   4.557   4.548   4.236 -0.6162  0.3872 -0.0564
 8348TIP3    H146459   4.618   4.546   4.309 -0.5878  1.3158 -0.0371
 8348TIP3    H246460   4.545   4.456   4.211  0.0744  0.1341  0.5227
 8349TIP3   OH246461   0.609   3.845  11.326  0.5033 -0.0023 -0.6289
 8349TIP3    H146462   0.646   3.929  11.299 -0.1890  0.0071 -1.6326
 8349TIP3    H246463   0.602   3.850  11.421 -2.2656  2.2806 -0.8355
 8350TIP3   OH246464   0.418   1.485  14.929  0.3982  0.0040  0.2541
 8350TIP3    H146465   0.429   1.418  14.997  1.0038 -0.1834 -0.0187
 8350TIP3    H246466   0.503   1.529  14.926  0.7231 -0.6770 -1.1089
 8351TIP3   OH246467   4.554   2.037  13.046 -0.5751  0.4574 -0.0327
 8351TIP3    H146468   4.616   2.085  12.991  1.3473  0.1571  1.7552
 8351TIP3    H246469   4.560   1.946  13.016  0.7622  0.2247  0.8487
 8352TIP3   OH246470   1.346   2.554  15.806  0.0821  0.1455 -0.5503
 8352TIP3    H146471   1.331   2.472  15.854  2.0489  0.4649  0.7007
 8352TIP3    H246472   1.263   2.571  15.762 -0.8938 -1.6656  0.4666
 8353TIP3   OH246473   5.510   5.819  16.060 -0.1038  0.0775 -0.7726
 8353TIP3    H146474   5.511   5.899  16.112  0.4785 -0.2045 -0.3410
 8353TIP3    H246475   5.595   5.818  16.016  0.3135 -0.8005  0.0089
 8354TIP3   OH246476   2.182   2.939  14.129  0.3551  0.3974  0.3420
 8354TIP3    H146477   2.196   3.000  14.202 -1.1894 -1.8503  2.7075
 8354TIP3    H246478   2.267   2.897  14.115  0.4868  0.2744  1.4479
 8355TIP3   OH246479   5.012   4.848  11.464 -0.5205  0.2879 -0.1129
 8355TIP3    H146480   5.013   4.931  11.417 -0.8029  1.0371  1.1612
 8355TIP3    H246481   4.988   4.871  11.553  0.8095 -0.9809  0.6124
 8356TIP3   OH246482   3.037   6.202  10.835  0.3175  0.1780  0.2277
 8356TIP3    H146483   3.110   6.147  10.807 -0.6709 -0.5996 -0.9198
 8356TIP3    H246484   3.072   6.291  10.832  0.4875  0.1424 -3.1753
 8357TIP3   OH246485   2.338   1.691  10.593 -0.3581  0.7092 -0.1298
 8357TIP3    H146486   2.360   1.769  10.645 -1.0075 -1.9367  4.7094
 8357TIP3    H246487   2.243   1.697  10.581 -0.6907 -0.0585  1.8037
 8358TIP3   OH246488   6.121   3.177   2.273  0.5462 -0.2907 -0.1215
 8358TIP3    H146489   6.153   3.190   2.184  0.9997  1.2988  0.2411
 8358TIP3    H246490   6.089   3.263   2.300 -0.2503 -0.9124  1.0020
 8359TIP3   OH246491   1.158   3.799   3.066  0.4854  0.2354 -0.4691
 8359TIP3    H146492   1.184   3.836   2.981  2.0854 -0.3005 -0.2394
 8359TIP3    H246493   1.075   3.755   3.048  0.8583  0.0278 -1.7951
 8360TIP3   OH246494   5.505   5.603  16.229 -0.4158  0.0909 -0.2850
 8360TIP3    H146495   5.501   5.674  16.164  0.9444  0.9167  0.4773
 8360TIP3    H246496   5.597   5.601  16.255 -0.2700 -2.4708 -0.8073
 8361TIP3   OH246497   3.440   6.165   3.386  0.0634 -0.0265 -0.4573
 8361TIP3    H146498   3.390   6.160   3.305  2.4103  1.7756 -2.1823
 8361TIP3    H246499   3.437   6.258   3.410  1.0768 -0.1785  0.3606
 8362TIP3   OH246500   1.850   2.168  15.187 -0.0607 -0.0079  0.1164
 8362TIP3    H146501   1.809   2.103  15.244  2.7736 -1.2207  0.9512
 8362TIP3    H246502   1.903   2.222  15.245 -0.5195  1.6057 -0.8817
 8363TIP3   OH246503   4.326   3.999  16.470 -0.2666 -0.2736  0.0041
 8363TIP3    H146504   4.363   4.088  16.470  1.5113 -0.9623 -0.3124
 8363TIP3    H246505   4.318   3.977  16.562  0.1380 -0.0939  0.0875
 8364TIP3   OH246506   0.227   3.214  13.099  0.1244 -0.7370 -0.6669
 8364TIP3    H146507   0.174   3.173  13.167  0.4560 -2.4531 -1.3869
 8364TIP3    H246508   0.177   3.203  13.018 -0.1934  1.1360 -0.7819
 8365TIP3   OH246509   4.923   6.417   0.232  0.3634  0.0762 -0.1442
 8365TIP3    H146510   4.892   6.359   0.302 -2.0393  1.4006 -0.0240
 8365TIP3    H246511   4.845   6.465   0.204  1.8105  1.5690 -1.8576
 8366TIP3   OH246512   3.866   2.484  14.975 -0.1337 -0.3004 -0.2667
 8366TIP3    H146513   3.926   2.543  14.928 -0.4698 -0.5084 -0.9696
 8366TIP3    H246514   3.923   2.431  15.030  0.1850  0.6367  0.3411
 8367TIP3   OH246515   0.292   5.096   2.510 -0.1507 -0.0147 -0.2330
 8367TIP3    H146516   0.251   5.173   2.548 -1.0751 -0.8002  0.4302
 8367TIP3    H246517   0.218   5.039   2.486  0.5181 -1.3578  0.7354
 8368TIP3   OH246518   5.609   2.911   2.955 -0.5153 -0.0550 -0.4662
 8368TIP3    H146519   5.562   2.897   2.873 -0.7566 -2.0028 -0.0377
 8368TIP3    H246520   5.565   2.854   3.018 -0.0511  1.0636  0.9314
 8369TIP3   OH246521   0.199   0.343   1.070  0.3351  0.4239 -0.1941
 8369TIP3    H146522   0.169   0.267   1.020  1.0928  1.0046 -1.6088
 8369TIP3    H246523   0.208   0.311   1.160 -2.9235 -0.1637  0.0279
 8370TIP3   OH246524   2.397   6.505  11.822  0.2692 -0.0424 -0.6530
 8370TIP3    H146525   2.441   6.435  11.870  1.6281  0.6875 -0.7774
 8370TIP3    H246526   2.307   6.474  11.810  0.7553 -1.6068 -0.4241
 8371TIP3   OH246527   3.212   4.276  12.704  0.5940 -0.4733 -0.1593
 8371TIP3    H146528   3.165   4.346  12.659  1.1371 -0.0916 -0.1421
 8371TIP3    H246529   3.201   4.296  12.797 -1.1315 -1.6537 -0.0610
 8372TIP3   OH246530   1.643   1.149   4.605  0.1379  0.2054  0.5301
 8372TIP3    H146531   1.676   1.106   4.684  0.5333  0.3474  0.4451
 8372TIP3    H246532   1.722   1.176   4.558 -0.0699 -0.9900 -0.5284
 8373TIP3   OH246533   6.087   4.029   3.582 -0.1437  0.5921 -0.0208
 8373TIP3    H146534   6.029   4.099   3.610 -1.1579  0.5886 -1.9437
 8373TIP3    H246535   6.148   4.070   3.521  2.1980  0.6673  2.2057
 8374TIP3   OH246536   2.270   5.013  16.401  0.1334 -0.0200  0.3865
 8374TIP3    H146537   2.211   5.087  16.411  0.2096  0.1426 -0.3385
 8374TIP3    H246538   2.355   5.052  16.382  0.4407 -0.2617  1.2124
 8375TIP3   OH246539   6.667   1.700   0.761  0.3763  0.2494  0.0060
 8375TIP3    H146540   6.600   1.712   0.694  1.5778 -0.0934 -1.3071
 8375TIP3    H246541   6.704   1.613   0.744  1.3687  0.5515  0.4924
 8376TIP3   OH246542   5.349   0.630   5.528  0.2466  0.4763 -0.1304
 8376TIP3    H146543   5.400   0.701   5.566 -0.3860  1.0495 -0.3489
 8376TIP3    H246544   5.396   0.606   5.448 -0.2244  1.4952 -0.7171
 8377TIP3   OH246545   4.814   4.839   1.155 -0.2297  0.5931 -0.2591
 8377TIP3    H146546   4.842   4.765   1.208  0.8174  0.3953 -1.0605
 8377TIP3    H246547   4.729   4.813   1.119 -0.4879  0.3377  0.5133
 8378TIP3   OH246548   1.496   0.167   0.725 -0.5349 -0.4704  0.1346
 8378TIP3    H146549   1.444   0.086   0.726 -0.3600 -0.6151 -1.1943
 8378TIP3    H246550   1.578   0.142   0.683 -0.1186  0.2003  0.5286
 8379TIP3   OH246551   1.873   4.132   0.805 -0.3167 -0.0793  0.4888
 8379TIP3    H146552   1.824   4.165   0.730  0.0950  0.3250  0.3904
 8379TIP3    H246553   1.838   4.045   0.821 -0.7638  0.0374  0.1482
 8380TIP3   OH246554   2.476   0.427   5.395  0.1806  0.3027  0.2294
 8380TIP3    H146555   2.499   0.435   5.302 -1.4325 -0.1347 -0.2292
 8380TIP3    H246556   2.554   0.390   5.435  0.0933 -1.8178 -1.3833
 8381TIP3   OH246557   6.604   0.971   0.784  0.2327 -0.3542 -0.0071
 8381TIP3    H146558   6.648   1.025   0.850 -1.3982  1.1244 -0.0378
 8381TIP3    H246559   6.548   0.912   0.835 -0.9654  0.7327 -0.0102
 8382TIP3   OH246560   4.655   5.137   1.094 -0.1807 -0.1309 -0.2688
 8382TIP3    H146561   4.748   5.129   1.113  0.0647 -0.4555 -1.5265
 8382TIP3    H246562   4.618   5.051   1.113  0.0747 -0.4727 -1.2699
 8383TIP3   OH246563   5.783   6.745   5.744  0.0417 -0.2629 -0.1415
 8383TIP3    H146564   5.794   6.691   5.666 -0.5034  0.4084 -0.7000
 8383TIP3    H246565   5.872   6.765   5.773  0.2855 -2.2006  0.6304
 8384TIP3   OH246566   1.774   4.017  13.068  0.4079  0.6592 -0.1827
 8384TIP3    H146567   1.700   4.016  13.129 -0.0026  0.3432 -0.6878
 8384TIP3    H246568   1.762   3.940  13.013  2.0572 -0.3807  0.8386
 8385TIP3   OH246569   4.499   1.478  16.600 -0.1513  0.1321 -0.1159
 8385TIP3    H146570   4.542   1.412  16.547 -0.6894 -0.4463  0.1610
 8385TIP3    H246571   4.487   1.552  16.541 -5.1119 -2.0725 -2.4696
 8386TIP3   OH246572   6.655   1.023   2.664  0.8510  0.0859  0.5636
 8386TIP3    H146573   6.586   1.067   2.713  0.1543 -0.2820 -0.0608
 8386TIP3    H246574   6.735   1.040   2.714 -0.0390 -1.6797  2.7681
 8387TIP3   OH246575   0.860   5.135   0.295 -0.0327 -0.2909 -0.3247
 8387TIP3    H146576   0.886   5.051   0.257 -0.5023  0.0278 -1.3791
 8387TIP3    H246577   0.931   5.156   0.356  0.6725 -0.8833 -0.9212
 8388TIP3   OH246578   5.309   1.432   0.598  0.9075  0.1256  0.2597
 8388TIP3    H146579   5.250   1.459   0.527 -0.3165 -1.5687  0.5782
 8388TIP3    H246580   5.266   1.464   0.678  0.4438 -1.0413  0.4874
 8389TIP3   OH246581   2.032   6.383  15.998  0.2760  0.5116  0.0952
 8389TIP3    H146582   2.103   6.436  16.035  0.8348  0.4630 -0.8660
 8389TIP3    H246583   1.965   6.380  16.067  0.4505  2.0294  0.3538
 8390TIP3   OH246584   0.822   6.127  11.428 -0.4115 -0.5188  0.4027
 8390TIP3    H146585   0.811   6.084  11.513  0.3891 -1.4321  0.0701
 8390TIP3    H246586   0.897   6.081  11.388  1.1217  1.8190  0.4137
 8391TIP3   OH246587   4.149   1.073   1.415  0.0450  0.3655 -0.1411
 8391TIP3    H146588   4.167   0.980   1.430  0.4967 -0.2189 -3.6089
 8391TIP3    H246589   4.155   1.113   1.503 -0.7484 -2.9036  1.5365
 8392TIP3   OH246590   5.638   6.685  13.661  0.6111  0.7240 -0.6747
 8392TIP3    H146591   5.686   6.763  13.634  1.3725  0.1901 -0.9248
 8392TIP3    H246592   5.593   6.710  13.741  0.9648  1.3708 -0.6706
 8393TIP3   OH246593   5.273   0.857   4.536  0.0333  0.4996 -0.1868
 8393TIP3    H146594   5.294   0.900   4.619  1.8814 -0.4117 -0.1324
 8393TIP3    H246595   5.269   0.929   4.472  0.9634  0.9780  0.2730
 8394TIP3   OH246596   0.473   4.187  11.880 -0.4834  0.2994  0.0728
 8394TIP3    H146597   0.410   4.256  11.857 -0.8036  0.3383  0.9869
 8394TIP3    H246598   0.558   4.226  11.860 -0.7497 -0.4242 -2.9122
 8395TIP3   OH246599   4.443   1.370   2.119  0.0441 -0.2384 -0.0063
 8395TIP3    H146600   4.416   1.311   2.190  0.3210 -0.2119  0.1219
 8395TIP3    H246601   4.424   1.321   2.039  1.5572 -1.0857  0.1197
 8396TIP3   OH246602   6.662   5.318   3.917  0.9845  0.4213 -0.0963
 8396TIP3    H146603   6.656   5.412   3.901  1.9248  0.5798  0.4182
 8396TIP3    H246604   6.588   5.298   3.975  0.3100  0.6886 -0.8612
 8397TIP3   OH246605   4.284   4.378   2.824  0.6445  0.5243  0.5513
 8397TIP3    H146606   4.304   4.384   2.730 -2.4654 -0.6069 -0.3261
 8397TIP3    H246607   4.368   4.358   2.865  1.5552 -3.2704 -2.5353
 8398TIP3   OH246608   4.422   2.567  16.860 -0.2919 -0.6700  0.0663
 8398TIP3    H146609   4.482   2.572  16.786 -0.3366  1.4360  0.0947
 8398TIP3    H246610   4.478   2.580  16.937 -0.5666 -0.2743  0.2033
 8399TIP3   OH246611   4.118   4.587   2.851  0.0046 -0.1530 -0.0805
 8399TIP3    H146612   4.164   4.505   2.868 -1.2130 -1.4189 -2.3554
 8399TIP3    H246613   4.163   4.625   2.775  0.0521  0.8893  0.4501
 8400TIP3   OH246614   3.435   2.328   1.472 -0.2629 -0.8043 -0.1367
 8400TIP3    H146615   3.347   2.309   1.438 -0.9656  2.4127 -0.4080
 8400TIP3    H246616   3.420   2.357   1.562  0.4340  0.2835 -0.3585
 8401TIP3   OH246617   2.428   2.901  15.834 -0.5827 -0.3168  0.1584
 8401TIP3    H146618   2.472   2.827  15.874  0.4338  0.3859  0.3874
 8401TIP3    H246619   2.379   2.864  15.761  0.3520 -1.1282 -0.0689
 8402TIP3   OH246620   5.059   5.365  16.617 -0.5479 -0.4476 -0.1676
 8402TIP3    H146621   5.030   5.449  16.581  1.9418 -0.3656 -2.2143
 8402TIP3    H246622   5.135   5.387  16.670 -1.5094 -1.1534  1.5857
 8403TIP3   OH246623   2.758   2.158  16.504 -0.0541 -0.1544  0.4405
 8403TIP3    H146624   2.801   2.224  16.559 -1.5844  1.2973 -0.0108
 8403TIP3    H246625   2.709   2.104  16.566  2.0243 -1.5842  0.9176
 8404TIP3   OH246626   6.227   0.483   4.426  0.4104  0.2249  0.0059
 8404TIP3    H146627   6.316   0.514   4.441  0.9256 -1.5787  0.8722
 8404TIP3    H246628   6.237   0.405   4.371 -0.8000  1.0528 -1.5004
 8405TIP3   OH246629   1.877   0.717  15.280 -0.3080  0.5897 -0.3311
 8405TIP3    H146630   1.964   0.720  15.239 -0.2132 -0.1575 -0.1956
 8405TIP3    H246631   1.892   0.752  15.368  0.0613 -0.4081  0.0224
 8406TIP3   OH246632   2.191   1.884  12.446  0.2277  0.2204 -0.1411
 8406TIP3    H146633   2.235   1.953  12.396  1.3101 -1.4273 -1.5842
 8406TIP3    H246634   2.261   1.826  12.474 -0.7819 -1.2326 -0.4824
 8407TIP3   OH246635   5.890   0.436   1.472 -0.1074  0.3036  0.0359
 8407TIP3    H146636   5.796   0.451   1.459  0.0210  0.3430 -0.9156
 8407TIP3    H246637   5.930   0.522   1.455  0.2725 -0.1543 -1.5432
 8408TIP3   OH246638   0.147   4.202   4.079 -0.1663 -0.5602 -0.2995
 8408TIP3    H146639   0.102   4.252   4.012 -0.0627  1.0617  0.7907
 8408TIP3    H246640   0.105   4.116   4.077 -0.9048 -0.1928 -1.6750
 8409TIP3   OH246641   5.139   6.551   3.813  0.0320  0.1418 -0.5982
 8409TIP3    H146642   5.046   6.557   3.838  0.2870 -1.3814  0.8889
 8409TIP3    H246643   5.180   6.625   3.857 -0.3424  0.3172 -0.5370
 8410TIP3   OH246644   2.206   5.690   0.522 -0.4503 -0.0038  0.0935
 8410TIP3    H146645   2.127   5.652   0.482 -0.0976 -0.7653  0.1144
 8410TIP3    H246646   2.270   5.692   0.451 -0.3943  0.3722  0.1497
 8411TIP3   OH246647   4.152   0.393  17.173 -0.4288 -0.3949 -0.4179
 8411TIP3    H146648   4.196   0.471  17.140  2.2373 -1.4233  0.4538
 8411TIP3    H246649   4.168   0.326  17.106 -0.4042 -0.8673  0.0513
 8412TIP3   OH246650   0.935   4.602  16.725 -0.3964 -0.2751  0.2295
 8412TIP3    H146651   1.013   4.596  16.781 -0.6936  0.7946  0.7819
 8412TIP3    H246652   0.902   4.513  16.721  1.4282 -0.9656 -0.8537
 8413TIP3   OH246653   3.222   5.093  16.427  0.7882  0.1778 -0.0607
 8413TIP3    H146654   3.182   5.020  16.378  0.1222  0.3652  0.1987
 8413TIP3    H246655   3.174   5.096  16.510 -0.6000  2.1937 -0.8571
 8414TIP3   OH246656   2.283   6.135   0.474 -0.2279  1.1937  0.4017
 8414TIP3    H146657   2.343   6.111   0.544 -0.2997  2.1612  0.8037
 8414TIP3    H246658   2.276   6.230   0.478 -0.8269  1.2060 -0.4326
 8415TIP3   OH246659   0.264   4.339  14.026  0.3353 -0.1239  0.2549
 8415TIP3    H146660   0.358   4.339  14.042  0.3517  1.2765  0.2389
 8415TIP3    H246661   0.238   4.430  14.035 -0.6358 -0.1152 -1.9732
 8416TIP3   OH246662   0.621   1.467   2.342 -0.0263 -0.3124 -0.3244
 8416TIP3    H146663   0.703   1.443   2.385 -0.3233 -2.6895 -0.9706
 8416TIP3    H246664   0.647   1.527   2.272  0.7958  1.1643  1.1638
 8417TIP3   OH246665   1.200   0.994   2.475 -0.5419  0.1536 -0.5703
 8417TIP3    H146666   1.181   0.996   2.569 -0.2734  3.0722 -0.4767
 8417TIP3    H246667   1.114   0.981   2.434 -0.9461  0.6971  0.0734
 8418TIP3   OH246668   5.858   1.291   2.157  0.0692  0.6947 -0.1030
 8418TIP3    H146669   5.777   1.318   2.200 -0.7369  0.1149 -1.2125
 8418TIP3    H246670   5.848   1.196   2.146  0.9377  0.6044 -0.2021
 8419TIP3   OH246671   6.206   6.699   6.230  0.2097 -0.1764 -0.9324
 8419TIP3    H146672   6.302   6.706   6.227  0.5309 -2.1624  1.3829
 8419TIP3    H246673   6.188   6.655   6.313 -2.9815  3.5528  0.6605
 8420TIP3   OH246674   2.868   5.534  11.540  0.4994  0.4173 -0.0949
 8420TIP3    H146675   2.905   5.470  11.600  2.4215 -0.3125 -1.9123
 8420TIP3    H246676   2.910   5.617  11.564  0.0749  0.4586  0.5275
 8421TIP3   OH246677   1.255   5.787  14.698 -0.0782  0.1066  0.6924
 8421TIP3    H146678   1.178   5.729  14.696 -0.5103  0.6889  0.1482
 8421TIP3    H246679   1.238   5.852  14.630  0.6649  0.5444  0.9160
 8422TIP3   OH246680   6.707   4.690  14.362 -0.7000 -0.1060 -0.0663
 8422TIP3    H146681   6.801   4.680  14.374 -0.9788 -1.4107  1.3752
 8422TIP3    H246682   6.681   4.617  14.307 -0.7212  0.9444 -1.4921
 8423TIP3   OH246683   3.217   2.952  17.022 -0.7962 -0.2258 -0.4025
 8423TIP3    H146684   3.150   2.892  16.989 -0.6533  0.1158 -1.3526
 8423TIP3    H246685   3.166   3.023  17.063 -1.0438  0.1894 -1.3945
 8424TIP3   OH246686   0.447   1.074   4.609 -0.4494 -0.0658  0.3516
 8424TIP3    H146687   0.505   1.035   4.544 -0.0899 -0.3686  0.8490
 8424TIP3    H246688   0.394   1.001   4.641 -0.1271 -0.0522  0.9190
 8425TIP3   OH246689   1.953   2.783  14.356 -0.0836  0.4117  0.1986
 8425TIP3    H146690   2.036   2.754  14.319 -0.1534 -0.4792  0.6962
 8425TIP3    H246691   1.924   2.854  14.299  0.2815 -0.2789 -0.8743
 8426TIP3   OH246692   5.817   4.004  16.011  0.7065  0.1514 -0.3206
 8426TIP3    H146693   5.778   3.921  15.984 -0.9628  0.8038 -0.0140
 8426TIP3    H246694   5.854   3.986  16.097  2.1281 -0.7617 -1.0771
 8427TIP3   OH246695   4.011   4.412   6.323 -0.3055  0.7150  0.2356
 8427TIP3    H146696   3.921   4.419   6.293 -0.2233 -1.0019 -0.5204
 8427TIP3    H246697   4.049   4.498   6.306 -1.5910  1.2468 -0.0756
 8428TIP3   OH246698   4.184   0.176   1.519  0.0447 -0.0475  0.9266
 8428TIP3    H146699   4.208   0.181   1.426 -1.5602 -1.9421  0.3437
 8428TIP3    H246700   4.100   0.222   1.524  1.1264  1.9785  1.9405
 8429TIP3   OH246701   0.548   1.383   2.005 -0.3177  0.1901  0.0797
 8429TIP3    H146702   0.561   1.290   2.023 -3.1895 -0.0268  1.6032
 8429TIP3    H246703   0.604   1.428   2.068  1.1470 -0.4510 -0.7151
 8430TIP3   OH246704   1.756   0.879   2.686  0.4194 -0.6950 -0.6399
 8430TIP3    H146705   1.852   0.877   2.678  0.4287 -0.9301 -0.4797
 8430TIP3    H246706   1.726   0.817   2.619  0.3570 -0.2638 -1.0149
 8431TIP3   OH246707   6.214   0.305   0.005  0.4186 -0.0345 -0.2555
 8431TIP3    H146708   6.239   0.394   0.029  2.8681 -1.0447  1.4112
 8431TIP3    H246709   6.232   0.300  -0.089  2.5606  0.6132  0.0643
 8432TIP3   OH246710   2.937   2.612  16.260  0.3362 -0.7948  0.4053
 8432TIP3    H146711   2.998   2.550  16.221 -0.7849 -1.7749  0.1439
 8432TIP3    H246712   2.891   2.563  16.328 -0.1693 -0.0900  0.5914
 8433TIP3   OH246713   5.345   2.010  16.256 -0.0842  0.4246 -0.2603
 8433TIP3    H146714   5.389   1.931  16.289 -0.5202 -0.4835 -1.7539
 8433TIP3    H246715   5.407   2.081  16.273  0.1490 -0.1459  1.4905
 8434TIP3   OH246716   4.665   2.113   4.488  0.5360 -0.3545 -0.7509
 8434TIP3    H146717   4.631   2.195   4.525  2.5670 -0.3025  1.2253
 8434TIP3    H246718   4.615   2.045   4.533 -0.1304 -0.2565 -1.3152
 8435TIP3   OH246719   5.733   2.099   4.503 -0.3616  0.4472  0.1916
 8435TIP3    H146720   5.665   2.032   4.506 -1.9387  1.9779  0.8651
 8435TIP3    H246721   5.732   2.130   4.412 -1.0377  0.8787  0.3347
 8436TIP3   OH246722   1.049   2.505  11.986  0.1937 -0.7010  0.2773
 8436TIP3    H146723   0.978   2.441  11.985 -0.7216  0.2650  0.8989
 8436TIP3    H246724   1.098   2.488  11.905 -0.2018 -1.9645  0.2790
 8437TIP3   OH246725   4.756   5.682   2.524  0.0731 -0.4528 -0.9704
 8437TIP3    H146726   4.693   5.724   2.466 -0.3766  0.7032  0.2881
 8437TIP3    H246727   4.702   5.634   2.587  0.4360  0.1704 -0.1605
 8438TIP3   OH246728   2.417   6.688  13.666 -0.5800 -0.1927  0.4196
 8438TIP3    H146729   2.405   6.666  13.758  0.8754 -0.3716  0.5973
 8438TIP3    H246730   2.459   6.610  13.628  1.4070  0.8802  0.2620
 8439TIP3   OH246731   0.169   4.473  10.828  0.5991  0.5319  0.3290
 8439TIP3    H146732   0.220   4.402  10.788 -1.2094 -0.0786 -1.0435
 8439TIP3    H246733   0.201   4.552  10.786  0.9109  0.2358 -0.0028
 8440TIP3   OH246734   1.445   0.255   3.234 -0.7550  0.5743 -0.0603
 8440TIP3    H146735   1.540   0.254   3.247 -0.9009  0.0399  1.0779
 8440TIP3    H246736   1.430   0.327   3.173  0.4242  0.3555 -0.6290
 8441TIP3   OH246737   3.147   1.656   0.640  0.0951  0.3984  0.0233
 8441TIP3    H146738   3.196   1.650   0.558  0.1948  1.5585 -0.0174
 8441TIP3    H246739   3.113   1.745   0.641  1.4128  0.9471  1.9752
 8442TIP3   OH246740   1.122   5.356  14.750  0.2703  0.4058 -0.6285
 8442TIP3    H146741   1.121   5.433  14.693  0.1891  1.1598  0.3550
 8442TIP3    H246742   1.050   5.372  14.812  0.6376 -0.1661 -0.0458
 8443TIP3   OH246743   2.440   5.776   1.868  0.3891 -0.3529 -0.7270
 8443TIP3    H146744   2.373   5.714   1.840  0.8197 -0.5661 -1.3071
 8443TIP3    H246745   2.444   5.841   1.797  0.9211 -0.4482 -0.7882
 8444TIP3   OH246746   6.353   1.712  13.973  0.0957  0.6019 -0.5493
 8444TIP3    H146747   6.322   1.782  13.916 -0.4159  0.4796 -0.4298
 8444TIP3    H246748   6.274   1.681  14.017  0.3316  0.0180 -0.5280
 8445TIP3   OH246749   1.741   3.697   2.092  0.7115  0.2596  0.1709
 8445TIP3    H146750   1.663   3.668   2.045 -0.0754  0.2949  1.4084
 8445TIP3    H246751   1.800   3.728   2.023  0.0215 -0.6435 -0.8614
 8446TIP3   OH246752   4.916   2.802   6.034 -0.3562  0.5986 -0.1366
 8446TIP3    H146753   4.904   2.887   6.077  1.0436  1.2672 -0.9975
 8446TIP3    H246754   5.011   2.793   6.024 -0.4247 -1.4174  0.5811
 8447TIP3   OH246755   3.316   5.302   1.170  0.6123  0.4147 -0.0652
 8447TIP3    H146756   3.404   5.269   1.157  1.3029  2.2259 -0.3031
 8447TIP3    H246757   3.261   5.249   1.112  0.9272 -2.9577  2.4457
 8448TIP3   OH246758   3.873   0.881   4.442 -0.0477 -0.0585 -0.1184
 8448TIP3    H146759   3.858   0.909   4.352 -0.6395 -0.5864 -0.1920
 8448TIP3    H246760   3.833   0.794   4.447  1.3007 -0.6960  0.2330
 8449TIP3   OH246761   3.728   5.201   5.357 -0.2846  0.2259  0.0433
 8449TIP3    H146762   3.754   5.120   5.400 -0.7105  0.4156  0.6653
 8449TIP3    H246763   3.680   5.250   5.423 -0.5968  0.7046 -0.5199
 8450TIP3   OH246764   5.409   3.317  12.255  0.4430 -0.3430  0.3377
 8450TIP3    H146765   5.424   3.228  12.287 -1.9498 -0.2133  2.1013
 8450TIP3    H246766   5.314   3.322  12.242  0.4859  2.0264  0.5261
 8451TIP3   OH246767   6.727   3.679  12.642  0.1874  0.3316 -0.1660
 8451TIP3    H146768   6.764   3.767  12.645  0.6966  0.1587 -0.9258
 8451TIP3    H246769   6.802   3.622  12.659 -0.0045  0.0289 -0.3286
 8452TIP3   OH246770   5.102   1.520   3.185 -0.0254 -0.1694 -0.9116
 8452TIP3    H146771   5.120   1.585   3.117  0.1670  2.0131  1.0935
 8452TIP3    H246772   5.180   1.465   3.188  1.5829  2.0098 -0.0555
 8453TIP3   OH246773   4.158   3.342  14.620  0.1802  0.2354  0.0532
 8453TIP3    H146774   4.160   3.256  14.662 -0.9922  0.3692  0.4227
 8453TIP3    H246775   4.176   3.404  14.690  0.4380  0.3294 -0.0935
 8454TIP3   OH246776   0.848   4.806  16.888 -0.2963  0.1364  0.1200
 8454TIP3    H146777   0.850   4.715  16.858 -0.3069  0.6689 -1.6141
 8454TIP3    H246778   0.940   4.830  16.900 -0.3464 -0.6324  2.4186
 8455TIP3   OH246779   5.159   2.781   0.317 -0.0966 -0.0385 -0.6443
 8455TIP3    H146780   5.078   2.831   0.304 -0.7216 -0.9350 -0.2901
 8455TIP3    H246781   5.213   2.837   0.372 -1.7777 -0.7229  1.8522
 8456TIP3   OH246782   6.769   3.345   3.039  0.3057 -0.3056  0.5336
 8456TIP3    H146783   6.730   3.282   3.099  0.9773 -0.4164  0.8704
 8456TIP3    H246784   6.703   3.359   2.971 -0.1236 -0.8300  0.8406
 8457TIP3   OH246785   2.483   5.526   3.215  0.1663 -0.5110 -0.2429
 8457TIP3    H146786   2.523   5.559   3.134  0.8114 -1.7796 -0.4738
 8457TIP3    H246787   2.402   5.576   3.224  1.0279  1.0160 -0.6182
 8458TIP3   OH246788   3.266   1.406  13.345  0.1958  0.3443 -0.2914
 8458TIP3    H146789   3.279   1.445  13.259 -1.3898  1.4505 -0.0869
 8458TIP3    H246790   3.285   1.313  13.333 -0.2374  0.4312 -1.8973
 8459TIP3   OH246791   4.149   2.456   1.236 -0.3640  0.2999 -0.1720
 8459TIP3    H146792   4.094   2.412   1.301  1.2556 -0.6520  0.5977
 8459TIP3    H246793   4.102   2.537   1.217 -1.6780 -0.1436  0.9806
 8460TIP3   OH246794   3.682   2.565   6.123  0.7851 -0.1641 -0.3954
 8460TIP3    H146795   3.624   2.547   6.196  2.2158 -1.6048  0.4396
 8460TIP3    H246796   3.755   2.613   6.161  1.1104 -0.1177 -1.0557
 8461TIP3   OH246797   1.366   4.937   3.360 -0.4214  0.2744  0.5774
 8461TIP3    H146798   1.361   5.031   3.344  1.1461  0.5677  1.5460
 8461TIP3    H246799   1.459   4.916   3.351 -0.5313 -0.8920  1.8427
 8462TIP3   OH246800   5.315   3.587   6.597  0.2096  0.5716 -0.2188
 8462TIP3    H146801   5.225   3.597   6.564  0.4666  0.7520 -0.8773
 8462TIP3    H246802   5.320   3.495   6.622 -0.7175  0.9600  1.5301
 8463TIP3   OH246803   0.959   3.656  13.361 -0.0940  0.2986 -0.1281
 8463TIP3    H146804   0.910   3.739  13.353 -0.0776  0.3402  0.1787
 8463TIP3    H246805   1.045   3.683  13.394  0.4820  0.3289 -1.6127
 8464TIP3   OH246806   2.806   6.687   2.134 -0.0625 -0.2552 -0.2894
 8464TIP3    H146807   2.758   6.769   2.122  0.4674 -0.0819 -1.2847
 8464TIP3    H246808   2.816   6.651   2.046  1.4725 -0.3773 -0.0900
 8465TIP3   OH246809   4.955   0.620   3.969 -0.4135  0.0188  0.0494
 8465TIP3    H146810   5.021   0.552   3.983  0.2463  0.3801 -1.1713
 8465TIP3    H246811   4.982   0.692   4.026 -0.6493 -0.4244  0.7261
 8466TIP3   OH246812   5.769   1.013  15.467  0.1761  0.1611  0.0560
 8466TIP3    H146813   5.686   0.973  15.495 -0.3235  1.3525  0.3337
 8466TIP3    H246814   5.836   0.966  15.517 -0.3333 -0.7400 -0.0857
 8467TIP3   OH246815   2.329   0.225  16.264 -0.3108 -1.0841  0.5231
 8467TIP3    H146816   2.349   0.201  16.173 -0.6896  0.4187  0.0150
 8467TIP3    H246817   2.234   0.210  16.272 -0.2980 -1.1020  0.6413
 8468TIP3   OH246818   6.159   4.288   1.773  0.0106  0.1602 -0.0343
 8468TIP3    H146819   6.216   4.214   1.795  0.6808  0.2774 -1.2750
 8468TIP3    H246820   6.166   4.296   1.678 -1.6089  0.5804 -0.1530
 8469TIP3   OH246821   0.666   1.752  16.817 -0.4955  0.6871  0.3816
 8469TIP3    H146822   0.717   1.672  16.810 -1.1592  0.3662 -1.3138
 8469TIP3    H246823   0.605   1.736  16.889 -0.1935 -0.0880  0.4706
 8470TIP3   OH246824   0.941   5.683   1.599 -0.2553  0.3882  0.6043
 8470TIP3    H146825   0.870   5.643   1.549  2.6684 -1.9708 -2.1324
 8470TIP3    H246826   0.930   5.650   1.688 -0.8254 -2.6631 -0.4612
 8471TIP3   OH246827   4.539   2.876  14.729  0.1886  0.3753 -0.6543
 8471TIP3    H146828   4.614   2.893  14.787  0.9934  2.2530 -2.1509
 8471TIP3    H246829   4.515   2.962  14.696 -2.2411 -0.2937 -0.7538
 8472TIP3   OH246830   2.068   5.960   4.800 -0.3693 -0.1370 -0.0163
 8472TIP3    H146831   2.000   5.935   4.862  0.8276 -2.7128  0.3999
 8472TIP3    H246832   2.119   5.880   4.786  1.0888  1.0512 -2.2149
 8473TIP3   OH246833   2.162   0.143  13.117 -0.5871  0.3166 -0.5047
 8473TIP3    H146834   2.147   0.235  13.096 -0.8832  0.3766 -0.0420
 8473TIP3    H246835   2.241   0.120  13.068 -0.8242  0.6640 -1.0566
 8474TIP3   OH246836   1.000   3.819   1.143 -0.0220  0.6685 -0.3643
 8474TIP3    H146837   0.946   3.770   1.080 -2.7215  2.9776 -0.0397
 8474TIP3    H246838   1.081   3.769   1.149 -1.8546 -2.7453 -1.3703
 8475TIP3   OH246839   5.573   6.129  13.147 -0.4385  0.7121  0.0478
 8475TIP3    H146840   5.512   6.199  13.126 -0.4806  1.0513  1.2217
 8475TIP3    H246841   5.630   6.166  13.214 -0.6168 -0.4331  0.8685
 8476TIP3   OH246842   2.236   0.086   0.015  0.0624  0.5389 -0.3239
 8476TIP3    H146843   2.206   0.096  -0.075 -1.4252 -0.8718 -0.0388
 8476TIP3    H246844   2.190   0.154   0.064 -1.7324 -0.7337 -0.1299
 8477TIP3   OH246845   3.191   1.967   4.292  0.0532 -0.1725 -0.0780
 8477TIP3    H146846   3.169   1.882   4.331 -1.3358 -0.3082 -1.0574
 8477TIP3    H246847   3.109   2.016   4.293  0.5322  0.6675 -0.7119
 8478TIP3   OH246848   6.534   0.343   2.422  0.2759 -0.4916  0.2863
 8478TIP3    H146849   6.550   0.304   2.337 -0.6959  1.1351 -0.6822
 8478TIP3    H246850   6.441   0.331   2.438  0.4386 -0.7512  1.1304
 8479TIP3   OH246851   5.951   3.041   2.517  0.5682 -1.2740  0.0815
 8479TIP3    H146852   5.917   2.952   2.531 -0.9494 -0.3776  2.7786
 8479TIP3    H246853   5.897   3.076   2.446 -0.3428 -1.7810  0.5017
 8480TIP3   OH246854   0.305   4.568  16.835  0.3351 -0.3887  0.1586
 8480TIP3    H146855   0.221   4.613  16.840 -0.1054 -1.2449  0.8021
 8480TIP3    H246856   0.368   4.637  16.814 -0.3492  0.4871  0.8659
 8481TIP3   OH246857   5.851   5.105   3.024 -0.0905 -0.3152 -0.3900
 8481TIP3    H146858   5.788   5.036   3.004 -0.6293 -0.1975  0.8434
 8481TIP3    H246859   5.801   5.171   3.072  0.8829 -0.0710  0.3281
 8482TIP3   OH246860   2.323   5.029  15.382  0.5861  0.3598  0.2902
 8482TIP3    H146861   2.376   4.973  15.439 -0.7238 -0.7284  0.4883
 8482TIP3    H246862   2.346   5.001  15.293  0.0789 -0.3809  0.3842
 8483TIP3   OH246863   4.288   4.328  15.128 -0.6331 -0.3593  0.3493
 8483TIP3    H146864   4.311   4.419  15.113 -0.8999 -0.4912 -1.0282
 8483TIP3    H246865   4.202   4.331  15.170  0.0764  0.0404  1.8226
 8484TIP3   OH246866   0.363   0.115  12.804  0.6812  0.0601 -0.6950
 8484TIP3    H146867   0.292   0.112  12.740  1.2332 -0.3603 -1.3086
 8484TIP3    H246868   0.391   0.023  12.813  0.3094  0.0425  0.5042
 8485TIP3   OH246869   6.348   2.120  11.936  0.3518  0.3490  0.5702
 8485TIP3    H146870   6.277   2.181  11.917  0.8395  0.5679 -0.6585
 8485TIP3    H246871   6.428   2.171  11.923  0.7517 -0.1498  1.0025
 8486TIP3   OH246872   4.234   4.782   4.913 -0.0388  0.3375 -0.3093
 8486TIP3    H146873   4.169   4.767   4.982 -0.1810 -1.5486 -0.7828
 8486TIP3    H246874   4.206   4.863   4.871 -0.7099  0.8197  0.9934
 8487TIP3   OH246875   5.081   2.076  14.863  0.1906 -0.2404 -0.0507
 8487TIP3    H146876   5.100   1.983  14.858  0.4015 -0.1694 -0.7611
 8487TIP3    H246877   5.166   2.118  14.880 -0.0444 -0.2350  1.1908
 8488TIP3   OH246878   0.448   0.671   5.171  0.0164 -0.3876 -0.3091
 8488TIP3    H146879   0.467   0.579   5.154  1.0283 -0.1577 -0.5160
 8488TIP3    H246880   0.353   0.678   5.163 -0.4894 -2.0257  2.7121
 8489TIP3   OH246881   3.903   4.203  14.286 -0.3685 -0.4389 -0.2163
 8489TIP3    H146882   3.828   4.212  14.227  2.4502  2.6345 -3.9042
 8489TIP3    H246883   3.914   4.290  14.323  0.0388 -1.4568  2.2002
 8490TIP3   OH246884   2.074   5.578   1.881 -0.6507 -0.3774 -0.1560
 8490TIP3    H146885   2.116   5.651   1.835 -0.2645 -0.1391  0.5530
 8490TIP3    H246886   1.984   5.606   1.895 -0.0429  0.8405  1.8240
 8491TIP3   OH246887   5.783   3.807  13.870 -0.0194 -0.0270 -0.0108
 8491TIP3    H146888   5.850   3.864  13.906  0.3345 -0.1675 -0.4281
 8491TIP3    H246889   5.797   3.811  13.775  0.7200 -1.6246 -0.0109
 8492TIP3   OH246890   4.876   0.393   5.264  0.1493 -0.5776 -0.0145
 8492TIP3    H146891   4.919   0.460   5.317 -3.4293  1.4117  0.7079
 8492TIP3    H246892   4.839   0.332   5.327 -1.4932  0.0874 -0.2552
 8493TIP3   OH246893   5.860   1.641  12.229  0.2648 -0.2335 -0.4852
 8493TIP3    H146894   5.774   1.667  12.198 -0.5715 -1.3613  0.7762
 8493TIP3    H246895   5.847   1.555  12.268  1.7939 -0.0863  0.4507
 8494TIP3   OH246896   5.429   4.973   1.097 -0.0530 -0.4140 -0.1723
 8494TIP3    H146897   5.460   4.976   1.188 -0.6277  1.0633  0.0152
 8494TIP3    H246898   5.380   4.891   1.091  3.0853 -2.4575 -0.2631
 8495TIP3   OH246899   2.047   4.109  14.121 -0.0247  0.3053 -0.3035
 8495TIP3    H146900   2.030   4.125  14.028  1.7247  0.3826 -0.6564
 8495TIP3    H246901   2.096   4.186  14.150 -2.1622  1.1872  1.2292
 8496TIP3   OH246902   2.117   3.106  17.185  0.1273 -0.4280  0.3755
 8496TIP3    H146903   2.180   3.041  17.154 -0.7694 -0.7227 -0.9072
 8496TIP3    H246904   2.130   3.182  17.128 -0.5864 -0.4454  0.1830
 8497TIP3   OH246905   1.822   3.378   5.259  0.0907  0.6287  0.5651
 8497TIP3    H146906   1.758   3.313   5.230 -0.9867  1.8306  0.0965
 8497TIP3    H246907   1.866   3.338   5.333 -0.7218 -0.5272  0.4483
 8498TIP3   OH246908   0.280   4.905   4.871  0.4745  0.2917 -0.4128
 8498TIP3    H146909   0.326   4.835   4.916  1.0515  1.5641  1.0929
 8498TIP3    H246910   0.253   4.964   4.941  1.0722  2.1746 -1.6792
 8499TIP3   OH246911   4.620   1.704  14.174  0.0759 -0.5614  0.1596
 8499TIP3    H146912   4.677   1.627  14.166 -0.4632 -0.8184 -1.6426
 8499TIP3    H246913   4.559   1.681  14.244 -0.2501 -1.9321 -0.5230
 8500TIP3   OH246914   1.230   5.898   2.666 -0.1694 -0.2716 -0.6687
 8500TIP3    H146915   1.149   5.898   2.716  0.2194  1.0676 -0.0047
 8500TIP3    H246916   1.268   5.811   2.682  0.2255  0.3006  1.9006
 8501TIP3   OH246917   1.112   3.370  11.923  0.5437  0.6856 -0.3522
 8501TIP3    H146918   1.170   3.294  11.932  1.0418  1.2847  2.1460
 8501TIP3    H246919   1.025   3.332  11.912  0.9219 -0.2508 -0.2434
 8502TIP3   OH246920   6.682   6.364  11.965 -0.4549  0.7663  0.0093
 8502TIP3    H146921   6.589   6.385  11.970  0.0757  3.3703  0.5293
 8502TIP3    H246922   6.690   6.309  11.887 -2.4430  0.1678  0.1569
 8503TIP3   OH246923   5.966   3.397  14.357 -0.8643 -0.2617 -0.0188
 8503TIP3    H146924   6.040   3.337  14.352  0.1208  0.9978 -2.2619
 8503TIP3    H246925   5.889   3.341  14.356  0.0354 -1.5360 -0.9971
 8504TIP3   OH246926   1.207   4.100  16.181 -0.4998  0.4496 -0.3271
 8504TIP3    H146927   1.167   4.030  16.130  0.6489 -0.3510 -0.1882
 8504TIP3    H246928   1.143   4.171  16.180 -1.2638 -0.2269 -1.3278
 8505TIP3   OH246929   6.294   2.805  12.074  0.4279 -0.0209 -0.1782
 8505TIP3    H146930   6.282   2.894  12.043 -0.8150 -0.5982 -1.5097
 8505TIP3    H246931   6.205   2.777  12.100  0.6617 -1.0988 -0.4815
 8506TIP3   OH246932   1.589   4.357  11.945 -0.1197 -0.5936  0.0178
 8506TIP3    H146933   1.667   4.328  11.898 -0.7641 -4.6912  1.1498
 8506TIP3    H246934   1.519   4.357  11.879  0.1175 -0.3678 -0.2378
 8507TIP3   OH246935   6.412   0.891   3.233  0.0894 -0.6938  0.4967
 8507TIP3    H146936   6.320   0.866   3.238  0.3127 -1.9730 -0.9641
 8507TIP3    H246937   6.424   0.920   3.143  0.8056  0.8702  1.0668
 8508TIP3   OH246938   4.032   4.901  13.850 -0.1328 -0.4158 -0.4325
 8508TIP3    H146939   3.963   4.947  13.897 -2.3087 -3.4742 -0.2770
 8508TIP3    H246940   4.111   4.916  13.901 -1.0781  1.5155  0.5698
 8509TIP3   OH246941   4.664   4.163  11.229 -0.3039  0.8330 -0.5146
 8509TIP3    H146942   4.587   4.182  11.282 -0.1726 -0.5318  0.2062
 8509TIP3    H246943   4.725   4.121  11.289 -0.0649 -0.5700 -1.6732
 8510TIP3   OH246944   0.603   4.798  14.820 -0.1092 -0.4764 -0.2832
 8510TIP3    H146945   0.627   4.890  14.813 -0.3820 -0.3716  0.1552
 8510TIP3    H246946   0.686   4.753  14.837 -0.0290 -0.2757 -0.1437
 8511TIP3   OH246947   5.805   0.830  14.757 -0.3598  0.0777  0.1013
 8511TIP3    H146948   5.765   0.765  14.816 -2.6294  1.3312  0.0886
 8511TIP3    H246949   5.881   0.861  14.805 -1.1539 -0.1893  1.6350
 8512TIP3   OH246950   1.448   0.751  15.022  0.1499 -0.0462 -0.3582
 8512TIP3    H146951   1.510   0.800  15.076 -0.9112  0.2330  0.6330
 8512TIP3    H246952   1.436   0.668  15.067 -0.4038  0.0159 -0.3755
 8513TIP3   OH246953   4.630   2.568  15.329  0.6452  0.5488 -0.0074
 8513TIP3    H146954   4.611   2.509  15.401  0.3981  0.6613  0.0199
 8513TIP3    H246955   4.607   2.519  15.250 -0.4307  0.9301  0.0558
 8514TIP3   OH246956   4.748   1.010   1.490  0.3687  0.1312  0.4705
 8514TIP3    H146957   4.656   1.001   1.465  0.6036  1.0382 -0.8358
 8514TIP3    H246958   4.753   1.095   1.534  0.9585  1.3016 -1.6762
 8515TIP3   OH246959   3.146   2.679  13.074  0.3388  0.6551  0.8647
 8515TIP3    H146960   3.187   2.725  13.001  1.5770 -1.4232  0.1557
 8515TIP3    H246961   3.105   2.602  13.034  0.7216 -0.3346  2.2696
 8516TIP3   OH246962   1.217   2.174  12.442  0.3490  0.1816 -0.5517
 8516TIP3    H146963   1.196   2.250  12.497 -1.8612 -1.7471  1.5068
 8516TIP3    H246964   1.284   2.127  12.490 -0.6938 -0.8621 -0.0605
 8517TIP3   OH246965   1.278   0.865  16.785  0.5101 -0.1022 -0.1595
 8517TIP3    H146966   1.197   0.904  16.817  1.2375  2.0786 -0.7404
 8517TIP3    H246967   1.343   0.885  16.853  0.6904 -1.3609  0.0607
 8518TIP3   OH246968   1.235   6.249   5.935  0.0774  0.2721  0.7221
 8518TIP3    H146969   1.142   6.226   5.937  0.2317 -0.4909  3.1623
 8518TIP3    H246970   1.239   6.334   5.980  0.5356  0.5322  0.2019
 8519TIP3   OH246971   5.852   1.798  14.665  0.3642  0.1809  0.3511
 8519TIP3    H146972   5.927   1.857  14.665  0.5477 -0.0380 -0.2170
 8519TIP3    H246973   5.819   1.801  14.754  0.3095  1.2151  0.3054
 8520TIP3   OH246974   3.524   0.148  16.797 -0.0752  0.3861 -0.2630
 8520TIP3    H146975   3.563   0.228  16.833 -1.4599  1.3679 -0.8382
 8520TIP3    H246976   3.596   0.084  16.797  1.3489  1.8996 -0.6718
 8521TIP3   OH246977   1.730   1.663  16.336  0.0408  0.2912  0.3394
 8521TIP3    H146978   1.770   1.714  16.406  1.0694 -1.5300  1.1541
 8521TIP3    H246979   1.652   1.624  16.376  0.3899 -0.3998  0.3679
 8522TIP3   OH246980   1.947   0.983  15.929 -0.1388  0.4060 -0.3419
 8522TIP3    H146981   1.972   0.894  15.905  0.9576  0.8709 -0.9819
 8522TIP3    H246982   1.901   0.973  16.013 -1.4476 -0.9248 -1.1656
 8523TIP3   OH246983   6.774   5.114   2.550  0.0926 -0.4478 -0.6576
 8523TIP3    H146984   6.743   5.115   2.459  0.8321 -2.4757 -0.9810
 8523TIP3    H246985   6.715   5.053   2.594  0.6103 -0.5581 -0.1061
 8524TIP3   OH246986   2.930   6.319   3.659 -0.0871 -0.0276  0.3784
 8524TIP3    H146987   2.952   6.279   3.743 -2.6288  0.4160  1.3391
 8524TIP3    H246988   2.928   6.413   3.677 -1.1815  0.0339 -0.0229
 8525TIP3   OH246989   4.990   0.512   4.828  0.0129 -0.1791  0.2305
 8525TIP3    H146990   4.990   0.419   4.802 -0.7097 -0.3988  0.9832
 8525TIP3    H246991   4.928   0.516   4.901  0.9570  0.6789  1.0086
 8526TIP3   OH246992   1.509   3.758   2.409 -0.2544  0.1331 -0.0659
 8526TIP3    H146993   1.428   3.717   2.378  0.2334 -0.9139  0.0013
 8526TIP3    H246994   1.578   3.702   2.375  0.4234  0.6725  0.3992
 8527TIP3   OH246995   5.705   6.621   1.796 -0.4048 -0.1044 -0.4369
 8527TIP3    H146996   5.794   6.653   1.813 -0.7742  3.0221 -3.4353
 8527TIP3    H246997   5.651   6.663   1.863  0.1032 -0.5566  0.2733
 8528TIP3   OH246998   6.435   6.541   5.632 -0.4193  0.1160  0.4147
 8528TIP3    H146999   6.346   6.524   5.600 -0.7910  0.3042  1.3099
 8528TIP3    H247000   6.422   6.573   5.721  0.5075  0.9364  0.2727
 8529TIP3   OH247001   1.186   1.761  16.947 -0.1664  0.1114  0.3313
 8529TIP3    H147002   1.150   1.809  16.873  1.5577  0.5582 -0.2702
 8529TIP3    H247003   1.111   1.744  17.004 -0.7776  4.5275  1.1732
 8530TIP3   OH247004   5.685   4.462  12.664  0.4887 -0.2275  0.3559
 8530TIP3    H147005   5.596   4.481  12.696  1.3352  1.1758  2.0211
 8530TIP3    H247006   5.703   4.533  12.602  0.8953  0.2180  0.9724
 8531TIP3   OH247007   1.661   1.590   3.764 -0.3018  0.2377 -0.3124
 8531TIP3    H147008   1.639   1.599   3.672  1.4505  0.8909 -0.7098
 8531TIP3    H247009   1.625   1.505   3.790  0.4225 -0.6144 -1.9803
 8532TIP3   OH247010   4.968   3.339   1.607  0.4164  0.1272 -0.2469
 8532TIP3    H147011   4.932   3.254   1.633 -0.2253  0.2967 -0.5608
 8532TIP3    H247012   5.042   3.353   1.666 -0.6183  0.2152  1.1078
 8533TIP3   OH247013   4.388   3.802  13.557 -0.1255 -0.4130  0.6894
 8533TIP3    H147014   4.366   3.795  13.650  0.4816 -0.9955  0.7932
 8533TIP3    H247015   4.399   3.712  13.527 -0.7314 -0.2547 -0.0603
 8534TIP3   OH247016   2.638   0.848   5.585  0.0195  0.4607 -0.6788
 8534TIP3    H147017   2.629   0.763   5.628 -1.1120  0.9092  0.0100
 8534TIP3    H247018   2.638   0.911   5.657  0.7155  1.0604 -1.1951
 8535TIP3   OH247019   1.688   2.571   2.922 -0.2950  0.2984 -0.3909
 8535TIP3    H147020   1.633   2.546   2.847 -0.5054  0.8199 -0.4140
 8535TIP3    H247021   1.719   2.488   2.958 -1.5874 -0.0474 -0.0198
 8536TIP3   OH247022   2.564   6.061   5.738 -0.4530  0.7585 -0.2915
 8536TIP3    H147023   2.562   6.120   5.663  2.3784  1.1611 -0.1678
 8536TIP3    H247024   2.487   6.006   5.727 -1.0724  1.9383 -2.5371
 8537TIP3   OH247025   3.598   4.411   3.382  0.1091  0.4884  0.0708
 8537TIP3    H147026   3.660   4.448   3.445 -1.2566  1.0739  1.1273
 8537TIP3    H247027   3.512   4.437   3.415 -0.7715 -1.2987 -0.6918
 8538TIP3   OH247028   6.189   2.673  15.900  0.6703 -0.4599  0.6397
 8538TIP3    H147029   6.247   2.599  15.911  1.4670 -0.0560 -0.6670
 8538TIP3    H247030   6.186   2.689  15.806 -0.6106  0.2848  0.7666
 8539TIP3   OH247031   3.966   0.043   1.829  0.3095  0.3545  0.0056
 8539TIP3    H147032   3.911  -0.033   1.846  0.8339  0.2605  1.4307
 8539TIP3    H247033   4.002   0.066   1.915  0.9483  1.5976 -0.5707
 8540TIP3   OH247034   3.553   3.891  16.742 -0.1220 -0.7859 -0.9436
 8540TIP3    H147035   3.646   3.899  16.761 -0.3514  0.4248 -0.2382
 8540TIP3    H247036   3.518   3.979  16.755 -1.3288 -1.1732 -1.4223
 8541TIP3   OH247037   6.672   3.039  16.399 -0.2540  0.3721 -0.6787
 8541TIP3    H147038   6.616   2.974  16.441 -1.8676  2.1821  0.1237
 8541TIP3    H247039   6.737   2.988  16.351 -1.0535 -1.7972  0.4331
 8542TIP3   OH247040   0.200   1.886   0.179  0.5369  0.3688  0.2090
 8542TIP3    H147041   0.248   1.877   0.261  0.8239 -0.2350 -0.0185
 8542TIP3    H247042   0.150   1.967   0.189  1.8765  1.2162  0.3127
 8543TIP3   OH247043   1.208   1.619   5.697  0.0266 -0.0599  0.1026
 8543TIP3    H147044   1.249   1.550   5.750 -2.7544 -0.5598  1.8201
 8543TIP3    H247045   1.151   1.572   5.636  1.6397  0.6204 -2.0510
 8544TIP3   OH247046   5.976   2.968  13.530 -0.6675 -0.1631  0.2524
 8544TIP3    H147047   6.025   2.922  13.598  0.8035 -1.6127 -1.6882
 8544TIP3    H247048   6.030   3.044  13.509  0.7688 -1.6381 -1.7251
 8545TIP3   OH247049   6.256   2.648   0.942  0.3335 -0.2107  0.5208
 8545TIP3    H147050   6.180   2.674   0.995  0.2835 -0.1721  0.4298
 8545TIP3    H247051   6.331   2.668   0.998  0.2417 -1.3900  1.1093
 8546TIP3   OH247052   4.295   3.374  15.412  0.1121  0.3146 -0.0262
 8546TIP3    H147053   4.383   3.375  15.451  0.4461  0.1099 -0.7597
 8546TIP3    H247054   4.236   3.386  15.487  0.7559  0.3442  0.4899
 8547TIP3   OH247055   4.849   4.413  11.284 -0.1339 -1.2519 -0.1487
 8547TIP3    H147056   4.918   4.411  11.217  0.3721  2.4135  0.0661
 8547TIP3    H247057   4.768   4.399  11.235  0.3075  0.4345 -1.4480
 8548TIP3   OH247058   6.608   1.783   0.237 -0.1024  0.4312 -0.3271
 8548TIP3    H147059   6.664   1.724   0.187 -0.5591 -0.1292 -0.1903
 8548TIP3    H247060   6.619   1.869   0.195  2.2066  0.7425  0.7532
 8549TIP3   OH247061   0.397   0.983  12.814  0.2885 -0.1741  0.0879
 8549TIP3    H147062   0.320   0.930  12.789  1.2504 -1.7529  0.3323
 8549TIP3    H247063   0.424   1.025  12.732  0.1003 -0.8774 -0.3488
 8550TIP3   OH247064   4.040   5.141  12.280  0.3087  0.5206 -0.0308
 8550TIP3    H147065   4.036   5.237  12.274 -0.4329  0.4595 -0.6024
 8550TIP3    H247066   4.103   5.116  12.213 -1.8393  0.4204 -2.1699
 8551TIP3   OH247067   0.816   4.940  14.201  0.3613  0.1799  0.7364
 8551TIP3    H147068   0.812   4.865  14.261  0.1866  0.1681  0.7102
 8551TIP3    H247069   0.821   5.016  14.259 -0.5010  0.2125  0.7750
 8552TIP3   OH247070   0.823   4.908   3.353  0.1635  0.0629 -0.2069
 8552TIP3    H147071   0.744   4.955   3.328 -0.0572 -0.4888 -0.5516
 8552TIP3    H247072   0.798   4.856   3.429 -0.4826 -1.9607 -1.7282
 8553TIP3   OH247073   5.850   0.419  14.398  0.0425  0.2732  0.1143
 8553TIP3    H147074   5.769   0.377  14.429 -0.0407  0.2271 -0.1568
 8553TIP3    H247075   5.903   0.430  14.476  0.2617 -0.7725  0.1244
 8554TIP3   OH247076   1.099   4.820  11.326  0.1841 -0.1194 -0.3668
 8554TIP3    H147077   1.009   4.844  11.349  0.8507  0.9986  1.2818
 8554TIP3    H247078   1.100   4.821  11.231 -1.3955  0.4454 -0.4218
 8555TIP3   OH247079   4.926   1.836   0.558  0.0009 -0.3567 -0.4442
 8555TIP3    H147080   4.992   1.797   0.614 -1.3866 -1.1247  0.7441
 8555TIP3    H247081   4.973   1.901   0.506  1.8979 -1.7742 -0.5995
 8556TIP3   OH247082   6.187   1.942  13.130  0.2338  0.1245  0.0692
 8556TIP3    H147083   6.190   1.882  13.056 -0.5298 -0.4930  0.5200
 8556TIP3    H247084   6.262   1.999  13.118  0.9482 -0.8903 -0.4003
 8557TIP3   OH247085   0.972   6.268   5.693  0.8845  0.7171  0.0528
 8557TIP3    H147086   0.965   6.300   5.783  0.7201  1.2104 -0.1343
 8557TIP3    H247087   1.064   6.281   5.670  0.8541  0.8926  0.0343
 8558TIP3   OH247088   6.724   5.739   4.713 -0.1581  0.4653 -0.6585
 8558TIP3    H147089   6.816   5.718   4.702 -0.7815 -2.6658 -0.8284
 8558TIP3    H247090   6.713   5.753   4.807  0.0186 -2.2959 -0.1511
 8559TIP3   OH247091   2.076   1.391   3.123 -0.6152 -1.2096  0.4330
 8559TIP3    H147092   2.148   1.349   3.170  0.2774 -0.4120 -0.1895
 8559TIP3    H247093   2.076   1.481   3.154  0.7774 -0.3255 -1.8950
 8560TIP3   OH247094   2.837   5.724  13.891  0.0323  0.7899  0.2534
 8560TIP3    H147095   2.793   5.639  13.899  0.1383  0.6581 -0.4713
 8560TIP3    H247096   2.889   5.717  13.811 -0.8090  1.9072 -0.4306
 8561TIP3   OH247097   6.763   2.809  13.738  0.7797 -0.5241  0.0492
 8561TIP3    H147098   6.815   2.743  13.784 -0.8953 -1.7093  0.3544
 8561TIP3    H247099   6.736   2.871  13.806  2.8739  0.9052 -0.3402
 8562TIP3   OH247100   2.645   3.867   5.725 -0.2981  0.2310  0.1710
 8562TIP3    H147101   2.654   3.836   5.815 -1.1299 -0.8836 -0.1035
 8562TIP3    H247102   2.626   3.961   5.734  0.6011  0.3498  1.0973
 8563TIP3   OH247103   5.414   6.506   5.114 -0.3584  0.0756 -0.1150
 8563TIP3    H147104   5.389   6.562   5.187 -0.1201  1.7348 -1.2377
 8563TIP3    H247105   5.385   6.554   5.036 -2.1955 -2.3905 -1.1229
 8564TIP3   OH247106   3.578   3.557  15.279  0.7234 -0.2553 -0.2351
 8564TIP3    H147107   3.557   3.648  15.259  1.3088 -0.7692 -4.0422
 8564TIP3    H247108   3.666   3.544  15.243  0.2008 -2.5494 -0.8836
 8565TIP3   OH247109   2.913   5.208   4.424  0.1764  0.5330 -0.4085
 8565TIP3    H147110   2.950   5.211   4.513 -0.7451 -2.0382  0.1498
 8565TIP3    H247111   2.950   5.284   4.380 -0.0706  2.4737  2.4499
 8566TIP3   OH247112   6.185   2.584   3.378 -0.3479 -0.1067  0.0212
 8566TIP3    H147113   6.162   2.627   3.295 -0.7061 -0.7257 -0.2117
 8566TIP3    H247114   6.280   2.586   3.380 -0.3423  2.9291  1.2223
 8567TIP3   OH247115   0.042   5.120  16.398  0.2078  0.4941 -0.2883
 8567TIP3    H147116   0.041   5.103  16.492 -0.4897  2.0632  0.0194
 8567TIP3    H247117   0.095   5.049  16.361 -0.0886 -0.5396  1.1959
 8568TIP3   OH247118   5.222   0.690   3.030 -0.3707 -0.1723  0.4288
 8568TIP3    H147119   5.291   0.745   3.067 -0.5405 -0.1628  0.7324
 8568TIP3    H247120   5.143   0.745   3.034 -0.3060 -0.0123 -0.3420
 8569TIP3   OH247121   1.859   2.491   5.849 -0.0327 -0.2329  0.2926
 8569TIP3    H147122   1.767   2.513   5.866 -0.5127 -2.9090  1.6035
 8569TIP3    H247123   1.909   2.551   5.904 -0.9863  0.8231  0.0517
 8570TIP3   OH247124   6.742   6.783   2.204  0.0017 -0.4274  0.5232
 8570TIP3    H147125   6.731   6.701   2.156  1.7391  0.4125 -1.4620
 8570TIP3    H247126   6.831   6.778   2.240  0.7959  1.2443 -1.0841
 8571TIP3   OH247127   2.607   2.450  16.763 -0.0005  0.2313 -0.0257
 8571TIP3    H147128   2.540   2.457  16.695  0.9476 -1.1587 -1.1704
 8571TIP3    H247129   2.576   2.507  16.833 -1.2238  1.3926 -1.4427
 8572TIP3   OH247130   6.503   0.266  12.383 -0.5938 -0.0894 -0.2673
 8572TIP3    H147131   6.415   0.229  12.379 -1.0838  0.9970 -0.0908
 8572TIP3    H247132   6.512   0.295  12.474 -0.7172  1.3046 -0.6719
 8573TIP3   OH247133   2.734   5.148  13.466  0.2765  0.2598 -0.2611
 8573TIP3    H147134   2.763   5.114  13.381 -1.1254 -0.6781 -0.3954
 8573TIP3    H247135   2.811   5.141  13.522  1.0232  0.2283 -1.2551
 8574TIP3   OH247136   3.704   6.400   5.497  0.4361 -0.1279 -0.6205
 8574TIP3    H147137   3.797   6.420   5.513  0.7312 -2.8081  2.0308
 8574TIP3    H247138   3.659   6.434   5.575 -0.4332 -0.9524 -0.7462
 8575TIP3   OH247139   1.305   4.053   1.502  0.9564 -0.0214  0.6491
 8575TIP3    H147140   1.256   4.135   1.496 -0.7827 -1.1051 -1.5673
 8575TIP3    H247141   1.297   4.028   1.594 -0.5403  1.1289  0.8845
 8576TIP3   OH247142   4.279   1.800   2.783 -0.6458  0.2899 -0.2315
 8576TIP3    H147143   4.343   1.853   2.735 -1.5120  0.7179 -0.9237
 8576TIP3    H247144   4.326   1.718   2.802 -0.7258 -0.5521 -3.1501
 8577TIP3   OH247145   2.483   2.157   5.670  0.0798  0.0789 -0.7339
 8577TIP3    H147146   2.522   2.236   5.632  1.4545  0.0735  0.5758
 8577TIP3    H247147   2.521   2.152   5.758  0.5377 -2.3928 -1.0075
 8578TIP3   OH247148   3.337   5.281   2.138  0.1237  0.4456 -0.5937
 8578TIP3    H147149   3.361   5.373   2.129 -1.0857  0.9276  0.8357
 8578TIP3    H247150   3.247   5.282   2.170  0.1171 -1.2408 -0.4583
 8579TIP3   OH247151   1.537   3.930  12.634 -0.4728  0.1321 -0.1113
 8579TIP3    H147152   1.526   4.025  12.639 -0.5430  0.2901 -2.1590
 8579TIP3    H247153   1.532   3.911  12.540  1.5023 -1.6455  0.0721
 8580TIP3   OH247154   4.628   3.154   1.563 -0.6238  0.4206  0.0879
 8580TIP3    H147155   4.675   3.204   1.630  1.1580 -0.5829 -0.3266
 8580TIP3    H247156   4.568   3.098   1.612 -0.0852  0.4414  0.7848
 8581TIP3   OH247157   5.330   5.090   3.170  0.2209  0.0252 -0.4009
 8581TIP3    H147158   5.311   5.011   3.221  1.4381  0.5632  0.9521
 8581TIP3    H247159   5.244   5.126   3.149 -0.3273 -0.4690  0.8841
 8582TIP3   OH247160   4.038   0.280  13.849 -0.3571 -0.2193 -0.2554
 8582TIP3    H147161   3.944   0.262  13.848 -0.7253  1.4781  0.4559
 8582TIP3    H247162   4.051   0.332  13.928  1.4743 -1.7666  0.5234
 8583TIP3   OH247163   4.763   4.745   2.049 -0.5206 -0.8531  0.1240
 8583TIP3    H147164   4.830   4.806   2.079 -0.9072  0.2568 -1.1809
 8583TIP3    H247165   4.705   4.733   2.125  0.0047 -0.2350  0.6313
 8584TIP3   OH247166   3.885   5.142   1.077 -0.3736 -0.0439  0.5373
 8584TIP3    H147167   3.802   5.106   1.046 -0.1064  0.6768 -1.1159
 8584TIP3    H247168   3.900   5.219   1.022  0.9158  0.4146  1.4703
 8585TIP3   OH247169   2.705   6.101   2.873 -0.4680 -0.0193  0.5671
 8585TIP3    H147170   2.707   6.158   2.949  2.2654 -0.4639  0.9186
 8585TIP3    H247171   2.690   6.013   2.909  1.3132 -0.2991  0.7066
 8586TIP3   OH247172   2.421   6.321  16.964  0.3106 -0.2700  0.6181
 8586TIP3    H147173   2.425   6.413  16.938  2.6083  0.5918  3.4209
 8586TIP3    H247174   2.364   6.320  17.041 -2.9174 -1.9932 -1.5841
 8587TIP3   OH247175   5.644   1.749  15.515  0.5944  0.2249 -0.7467
 8587TIP3    H147176   5.716   1.781  15.570  1.0020  0.4805 -1.4202
 8587TIP3    H247177   5.570   1.806  15.536  1.1618  1.2701 -1.5366
 8588TIP3   OH247178   0.118   2.835  13.499 -0.0257 -0.2917 -0.5253
 8588TIP3    H147179   0.062   2.850  13.423  1.5863  2.2125 -1.3665
 8588TIP3    H247180   0.058   2.834  13.574 -1.4213 -0.3978 -1.6045
 8589TIP3   OH247181   2.570   3.966   4.371 -0.2678  0.4794  0.0054
 8589TIP3    H147182   2.495   4.015   4.401  0.6857  0.8507  1.9133
 8589TIP3    H247183   2.628   3.960   4.447  1.7045  0.3380 -1.4160
 8590TIP3   OH247184   2.261   4.175  14.988 -0.5321 -0.3929  0.0343
 8590TIP3    H147185   2.316   4.121  14.931  0.3339  0.9366 -0.4492
 8590TIP3    H247186   2.254   4.125  15.069  0.9526 -0.8638 -0.0859
 8591TIP3   OH247187   3.847   0.478  11.689 -0.3245  0.1379 -0.4793
 8591TIP3    H147188   3.785   0.549  11.707 -1.1002 -0.7387  0.3996
 8591TIP3    H247189   3.806   0.400  11.726  1.5030 -0.4047  0.5776
 8592TIP3   OH247190   2.316   1.282  16.756 -0.0496 -0.0964  0.1649
 8592TIP3    H147191   2.351   1.326  16.833 -0.7855  1.5509 -0.3946
 8592TIP3    H247192   2.221   1.284  16.768 -0.1169 -2.6362  0.6619
 8593TIP3   OH247193   0.060   0.836   2.350 -0.1902 -0.3714  0.6099
 8593TIP3    H147194   0.073   0.777   2.276 -1.8709  1.0419 -0.9031
 8593TIP3    H247195  -0.033   0.859   2.347  0.4811  2.8082  0.7369
 8594TIP3   OH247196   6.499   4.692   5.118 -0.3568  0.5691  1.0004
 8594TIP3    H147197   6.405   4.695   5.103 -0.3673 -0.8503  0.6848
 8594TIP3    H247198   6.519   4.600   5.132  0.7136  1.0185  2.9640
 8595TIP3   OH247199   3.416   3.915   5.598 -0.2335  0.2402  0.7584
 8595TIP3    H147200   3.433   3.908   5.692  0.2593 -0.6262  0.6143
 8595TIP3    H247201   3.338   3.863   5.584  1.6013 -2.5685  0.1911
 8596TIP3   OH247202   0.006   4.526   4.053  0.3407 -0.2510 -0.0103
 8596TIP3    H147203  -0.055   4.574   3.997  1.1132  0.8019  0.0283
 8596TIP3    H247204   0.005   4.437   4.018 -1.6868 -0.4337  0.3797
 8597TIP3   OH247205   3.434   2.545   0.671  0.0203 -0.6801 -0.3404
 8597TIP3    H147206   3.393   2.631   0.658  0.7927 -0.1072  0.8442
 8597TIP3    H247207   3.360   2.485   0.681 -0.5952  0.2704  1.3981
 8598TIP3   OH247208   2.772   1.633   6.047  0.3528 -0.7025  0.3467
 8598TIP3    H147209   2.754   1.696   5.977  0.4234 -1.7177 -0.6199
 8598TIP3    H247210   2.701   1.646   6.110  0.3097  0.2549  0.1142
 8599TIP3   OH247211   3.292   6.248   1.634 -0.5911 -0.3840  0.1524
 8599TIP3    H147212   3.339   6.332   1.633  1.2116 -1.3213 -1.1840
 8599TIP3    H247213   3.203   6.270   1.606 -0.0833  1.0608 -0.4328
 8600TIP3   OH247214   2.563   1.710  13.462  0.4189  0.1616 -0.2901
 8600TIP3    H147215   2.491   1.661  13.502 -0.2394  0.7834 -0.6846
 8600TIP3    H247216   2.637   1.650  13.463  0.0698 -0.2792  0.7004
 8601TIP3   OH247217   5.665   6.080   5.602 -0.2685  0.7535  0.1086
 8601TIP3    H147218   5.740   6.024   5.579 -0.6743 -0.0760  0.7581
 8601TIP3    H247219   5.632   6.044   5.684  0.3512  2.8726  1.3642
 8602TIP3   OH247220   6.348   3.944   3.330 -0.5962  0.4269  0.1424
 8602TIP3    H147221   6.287   4.016   3.343  0.9912  1.5805  1.7542
 8602TIP3    H247222   6.297   3.865   3.349 -1.6351  1.3274  1.2368
 8603TIP3   OH247223   2.021   2.264  15.376  0.4021 -0.4802  0.5782
 8603TIP3    H147224   2.083   2.326  15.414  0.9648 -0.7267  0.0872
 8603TIP3    H247225   1.996   2.207  15.449 -0.2059  0.3705  1.0596
 8604TIP3   OH247226   0.826   1.088   0.109  0.1413  0.1435 -0.0559
 8604TIP3    H147227   0.828   1.131   0.195  0.3419  1.5831 -0.7623
 8604TIP3    H247228   0.824   1.160   0.046 -1.4363 -0.8735 -1.2433
 8605TIP3   OH247229   4.809   1.923  12.587  0.4642 -0.0955  0.3257
 8605TIP3    H147230   4.878   1.949  12.526 -0.2956 -0.5627 -0.7623
 8605TIP3    H247231   4.755   2.001  12.597  0.1933 -0.2225 -0.1490
 8606TIP3   OH247232   4.153   5.007  12.516  0.7323 -0.2824 -0.1148
 8606TIP3    H147233   4.068   5.010  12.560  0.4622 -0.8559 -0.5804
 8606TIP3    H247234   4.133   5.020  12.423  1.4379  2.4580  0.0228
 8607TIP3   OH247235   0.121   1.408   4.338  0.3142  0.1272  0.2436
 8607TIP3    H147236   0.046   1.410   4.398  0.0605  1.2734 -0.0850
 8607TIP3    H247237   0.083   1.414   4.251  0.6953 -1.3140 -0.0555
 8608TIP3   OH247238   0.450   3.631  14.056 -0.1637 -0.4446 -0.1746
 8608TIP3    H147239   0.525   3.616  13.998  2.1364  0.1760  2.3761
 8608TIP3    H247240   0.440   3.726  14.058  0.2851 -0.4026  0.9358
 8609TIP3   OH247241   1.471   0.582   4.395  0.8872  0.0272  0.0553
 8609TIP3    H147242   1.403   0.548   4.452  1.9341  1.6270  2.4170
 8609TIP3    H247243   1.427   0.647   4.340 -0.0604 -1.2594 -0.7676
 8610TIP3   OH247244   1.450   0.757   4.025 -0.2549 -0.0703 -0.2471
 8610TIP3    H147245   1.412   0.813   3.958 -0.0789 -0.6964 -0.8760
 8610TIP3    H247246   1.543   0.751   4.002  0.0099  0.4785  0.5977
 8611TIP3   OH247247   5.171   3.860   2.208 -0.2456 -1.0896  0.1980
 8611TIP3    H147248   5.208   3.833   2.292  0.7556 -1.2093 -0.2746
 8611TIP3    H247249   5.240   3.911   2.167 -1.4274  0.6289  0.2627
 8612TIP3   OH247250   3.815   6.789  11.917  0.0883 -0.0242 -0.3398
 8612TIP3    H147251   3.756   6.718  11.939 -1.2271  0.9905 -0.4854
 8612TIP3    H247252   3.785   6.821  11.832 -1.7094  2.9740  1.2336
 8613TIP3   OH247253   6.323   4.080   2.490  0.2430  1.0837  0.4920
 8613TIP3    H147254   6.352   3.991   2.474 -0.7224  0.3137  2.6675
 8613TIP3    H247255   6.394   4.120   2.540  0.2087  1.2105  0.4417
 8614TIP3   OH247256   2.265   4.703   3.183 -0.1821  0.4363 -0.5841
 8614TIP3    H147257   2.285   4.632   3.245 -0.0501  2.6868  2.1437
 8614TIP3    H247258   2.350   4.732   3.152 -0.1405  0.3418 -0.5588
 8615TIP3   OH247259   1.133   2.887   3.501 -0.2231  0.0949 -0.0256
 8615TIP3    H147260   1.086   2.948   3.443 -1.0958 -0.8721 -0.3700
 8615TIP3    H247261   1.181   2.944   3.561  0.2141  1.1294 -1.2969
 8616TIP3   OH247262   1.955   5.610  12.168  0.1412 -0.3142 -0.2781
 8616TIP3    H147263   1.988   5.557  12.241  0.5429  1.2092  0.6935
 8616TIP3    H247264   1.868   5.639  12.198  0.4082  0.5189 -0.2963
 8617TIP3   OH247265   1.115   6.034   5.145 -0.2245 -0.1470 -0.4067
 8617TIP3    H147266   1.036   5.998   5.105 -0.2254 -0.3925 -0.1841
 8617TIP3    H247267   1.095   6.127   5.156 -0.8092 -0.3536  0.4124
 8618TIP3   OH247268   3.781   6.097   3.310  0.0490 -0.0285 -0.1944
 8618TIP3    H147269   3.827   6.107   3.226  0.9007 -1.7108  0.0168
 8618TIP3    H247270   3.797   6.005   3.334  0.2218  0.5490  2.0372
 8619TIP3   OH247271   4.089   5.879  14.641 -0.0111  0.2164  0.2981
 8619TIP3    H147272   4.040   5.803  14.673 -0.4871  0.3333 -0.1582
 8619TIP3    H247273   4.029   5.925  14.584  0.8341  0.0062 -0.7881
 8620TIP3   OH247274   1.752   1.237  16.346 -0.2126 -0.4077  0.0591
 8620TIP3    H147275   1.736   1.309  16.407 -1.9163  0.4448 -1.3431
 8620TIP3    H247276   1.682   1.174  16.365 -1.5964  0.4681 -1.8349
 8621TIP3   OH247277   1.407   2.949   2.907  0.1936  0.1583 -0.8565
 8621TIP3    H147278   1.380   2.874   2.854  0.6019  1.3113 -2.7899
 8621TIP3    H247279   1.485   2.982   2.864 -0.8208  2.5941 -0.9793
 8622TIP3   OH247280   2.665   5.671   3.420 -0.2443  0.0145 -0.0293
 8622TIP3    H147281   2.614   5.687   3.340  0.2574 -2.1530 -0.8578
 8622TIP3    H247282   2.724   5.600   3.396 -1.7367 -2.4285  2.9491
 8623TIP3   OH247283   2.650   6.141   4.069 -0.1837 -0.0592 -0.2250
 8623TIP3    H147284   2.667   6.214   4.129  1.6047 -1.3167  0.9203
 8623TIP3    H247285   2.736   6.101   4.055 -1.1905 -2.4007 -0.1767
 8624TIP3   OH247286   4.499   0.160   0.338 -0.1830 -0.2043 -0.6522
 8624TIP3    H147287   4.539   0.182   0.254  0.1454 -1.0430 -0.7187
 8624TIP3    H247288   4.408   0.137   0.317 -0.7138  1.6011 -0.5126
 8625TIP3   OH247289   2.307   5.306  16.306  0.0746 -0.0363  0.6797
 8625TIP3    H147290   2.290   5.400  16.311 -0.3250 -0.1665  2.0889
 8625TIP3    H247291   2.249   5.275  16.236  0.4964  0.8134 -0.0679
 8626TIP3   OH247292   5.650   5.757   2.314 -0.4371  0.2114  0.0962
 8626TIP3    H147293   5.742   5.740   2.331 -0.2085  0.1890 -1.1017
 8626TIP3    H247294   5.604   5.721   2.391  0.5990  1.0804  1.1553
 8627TIP3   OH247295   0.093   5.059   4.363  0.1630 -0.0839 -0.1918
 8627TIP3    H147296   0.115   5.139   4.315 -1.1370 -0.3174 -1.2517
 8627TIP3    H247297   0.026   5.086   4.426  0.3554 -0.1697  0.0489
 8628TIP3   OH247298   4.987   2.479   3.383 -0.1623  0.1271  0.5116
 8628TIP3    H147299   4.964   2.406   3.326  0.1250 -0.2779  0.9170
 8628TIP3    H247300   4.970   2.557   3.329  3.2609 -0.2304 -1.4176
 8629TIP3   OH247301   2.328   5.252  15.821  0.1615 -0.1242  0.2802
 8629TIP3    H147302   2.322   5.348  15.819 -0.3654 -0.1635 -0.8291
 8629TIP3    H247303   2.292   5.224  15.737 -0.7614 -1.3573  1.0440
 8630TIP3   OH247304   2.710   2.875  16.764 -0.1665 -0.0285 -0.3206
 8630TIP3    H147305   2.743   2.948  16.713  1.2891  0.2308  0.9066
 8630TIP3    H247306   2.652   2.916  16.829  2.3196  0.4093  1.7723
 8631TIP3   OH247307   0.658   0.133   4.549  0.0405  0.2180 -0.7397
 8631TIP3    H147308   0.608   0.208   4.516 -1.4923 -1.2336 -1.9253
 8631TIP3    H247309   0.608   0.102   4.625 -0.1101 -0.3965 -1.0795
 8632TIP3   OH247310   3.806   4.259  14.578 -0.4807 -0.1969  0.0215
 8632TIP3    H147311   3.785   4.334  14.522 -0.3309  0.1578  0.4294
 8632TIP3    H247312   3.763   4.279  14.662 -0.3776 -0.5333  0.1570
 8633TIP3   OH247313   4.934   6.710   5.740 -0.0165  0.1285  0.1858
 8633TIP3    H147314   4.947   6.631   5.688 -3.6452 -0.6679  0.2235
 8633TIP3    H247315   4.896   6.679   5.822  1.5338  1.7366  1.6071
 8634TIP3   OH247316   1.880   0.426  12.413 -0.0987  0.6292 -0.2644
 8634TIP3    H147317   1.948   0.492  12.399  1.5464 -0.8349  0.3108
 8634TIP3    H247318   1.903   0.355  12.352 -0.9654  0.0114  0.1071
 8635TIP3   OH247319   5.044   2.546   5.287 -0.5157 -0.3214 -0.5992
 8635TIP3    H147320   4.971   2.592   5.328 -1.0761 -1.8570  0.2318
 8635TIP3    H247321   5.105   2.528   5.358 -1.2533 -2.5556 -0.4249
 8636TIP3   OH247322   6.037   4.822  12.492  0.0922  0.9529 -0.2579
 8636TIP3    H147323   5.974   4.759  12.529  0.4343 -0.4930 -2.0265
 8636TIP3    H247324   6.122   4.779  12.502  0.2312  0.6867 -2.3141
 8637TIP3   OH247325   6.582   0.485  15.741 -0.5586  0.6807 -0.0743
 8637TIP3    H147326   6.501   0.507  15.787 -0.8707 -1.2274  0.3777
 8637TIP3    H247327   6.590   0.390  15.751  0.2558  0.4241 -2.5602
 8638TIP3   OH247328   2.014   3.056   0.755  0.0986  0.2669  0.3789
 8638TIP3    H147329   1.970   2.974   0.776 -0.0862 -0.2664 -1.8824
 8638TIP3    H247330   1.942   3.119   0.743  0.1182  0.1806 -0.1917
 8639TIP3   OH247331   4.226   6.234  13.044  0.1250 -0.2720  0.1988
 8639TIP3    H147332   4.265   6.319  13.064  2.5100 -1.0111 -0.9052
 8639TIP3    H247333   4.175   6.249  12.964  2.7367 -0.3102 -1.6180
 8640TIP3   OH247334   2.778   1.430  14.236  0.7344  0.0195 -0.2089
 8640TIP3    H147335   2.716   1.377  14.286  2.4888 -2.7293 -0.7000
 8640TIP3    H247336   2.842   1.460  14.301  0.1326  0.9847 -0.0431
 8641TIP3   OH247337   4.264   2.955   3.641  0.1582 -0.0060 -0.4714
 8641TIP3    H147338   4.263   3.041   3.682  0.9059  0.5852 -1.6585
 8641TIP3    H247339   4.172   2.928   3.640  0.2074 -0.9191  3.2823
 8642TIP3   OH247340   6.308   2.591   0.087 -0.0631 -0.2333  0.0427
 8642TIP3    H147341   6.328   2.545   0.169  1.8969  2.0531  0.9754
 8642TIP3    H247342   6.375   2.658   0.080 -0.1693 -0.3054 -3.5048
 8643TIP3   OH247343   3.312   5.016   1.686  0.0145  0.8551 -0.8516
 8643TIP3    H147344   3.359   5.076   1.744  0.2178  1.3055 -1.4644
 8643TIP3    H247345   3.223   5.015   1.720  0.8545 -1.6644  1.6391
 8644TIP3   OH247346   4.379   1.187   2.341  0.1955 -0.4194  0.3940
 8644TIP3    H147347   4.362   1.098   2.374  0.9949 -0.8228 -0.2610
 8644TIP3    H247348   4.293   1.219   2.316 -0.0417 -1.2036  0.1674
 8645TIP3   OH247349   4.266   4.011  14.416 -0.3999  0.1564  0.2919
 8645TIP3    H147350   4.299   3.926  14.388 -0.2274  0.1936  0.3839
 8645TIP3    H247351   4.260   4.005  14.511 -1.1315 -0.0217  0.2394
 8646TIP3   OH247352   3.926   4.799  17.195  1.2562 -0.8587 -0.9715
 8646TIP3    H147353   3.845   4.851  17.194  1.6783 -0.1883 -1.8648
 8646TIP3    H247354   3.968   4.819  17.112  1.9110 -1.9006 -0.9069
 8647TIP3   OH247355   4.540   3.760  12.039  0.0592 -0.4912  0.2707
 8647TIP3    H147356   4.485   3.837  12.023  1.9999  1.4012  2.1526
 8647TIP3    H247357   4.477   3.689  12.052 -1.9228  1.2314  0.7592
 8648TIP3   OH247358   4.070   0.766  15.755  0.0225  0.4575  0.0233
 8648TIP3    H147359   4.081   0.838  15.692  1.6346 -0.6546 -1.0430
 8648TIP3    H247360   4.102   0.688  15.708  0.9232 -0.4898  2.0904
 8649TIP3   OH247361   1.415   2.808   0.968  0.4452 -0.3656 -0.0524
 8649TIP3    H147362   1.492   2.854   0.934  1.3831 -1.3331  0.6936
 8649TIP3    H247363   1.394   2.852   1.050 -0.3348  0.4277 -0.6558
 8650TIP3   OH247364   5.739   6.583  13.302 -0.4072 -0.6164  0.3195
 8650TIP3    H147365   5.749   6.669  13.343 -1.2890 -0.6319  0.5861
 8650TIP3    H247366   5.826   6.544  13.305  0.1290  0.4769 -0.2781
 8651TIP3   OH247367   3.420   3.564   5.285  0.0651  0.3945  0.8402
 8651TIP3    H147368   3.339   3.615   5.279 -0.1556  0.0152  0.6008
 8651TIP3    H247369   3.489   3.630   5.292  0.0023  0.8022 -1.6586
 8652TIP3   OH247370   4.747   3.708  13.952 -0.1914  0.5657  0.3493
 8652TIP3    H147371   4.725   3.674  13.866 -1.0078  0.1740  0.7069
 8652TIP3    H247372   4.746   3.632  14.010 -1.8435  1.1224  1.1187
 8653TIP3   OH247373   3.408   2.380  17.103 -0.4099 -0.1003  0.1118
 8653TIP3    H147374   3.451   2.463  17.086 -1.7509  0.2651 -1.8069
 8653TIP3    H247375   3.407   2.335  17.018 -0.8144 -1.5445  0.8339
 8654TIP3   OH247376   5.282   5.059  15.152  0.0816 -0.3008 -0.8209
 8654TIP3    H147377   5.198   5.067  15.197 -0.3175 -1.8067 -1.2442
 8654TIP3    H247378   5.335   5.005  15.211  0.7398  0.5372 -0.6128
 8655TIP3   OH247379   4.607   2.114  13.912 -0.0642  0.3077 -0.0001
 8655TIP3    H147380   4.640   2.133  14.001  0.2853  0.5898 -0.1854
 8655TIP3    H247381   4.531   2.170  13.903  0.3955  0.9080 -0.1863
 8656TIP3   OH247382   0.890   0.342   2.252 -0.5360 -0.1010  0.0451
 8656TIP3    H147383   0.830   0.289   2.199 -0.5956  0.9503 -0.9720
 8656TIP3    H247384   0.926   0.405   2.191  2.8956 -1.6873  0.1866
 8657TIP3   OH247385   1.027   6.672   4.826  0.4489 -0.6702  0.1824
 8657TIP3    H147386   1.056   6.585   4.852  1.1087 -0.9743 -1.4180
 8657TIP3    H247387   1.035   6.672   4.730  1.5971  1.5335  0.2049
 8658TIP3   OH247388   4.396   5.104   5.799  0.1810 -0.1387  0.5480
 8658TIP3    H147389   4.364   5.014   5.800  1.2054 -0.5215  0.2904
 8658TIP3    H247390   4.342   5.148   5.734  1.7667 -1.3950 -1.7494
 8659TIP3   OH247391   5.511   0.156   1.144 -0.4271 -0.1017 -0.2899
 8659TIP3    H147392   5.516   0.251   1.137 -2.6587  0.0187 -0.9092
 8659TIP3    H247393   5.427   0.140   1.188  0.2567 -1.7697  0.4827
 8660TIP3   OH247394   3.806   5.154  12.418 -0.3624  0.2370  0.0053
 8660TIP3    H147395   3.889   5.136  12.374  0.3247  1.3511  0.7912
 8660TIP3    H247396   3.756   5.203  12.354 -0.6206 -0.8290 -0.6402
 8661TIP3   OH247397   5.308   1.653  13.517 -0.4308 -0.1726  0.3355
 8661TIP3    H147398   5.398   1.648  13.483  0.1042 -2.2178  1.8227
 8661TIP3    H247399   5.257   1.690  13.445  1.8809  3.0660  0.1545
 8662TIP3   OH247400   3.874   1.615   1.661 -0.4685  0.4355  0.0113
 8662TIP3    H147401   3.902   1.658   1.581 -0.1092  2.8845  1.3590
 8662TIP3    H247402   3.779   1.628   1.664 -0.6311 -0.5376 -0.4674
 8663TIP3   OH247403   4.336   3.924   0.559  0.3751 -0.1704  0.2481
 8663TIP3    H147404   4.362   3.838   0.526  1.4479 -0.2572  1.2298
 8663TIP3    H247405   4.263   3.951   0.503  0.6517 -1.2890 -0.6873
 8664TIP3   OH247406   6.715   4.917   3.654 -0.1157  0.6867  0.1709
 8664TIP3    H147407   6.642   4.869   3.614  0.0210 -0.5374  1.3085
 8664TIP3    H247408   6.672   4.985   3.705 -0.3448  1.4052 -0.9501
 8665TIP3   OH247409   4.686   3.815   3.533 -0.0633  0.0358  0.6142
 8665TIP3    H147410   4.616   3.823   3.597  0.5642 -1.4973  1.5455
 8665TIP3    H247411   4.737   3.740   3.563 -0.1112 -1.1623 -2.0303
 8666TIP3   OH247412   2.754   5.842   1.630 -0.6649 -0.1738  0.0750
 8666TIP3    H147413   2.667   5.876   1.610 -0.1819  1.5886  0.7646
 8666TIP3    H247414   2.798   5.914   1.675  1.0802 -1.1051 -0.0494
 8667TIP3   OH247415   0.354   2.122   2.635 -0.2419  0.1186  0.3632
 8667TIP3    H147416   0.435   2.171   2.647  0.2569 -0.3631 -0.8749
 8667TIP3    H247417   0.369   2.038   2.680  0.5971 -0.6244 -1.2435
 8668TIP3   OH247418   3.900   1.914   0.447  0.6910 -0.3944  0.3708
 8668TIP3    H147419   3.900   2.010   0.447  0.6997 -0.3590  2.0475
 8668TIP3    H247420   3.992   1.890   0.435  0.6634 -0.1975 -0.2368
 8669TIP3   OH247421   0.882   6.249  14.499 -0.4681  0.6141 -0.3435
 8669TIP3    H147422   0.907   6.340  14.481 -2.0929  1.7516  2.4326
 8669TIP3    H247423   0.815   6.256  14.567 -1.3184 -2.6600 -0.6887
 8670TIP3   OH247424   0.833   0.485  11.164 -0.2074 -0.4734 -0.2531
 8670TIP3    H147425   0.859   0.574  11.188 -0.1607 -1.1077  2.2903
 8670TIP3    H247426   0.915   0.441  11.142  0.0074 -0.4146  0.4129
 8671TIP3   OH247427   4.793   0.932   5.470  0.0654 -0.0648 -0.1628
 8671TIP3    H147428   4.819   0.882   5.393 -0.5912 -0.4286 -0.1590
 8671TIP3    H247429   4.703   0.904   5.487 -0.2026  0.8874  0.0302
 8672TIP3   OH247430   0.781   4.094  16.120  0.1597  0.8666  0.7179
 8672TIP3    H147431   0.867   4.061  16.094  0.3098  1.9638 -0.2388
 8672TIP3    H247432   0.758   4.041  16.197  0.3055 -1.5777 -0.7915
 8673TIP3   OH247433   1.990   5.176  15.906  0.4851  0.2440  0.0336
 8673TIP3    H147434   1.904   5.185  15.947  1.1571 -0.3906  1.6981
 8673TIP3    H247435   1.976   5.114  15.834 -0.7885  1.6021 -0.9533
 8674TIP3   OH247436   6.132   2.124   0.344  0.2823  0.0403 -0.3937
 8674TIP3    H147437   6.149   2.168   0.427  2.1816  2.1298 -1.7848
 8674TIP3    H247438   6.137   2.031   0.365 -0.5259  0.4601  2.0225
 8675TIP3   OH247439   3.092   0.573   5.006  0.7392 -0.6621 -0.5360
 8675TIP3    H147440   3.098   0.668   4.995 -1.0132 -0.2227  1.5243
 8675TIP3    H247441   3.055   0.542   4.924  1.4638  0.4040 -1.2967
 8676TIP3   OH247442   4.157   5.539   2.044  0.5244  0.4943 -0.1018
 8676TIP3    H147443   4.094   5.595   1.998  0.0290 -0.8407 -1.1135
 8676TIP3    H247444   4.131   5.542   2.136 -1.0983 -0.1047 -0.5130
 8677TIP3   OH247445   4.349   5.781   3.051  0.4128  0.1190 -0.1925
 8677TIP3    H147446   4.439   5.798   3.021  0.2815  1.8535  0.3035
 8677TIP3    H247447   4.322   5.703   3.002  2.7686 -1.5075  0.9201
 8678TIP3   OH247448   2.569   6.336  10.629  0.2320  0.0422  0.3269
 8678TIP3    H147449   2.549   6.244  10.615  0.5166  0.1715 -1.1102
 8678TIP3    H247450   2.486   6.374  10.659 -0.5084 -0.2835 -1.1978
 8679TIP3   OH247451   0.761   3.360  16.836 -0.0918  0.5853 -0.0083
 8679TIP3    H147452   0.741   3.375  16.929 -0.2530  1.2521 -0.1456
 8679TIP3    H247453   0.694   3.410  16.789  0.9810  1.6274 -0.4747
 8680TIP3   OH247454   3.365   4.892   2.734 -0.1095  0.3713  0.2611
 8680TIP3    H147455   3.401   4.859   2.651  2.2657  1.5700  0.7321
 8680TIP3    H247456   3.394   4.829   2.799 -0.9541  0.0678  0.3503
 8681TIP3   OH247457   1.362   3.679  10.590  0.1708 -0.3892  0.1735
 8681TIP3    H147458   1.291   3.621  10.561  0.3007 -0.9921  1.0252
 8681TIP3    H247459   1.442   3.634  10.565  0.2712  0.0484 -0.3210
 8682TIP3   OH247460   4.044   1.875   6.318  0.3542  0.1364 -0.6979
 8682TIP3    H147461   4.138   1.877   6.331  0.3095 -1.5074  0.1143
 8682TIP3    H247462   4.011   1.947   6.371  1.0719  0.0698 -0.1495
 8683TIP3   OH247463   2.098   4.218   3.537  0.2187 -0.2644  0.0852
 8683TIP3    H147464   2.096   4.280   3.610  2.3164  1.0453 -0.8857
 8683TIP3    H247465   2.191   4.197   3.527 -0.0302 -0.4400 -2.1825
 8684TIP3   OH247466   1.501   6.448   3.486 -0.3320 -0.1665  0.3871
 8684TIP3    H147467   1.565   6.508   3.524 -1.2668  1.0685  0.0761
 8684TIP3    H247468   1.547   6.364   3.482  1.0973  0.5610  0.6251
 8685TIP3   OH247469   2.562   3.172  13.630  0.0968 -0.4720  0.0852
 8685TIP3    H147470   2.635   3.118  13.660  0.2556 -1.0368 -1.2451
 8685TIP3    H247471   2.569   3.252  13.682  0.6842 -1.1744  1.1201
 8686TIP3   OH247472   2.902   4.584   2.366  0.2977 -0.0656 -0.3197
 8686TIP3    H147473   2.970   4.582   2.433 -0.4388 -0.7598  0.4355
 8686TIP3    H247474   2.822   4.559   2.413 -0.4900  0.7576 -1.1735
 8687TIP3   OH247475   5.863   1.187  15.772 -0.3860 -0.0019  0.1752
 8687TIP3    H147476   5.791   1.193  15.709 -1.1437  0.3985  1.0595
 8687TIP3    H247477   5.871   1.093  15.790 -0.4255 -0.0819 -0.2274
 8688TIP3   OH247478   5.365   0.111   2.142  0.1457  0.3967  0.1228
 8688TIP3    H147479   5.385   0.155   2.225  0.5923 -0.0982  0.2883
 8688TIP3    H247480   5.289   0.158   2.107 -0.4229  0.2307  1.1051
 8689TIP3   OH247481   1.691   2.954  16.152 -0.3818  0.1276  0.0724
 8689TIP3    H147482   1.638   3.033  16.145 -1.2376 -0.3000  1.4728
 8689TIP3    H247483   1.659   2.897  16.082 -1.1569  0.2212  0.3508
 8690TIP3   OH247484   1.721   0.595  16.263  0.2486  0.1746 -0.3686
 8690TIP3    H147485   1.657   0.653  16.222  1.0710  1.2781 -0.1569
 8690TIP3    H247486   1.698   0.508  16.232 -0.3259  0.7478 -1.6519
 8691TIP3   OH247487   4.619   0.457   0.470  0.2709 -0.1874 -1.1797
 8691TIP3    H147488   4.587   0.480   0.558 -0.5041 -1.2134 -1.1797
 8691TIP3    H247489   4.631   0.362   0.473  0.8821 -0.1472 -1.9927
 8692TIP3   OH247490   0.377   4.007  12.726 -0.1819  0.1744 -0.2843
 8692TIP3    H147491   0.450   3.972  12.675 -0.4895 -0.4627 -0.2988
 8692TIP3    H247492   0.408   4.092  12.758  1.2435 -0.8415  1.1651
 8693TIP3   OH247493   6.682   4.983  14.731 -0.0484 -0.3050 -0.2150
 8693TIP3    H147494   6.669   4.908  14.790 -1.2274 -1.6003 -1.9956
 8693TIP3    H247495   6.766   4.965  14.689  1.0197  0.8583  1.3213
 8694TIP3   OH247496   2.819   5.349  14.673  0.3894 -0.7448 -0.0967
 8694TIP3    H147497   2.752   5.294  14.713  0.5588 -0.8393  0.0614
 8694TIP3    H247498   2.786   5.439  14.683 -0.7509 -0.9027 -1.9653
 8695TIP3   OH247499   0.047   6.610  11.127 -0.0285 -0.3726 -0.3276
 8695TIP3    H147500   0.082   6.602  11.038  1.1031  1.0466 -0.0623
 8695TIP3    H247501  -0.003   6.692  11.125 -0.8112 -0.8268  0.1108
 8696TIP3   OH247502   2.013   5.475  14.786 -0.7068  0.3173  0.2343
 8696TIP3    H147503   2.006   5.391  14.831  0.0051 -0.0861 -0.3660
 8696TIP3    H247504   2.084   5.521  14.831  0.0878 -0.1357 -0.5137
 8697TIP3   OH247505   4.364   0.171  16.496  0.2723 -0.1456  0.1195
 8697TIP3    H147506   4.379   0.103  16.562 -0.5471  1.1509  1.7153
 8697TIP3    H247507   4.397   0.251  16.536 -2.1312  1.0620 -0.1182
 8698TIP3   OH247508   1.789   1.073   2.311 -0.2855 -0.1640  0.2784
 8698TIP3    H147509   1.760   1.038   2.227 -0.3597 -0.9916  0.6334
 8698TIP3    H247510   1.836   1.000   2.352  1.8366  0.9318 -0.0411
 8699TIP3   OH247511   1.207   5.778  16.439  0.4050  0.4610 -0.5561
 8699TIP3    H147512   1.282   5.789  16.380  0.9570 -1.8387 -0.4123
 8699TIP3    H247513   1.224   5.838  16.511  0.8341  1.7416 -1.6851
 8700TIP3   OH247514   0.451   5.808   1.711 -0.1746  0.2862  0.2524
 8700TIP3    H147515   0.413   5.846   1.790  2.6408  2.9525  0.4834
 8700TIP3    H247516   0.433   5.873   1.643  0.3464 -0.4087 -0.5633
 8701TIP3   OH247517   3.514   1.716   3.316 -0.5765  0.2574 -0.5130
 8701TIP3    H147518   3.483   1.790   3.262  1.5657  2.2763  0.8553
 8701TIP3    H247519   3.588   1.680   3.267 -0.1280  0.5654 -0.0694
 8702TIP3   OH247520   5.126   6.036   5.626 -0.2684 -0.9189 -0.0522
 8702TIP3    H147521   5.135   5.954   5.674 -1.2311 -0.0869  1.6518
 8702TIP3    H247522   5.041   6.028   5.582 -0.6682 -0.6115  0.6400
 8703TIP3   OH247523   6.369   1.336  16.297 -0.0047 -0.7284  0.2259
 8703TIP3    H147524   6.293   1.338  16.355  0.1007 -0.9633  0.3755
 8703TIP3    H247525   6.381   1.427  16.270 -0.7026 -0.7799 -0.2845
 8704TIP3   OH247526   6.616   0.750   3.417  0.2932  0.0501  0.1919
 8704TIP3    H147527   6.558   0.793   3.355  0.5811  0.3649  0.1346
 8704TIP3    H247528   6.564   0.679   3.455 -0.5340  1.1096  1.0775
 8705TIP3   OH247529   3.251   6.161   5.457  0.3156  0.2751  0.1356
 8705TIP3    H147530   3.164   6.121   5.467 -1.0820  3.1512  0.6259
 8705TIP3    H247531   3.264   6.165   5.362 -0.7817  1.1023 -0.0023
 8706TIP3   OH247532   3.092   6.036  11.259  0.2449  0.3242  0.0138
 8706TIP3    H147533   3.010   6.084  11.270 -0.7966 -1.3116 -0.2683
 8706TIP3    H247534   3.080   5.955  11.309  2.1271  0.5093  0.8782
 8707TIP3   OH247535   0.005   3.888   4.082  0.2329 -0.3252 -0.6639
 8707TIP3    H147536  -0.075   3.934   4.057  1.4010  1.2527 -1.7668
 8707TIP3    H247537   0.029   3.926   4.167  0.5154  0.2425 -0.9840
 8708TIP3   OH247538   6.418   3.009  15.329 -0.3326 -0.3028 -0.1974
 8708TIP3    H147539   6.491   3.034  15.385 -1.0254 -0.5167  0.8365
 8708TIP3    H247540   6.376   3.092  15.306 -1.5979 -0.3219  1.7992
 8709TIP3   OH247541   6.536   5.118   3.763 -0.9669  0.6040  0.2680
 8709TIP3    H147542   6.562   5.208   3.782  0.5811  0.2103  0.1864
 8709TIP3    H247543   6.557   5.070   3.843  0.6211 -0.1129 -0.5256
 8710TIP3   OH247544   5.087   6.341   5.446  0.0933 -0.2840  0.3633
 8710TIP3    H147545   5.142   6.292   5.384  0.7710  1.4317 -0.4630
 8710TIP3    H247546   5.001   6.301   5.438  0.5847 -1.2573 -0.3665
 8711TIP3   OH247547   3.882   2.131  13.306 -0.1752  0.1316  0.7169
 8711TIP3    H147548   3.962   2.141  13.255  0.5419 -1.0134  1.5764
 8711TIP3    H247549   3.887   2.043  13.343 -2.2737 -0.3285  0.0704
 8712TIP3   OH247550   4.642   0.539  12.340 -0.4411 -0.1697  0.5294
 8712TIP3    H147551   4.708   0.499  12.283 -0.8645 -1.0032  0.6187
 8712TIP3    H247552   4.593   0.597  12.282  0.8198  1.0596  0.6069
 8713TIP3   OH247553   5.385   0.166  10.715 -0.0171 -0.8337 -0.1065
 8713TIP3    H147554   5.435   0.189  10.636 -0.5652 -1.0064 -0.5102
 8713TIP3    H247555   5.294   0.180  10.690 -0.1211  0.8804  1.0852
 8714TIP3   OH247556   3.075   4.291   5.463 -0.4502  0.2210  0.1053
 8714TIP3    H147557   3.094   4.240   5.542  0.3460  0.4129  0.0489
 8714TIP3    H247558   3.095   4.381   5.489 -0.0580  0.2667 -0.3601
 8715TIP3   OH247559   3.455   6.446   3.988  0.3224  0.5388  0.5311
 8715TIP3    H147560   3.543   6.436   3.950 -0.2272 -3.8953 -0.1175
 8715TIP3    H247561   3.400   6.472   3.914  0.9269  2.8838  0.8436
 8716TIP3   OH247562   5.141   6.779  15.056  0.5533 -0.8246 -0.1549
 8716TIP3    H147563   5.138   6.851  14.994 -1.0821 -0.7929 -0.0686
 8716TIP3    H247564   5.158   6.701  15.002 -0.1678 -0.7048 -0.5596
 8717TIP3   OH247565   2.912   0.047   5.501 -0.0852 -0.0687 -0.2966
 8717TIP3    H147566   3.008   0.050   5.507 -0.1603  2.1011  0.6448
 8717TIP3    H247567   2.894   0.045   5.407  0.8687 -1.3682 -0.4807
 8718TIP3   OH247568   0.222   5.980   0.063 -0.1766 -0.0771 -0.0889
 8718TIP3    H147569   0.180   5.912   0.011  0.2327 -0.9480  0.6886
 8718TIP3    H247570   0.249   6.047  -0.001 -2.6553  0.5045 -0.6126
 8719TIP3   OH247571   3.162   1.558   5.115  0.0055 -0.0732 -0.2885
 8719TIP3    H147572   3.225   1.488   5.131 -0.6440 -0.5641  0.1804
 8719TIP3    H247573   3.078   1.513   5.109 -0.4180  0.6712  0.0049
 8720TIP3   OH247574   5.877   4.811  12.807  0.2484  0.2665  0.3958
 8720TIP3    H147575   5.957   4.860  12.828  1.2441 -0.0533 -2.2808
 8720TIP3    H247576   5.842   4.855  12.730 -1.4933 -0.3958  0.7614
 8721TIP3   OH247577   4.610   1.198   3.119  0.0406 -0.2942  0.7217
 8721TIP3    H147578   4.540   1.252   3.081 -0.4041 -1.4071 -0.0983
 8721TIP3    H247579   4.654   1.256   3.181  0.2150  1.3225 -0.8323
 8722TIP3   OH247580   0.170   3.685   2.953 -0.0136 -0.6138  0.4090
 8722TIP3    H147581   0.225   3.699   3.030 -0.5673  0.5416  0.6156
 8722TIP3    H247582   0.081   3.681   2.988 -0.4542  1.5921 -0.2785
 8723TIP3   OH247583   1.614   2.240  15.976  0.0171  0.3230 -0.4066
 8723TIP3    H147584   1.522   2.267  15.981  0.3815  1.8294 -1.4060
 8723TIP3    H247585   1.614   2.151  16.012 -1.5991  0.8044  0.9032
 8724TIP3   OH247586   4.255   4.624  13.902  0.0818  0.1700 -0.1872
 8724TIP3    H147587   4.239   4.623  13.996 -0.9105  2.5570 -0.2525
 8724TIP3    H247588   4.174   4.589  13.864  1.2691 -2.8577 -0.1913
 8725TIP3   OH247589   0.127   0.590   2.211  0.2502  0.3264  0.1336
 8725TIP3    H147590   0.182   0.560   2.283  0.6006  2.5943  0.8891
 8725TIP3    H247591   0.040   0.557   2.231  0.6808 -0.5279  0.6550
 8726TIP3   OH247592   2.034   2.800  12.713  0.1738 -0.0208  0.3011
 8726TIP3    H147593   1.968   2.743  12.674 -0.4792 -1.2050  2.9041
 8726TIP3    H247594   2.108   2.796  12.652 -1.2278 -0.5959 -1.4626
 8727TIP3   OH247595   3.632   6.108   3.012 -0.0713  0.8108 -0.5936
 8727TIP3    H147596   3.727   6.108   3.025 -0.1863  0.1151  0.3706
 8727TIP3    H247597   3.619   6.159   2.932  1.2511 -0.5631 -1.7523
 8728TIP3   OH247598   5.874   3.658   0.060  0.1635  0.2444  0.1686
 8728TIP3    H147599   5.955   3.617   0.027 -0.0288  1.0832 -1.4451
 8728TIP3    H247600   5.842   3.596   0.125  1.7309 -0.4544  0.3436
 8729TIP3   OH247601   4.916   1.328  11.957 -0.3027 -0.7311  0.0252
 8729TIP3    H147602   4.990   1.267  11.967 -0.1065 -0.5158 -0.1136
 8729TIP3    H247603   4.920   1.383  12.035  2.2399  2.0545 -1.8522
 8730TIP3   OH247604   2.455   3.990  13.400  0.4553  0.3001 -0.2789
 8730TIP3    H147605   2.431   4.083  13.398 -0.3012  0.0993 -2.7926
 8730TIP3    H247606   2.382   3.947  13.444 -1.6534  0.3419 -3.4488
 8731TIP3   OH247607   3.079   3.606  10.783 -0.0878  0.0643  0.0650
 8731TIP3    H147608   3.053   3.531  10.729 -1.2866  0.4993 -0.0105
 8731TIP3    H247609   2.997   3.634  10.825 -0.2008  2.7450 -1.7124
 8732TIP3   OH247610   3.001   0.167  12.392  0.3321  0.6997  0.2144
 8732TIP3    H147611   3.012   0.178  12.297  0.4970  0.5116  0.2112
 8732TIP3    H247612   2.925   0.221  12.413  0.2982  0.7496 -0.0244
 8733TIP3   OH247613   3.796   1.195   1.023  0.2959 -0.1704 -0.1680
 8733TIP3    H147614   3.828   1.268   1.077 -0.2018 -0.1535  0.1139
 8733TIP3    H247615   3.858   1.124   1.040  0.1758 -0.1462  0.3902
 8734TIP3   OH247616   0.149   1.863   3.174  0.3076  0.2641 -0.2775
 8734TIP3    H147617   0.231   1.829   3.212 -0.5707 -1.4346  0.2060
 8734TIP3    H247618   0.145   1.953   3.205  1.7550  0.2296  0.1082
 8735TIP3   OH247619   2.307   6.752   2.467 -0.2104 -0.2051 -0.0695
 8735TIP3    H147620   2.311   6.845   2.491 -0.0972  0.4393 -2.3046
 8735TIP3    H247621   2.251   6.750   2.389  0.7259 -1.8409 -0.7505
 8736TIP3   OH247622   0.969   5.248   1.430  0.5573  0.5135 -0.4665
 8736TIP3    H147623   1.005   5.204   1.507  0.5687 -0.4307 -1.0013
 8736TIP3    H247624   0.962   5.340   1.456 -0.3594  0.0603  0.9954
 8737TIP3   OH247625   5.377   0.431   5.043  0.1600 -0.0860 -0.1531
 8737TIP3    H147626   5.424   0.446   4.961 -0.2024  0.7723 -0.2170
 8737TIP3    H247627   5.285   0.449   5.022 -0.0076 -0.3759  0.3114
 8738TIP3   OH247628   2.693   6.109  16.399  0.3758 -0.3254 -0.0639
 8738TIP3    H147629   2.628   6.125  16.330  1.3015 -2.4220 -1.5206
 8738TIP3    H247630   2.642   6.070  16.470 -0.0840 -1.4214 -0.9666
 8739TIP3   OH247631   2.620   1.210   3.981  0.1538 -0.3302  0.3232
 8739TIP3    H147632   2.592   1.126   4.018 -2.8860  0.5402  0.3279
 8739TIP3    H247633   2.603   1.202   3.887 -0.9731  0.5128  0.4342
 8740TIP3   OH247634   1.341   2.364  13.697  0.5226 -0.2866  0.1824
 8740TIP3    H147635   1.373   2.367  13.607 -1.2891  0.3689 -0.4985
 8740TIP3    H247636   1.288   2.284  13.701  0.2527 -0.0950  0.5176
 8741TIP3   OH247637   1.308   0.336  16.271  0.0688  0.5976  0.5377
 8741TIP3    H147638   1.373   0.385  16.322 -0.0999  0.4661  0.8834
 8741TIP3    H247639   1.358   0.300  16.197  0.0418  1.9488 -0.1718
 8742TIP3   OH247640   4.629   5.589   5.436 -0.2005  0.0945  0.4716
 8742TIP3    H147641   4.551   5.543   5.403  0.5794 -1.8806  1.2158
 8742TIP3    H247642   4.652   5.650   5.366  0.1816 -2.4457 -1.8117
 8743TIP3   OH247643   4.558   0.859   0.139 -0.1786 -0.3431 -0.5819
 8743TIP3    H147644   4.472   0.882   0.174 -0.1877 -1.2264  0.0112
 8743TIP3    H247645   4.583   0.781   0.188  1.0211 -0.0222 -0.6637
 8744TIP3   OH247646   0.308   0.615   4.581 -0.2681  0.2098 -0.2546
 8744TIP3    H147647   0.300   0.574   4.667  1.3048 -0.0562 -0.2013
 8744TIP3    H247648   0.286   0.547   4.518  1.9617 -0.7022 -0.1527
 8745TIP3   OH247649   1.372   2.281   3.812 -0.0149  0.0103  0.3405
 8745TIP3    H147650   1.295   2.295   3.867 -0.0892 -0.0584  0.2535
 8745TIP3    H247651   1.404   2.195   3.837  1.0091  0.7078  1.5723
 8746TIP3   OH247652   5.122   0.998   1.869  0.0464  0.3677 -0.0472
 8746TIP3    H147653   5.184   0.926   1.863 -1.3147 -0.7666 -1.5160
 8746TIP3    H247654   5.065   0.974   1.943  0.2193  0.4497  0.1117
 8747TIP3   OH247655   3.923   2.610  16.184  0.1203  0.5249  0.5340
 8747TIP3    H147656   3.978   2.641  16.111  0.6430 -2.6930 -0.5766
 8747TIP3    H247657   3.914   2.687  16.241  3.3427  2.0228 -0.7165
 8748TIP3   OH247658   0.698   4.830   3.615 -0.2620  0.2537  0.4291
 8748TIP3    H147659   0.689   4.762   3.682 -2.3290 -0.3112 -0.3384
 8748TIP3    H247660   0.748   4.899   3.657 -0.1886 -0.7298  2.0355
 8749TIP3   OH247661   2.845   5.701   2.340  0.2928 -0.1407 -0.1453
 8749TIP3    H147662   2.824   5.698   2.246  0.0377 -2.3591 -0.0651
 8749TIP3    H247663   2.937   5.726   2.343 -0.0399  1.2617 -0.9053
 8750TIP3   OH247664   6.589   0.701  11.050 -0.5278  0.4347 -0.6396
 8750TIP3    H147665   6.497   0.715  11.025 -1.0484 -1.1483  0.1956
 8750TIP3    H247666   6.597   0.744  11.135  0.0783  2.2002 -1.5288
 8751TIP3   OH247667   1.354   0.961  17.067 -0.1931  0.1329 -0.0044
 8751TIP3    H147668   1.387   1.049  17.083  0.4967 -0.1459  0.1584
 8751TIP3    H247669   1.428   0.904  17.088 -1.2106 -0.6103  1.7560
 8752TIP3   OH247670   3.496   6.347  11.931  0.4551  0.3150  0.3703
 8752TIP3    H147671   3.502   6.358  12.026  2.0087 -0.7586  0.4405
 8752TIP3    H247672   3.493   6.252  11.918 -2.6234  0.4518 -0.5649
 8753TIP3   OH247673   4.515   3.976  12.528  0.8386  0.2436  0.2703
 8753TIP3    H147674   4.569   3.935  12.595  0.3060  0.4382  0.8358
 8753TIP3    H247675   4.449   3.910  12.506  0.2483  0.6212  0.8628
 8754TIP3   OH247676   5.945   1.724  11.399 -0.3550  0.2492  0.2731
 8754TIP3    H147677   5.916   1.633  11.407 -1.6517  0.3408 -2.4127
 8754TIP3    H247678   5.869   1.771  11.366  0.4723  2.2357  1.0375
 8755TIP3   OH247679   0.257   2.275   1.775 -0.2818 -0.2941  0.6369
 8755TIP3    H147680   0.275   2.368   1.786 -0.5928 -0.1764  0.1514
 8755TIP3    H247681   0.309   2.233   1.844  0.9816  0.1268 -0.0232
 8756TIP3   OH247682   0.613   0.195  16.420 -0.5389 -0.0994  0.0813
 8756TIP3    H147683   0.595   0.195  16.326  0.2222  0.1451 -0.0751
 8756TIP3    H247684   0.596   0.105  16.448 -0.9075 -0.1383 -0.2624
 8757TIP3   OH247685   0.455   1.435  11.071 -0.2672 -0.0551  0.3638
 8757TIP3    H147686   0.478   1.504  11.009 -1.2958 -0.1264 -0.1307
 8757TIP3    H247687   0.391   1.381  11.024 -1.3703  0.1113  1.5954
 8758TIP3   OH247688   0.974   2.194   3.505  0.0245  0.1381  0.1287
 8758TIP3    H147689   0.971   2.178   3.600 -0.5813  0.5245  0.1848
 8758TIP3    H247690   1.067   2.208   3.486  0.4277 -2.0545  0.2909
 8759TIP3   OH247691   2.365   4.715  15.007 -0.2081  0.0812  0.1914
 8759TIP3    H147692   2.300   4.753  14.948  1.0465  1.6080 -0.2778
 8759TIP3    H247693   2.334   4.626  15.023 -1.1800 -0.0052 -1.8712
 8760TIP3   OH247694   6.155   6.005   1.246  0.0208  0.2183 -0.7864
 8760TIP3    H147695   6.099   5.986   1.171 -0.5371 -0.0453 -0.3081
 8760TIP3    H247696   6.236   5.956   1.229 -0.1303  0.1012 -1.1775
 8761TIP3   OH247697   4.414   3.623   1.382 -0.1868  0.5504  0.4323
 8761TIP3    H147698   4.448   3.680   1.313 -2.9116  0.1248 -1.4568
 8761TIP3    H247699   4.469   3.545   1.378  0.4088  0.9948 -0.5194
 8762TIP3   OH247700   2.021   1.499   5.785 -0.3248 -0.3130  0.0034
 8762TIP3    H147701   1.997   1.568   5.723 -0.7012 -0.9711 -0.6036
 8762TIP3    H247702   2.078   1.542   5.848  1.6932 -0.0058 -1.8899
 8763TIP3   OH247703   3.329   6.353   4.582  0.5078 -0.0358  0.3635
 8763TIP3    H147704   3.261   6.370   4.518  0.6735  1.7975  0.6334
 8763TIP3    H247705   3.407   6.333   4.531 -0.0262 -1.4679  0.0529
 8764TIP3   OH247706   4.946   2.292   4.498  0.2716 -0.6237 -0.1782
 8764TIP3    H147707   4.885   2.262   4.430  0.8559  0.6451 -1.3122
 8764TIP3    H247708   4.922   2.383   4.512 -0.0462 -0.9565  1.5946
 8765TIP3   OH247709   1.582   1.584   0.516 -0.1839  0.1379  1.0024
 8765TIP3    H147710   1.544   1.497   0.527  0.7821 -0.2605  1.3301
 8765TIP3    H247711   1.525   1.629   0.454 -0.2550 -1.0042  0.2293
 8766TIP3   OH247712   3.698   2.022   3.127 -0.0953 -0.2032  0.3101
 8766TIP3    H147713   3.731   2.052   3.212 -1.0065  1.0323  0.2552
 8766TIP3    H247714   3.606   2.000   3.144 -0.2756  0.0258 -0.3455
 8767TIP3   OH247715   2.850   0.500   1.285 -0.4394  0.2946 -0.1332
 8767TIP3    H147716   2.839   0.494   1.380  0.4971  3.2355  0.2776
 8767TIP3    H247717   2.814   0.586   1.263 -0.1209 -0.0920 -2.3692
 8768TIP3   OH247718   4.227   0.755  11.436 -0.4540 -0.1785 -0.0370
 8768TIP3    H147719   4.171   0.698  11.488 -2.0521  0.7412 -0.6762
 8768TIP3    H247720   4.241   0.707  11.354  0.9658 -1.0492  0.6841
 8769TIP3   OH247721   0.382   0.880   0.997 -0.6731 -0.6341 -0.0684
 8769TIP3    H147722   0.406   0.951   1.057  1.1854  0.3655 -1.8932
 8769TIP3    H247723   0.443   0.809   1.018 -0.1760 -0.3687 -0.5941
 8770TIP3   OH247724   1.794   4.509   2.263 -0.2668 -0.3723 -0.6651
 8770TIP3    H147725   1.708   4.468   2.260  0.0293 -1.1407  0.6457
 8770TIP3    H247726   1.804   4.550   2.177 -0.5038 -3.2174 -2.1549
 8771TIP3   OH247727   5.694   0.991  15.107 -0.9473 -0.3363 -0.4379
 8771TIP3    H147728   5.638   0.973  15.032 -0.8215  0.3775 -0.7047
 8771TIP3    H247729   5.663   1.074  15.141  0.8715  0.8383 -1.4759
 8772TIP3   OH247730   0.707   2.504   5.769  0.1552 -0.1688  0.0626
 8772TIP3    H147731   0.782   2.511   5.828 -0.1786  0.1205  0.4616
 8772TIP3    H247732   0.742   2.530   5.683  1.3255 -3.1607 -0.5033
 8773TIP3   OH247733   0.447   2.443   4.609  0.5842 -0.0020  0.4772
 8773TIP3    H147734   0.380   2.425   4.543  1.7133 -0.0219 -0.7195
 8773TIP3    H247735   0.492   2.520   4.576  1.4968 -0.3107  0.9728
 8774TIP3   OH247736   3.372   5.540  10.776 -0.3695 -0.1264  0.5232
 8774TIP3    H147737   3.337   5.526  10.864 -0.9761  2.3029  0.7364
 8774TIP3    H247738   3.356   5.633  10.758  0.9780 -0.2388 -1.6212
 8775TIP3   OH247739   6.716   6.082   3.643  0.5316  0.0918  0.9842
 8775TIP3    H147740   6.711   6.168   3.601  0.9373 -0.4530 -0.2436
 8775TIP3    H247741   6.625   6.056   3.656  0.2943 -0.6934 -1.7097
 8776TIP3   OH247742   0.941   5.593   1.964 -0.8316  0.1251 -0.5673
 8776TIP3    H147743   0.907   5.681   1.981 -1.0807 -0.0579 -0.1116
 8776TIP3    H247744   1.036   5.604   1.965 -0.8392  0.1355  0.8777
 8777TIP3   OH247745   0.511   2.793   5.657  0.1700 -0.2202  0.3026
 8777TIP3    H147746   0.585   2.846   5.628 -0.0785 -0.7016 -1.2794
 8777TIP3    H247747   0.541   2.751   5.737  1.3383  0.1814  0.0862
 8778TIP3   OH247748   5.106   1.978   5.402 -0.3018  0.1018 -0.5267
 8778TIP3    H147749   5.096   1.896   5.449 -0.1303 -0.9264 -2.1855
 8778TIP3    H247750   5.171   1.959   5.334 -2.1884  0.7796 -2.6477
 8779TIP3   OH247751   2.660   2.559   0.934 -0.1263  0.0236  0.4559
 8779TIP3    H147752   2.578   2.517   0.908 -1.4449  1.7267  1.6286
 8779TIP3    H247753   2.660   2.642   0.887  1.6709 -0.5183 -0.6183
 8780TIP3   OH247754   1.561   3.222  14.936 -0.6825 -0.3300  0.3073
 8780TIP3    H147755   1.543   3.316  14.941  0.4693 -0.1310  1.7469
 8780TIP3    H247756   1.571   3.204  14.843 -1.3912  0.8809 -0.0233
 8781TIP3   OH247757   6.349   0.291   5.771 -0.3010  0.0051 -0.2912
 8781TIP3    H147758   6.345   0.207   5.816  1.0498  0.6105  1.0405
 8781TIP3    H247759   6.398   0.273   5.691  2.3360 -0.0344  1.2315
 8782TIP3   OH247760   3.594   2.542   0.413  0.0691 -0.1739  0.1605
 8782TIP3    H147761   3.517   2.549   0.470 -0.1456 -0.4511 -0.0877
 8782TIP3    H247762   3.596   2.449   0.387  0.0792 -0.0209 -0.3970
 8783TIP3   OH247763   1.886   5.011   2.158 -0.0706 -0.1358  0.7026
 8783TIP3    H147764   1.937   4.934   2.182  0.4490  0.5137  1.7828
 8783TIP3    H247765   1.936   5.085   2.193  0.5223  0.9109 -2.0736
 8784TIP3   OH247766   4.248   3.274   1.735 -0.2108 -0.5239  0.2111
 8784TIP3    H147767   4.334   3.302   1.707  0.0491 -0.1654  1.3147
 8784TIP3    H247768   4.195   3.274   1.656  0.8837 -1.0859 -0.5372
 8785TIP3   OH247769   1.839   4.495   3.677  0.6879 -0.6971  0.3080
 8785TIP3    H147770   1.933   4.486   3.688  0.7058 -0.9163 -0.0145
 8785TIP3    H247771   1.815   4.570   3.732  0.7585 -1.7769  1.8843
 8786TIP3   OH247772   1.423   3.795   5.278  0.0335  0.1951  0.4098
 8786TIP3    H147773   1.476   3.715   5.275  0.4591  0.4782 -3.1030
 8786TIP3    H247774   1.466   3.850   5.344  1.4145 -1.3362  0.8385
 8787TIP3   OH247775   5.363   5.307  17.063 -0.1608  0.2524 -0.4345
 8787TIP3    H147776   5.441   5.267  17.103 -0.6583  0.9545  1.3567
 8787TIP3    H247777   5.319   5.351  17.136 -0.7536  2.2648 -1.9386
 8788TIP3   OH247778   4.435   1.450  12.173  0.3531  0.0081  0.2378
 8788TIP3    H147779   4.424   1.444  12.268 -3.2648  0.3903 -0.0254
 8788TIP3    H247780   4.427   1.544  12.154 -0.4538 -0.1962 -0.5290
 8789TIP3   OH247781   5.587   3.066  11.892  0.4015  0.4695  0.2687
 8789TIP3    H147782   5.639   3.147  11.894  1.3660 -0.1403  0.2980
 8789TIP3    H247783   5.652   2.996  11.884 -0.5257 -0.2015 -2.0277
 8790TIP3   OH247784   2.615   4.500   5.789  0.3041 -0.1098 -0.5262
 8790TIP3    H147785   2.522   4.508   5.770 -0.6304 -1.1758  2.8439
 8790TIP3    H247786   2.656   4.573   5.743 -2.3669  1.1484 -1.0773
 8791TIP3   OH247787   1.617   1.519   3.183 -0.4336  0.5296  0.3860
 8791TIP3    H147788   1.602   1.444   3.126 -2.8355  0.7122  0.6781
 8791TIP3    H247789   1.673   1.486   3.253  1.9046  0.1069 -1.5825
 8792TIP3   OH247790   6.613   5.892   1.090  0.0062  0.5590 -0.0036
 8792TIP3    H147791   6.629   5.829   1.020 -0.1475  0.2721  0.2170
 8792TIP3    H247792   6.698   5.935   1.103 -0.4825  2.2724 -1.9478
 8793TIP3   OH247793   2.211   5.417  12.836  0.0907  0.3081 -0.6512
 8793TIP3    H147794   2.210   5.512  12.833 -1.1635  0.3152 -0.5255
 8793TIP3    H247795   2.263   5.391  12.760  0.6762  1.0907 -0.5304
 8794TIP3   OH247796   4.123   1.456   6.309 -0.4115  0.7495  0.1931
 8794TIP3    H147797   4.218   1.463   6.310 -0.3549  0.1303  1.5461
 8794TIP3    H247798   4.093   1.530   6.363 -0.6365  0.4465  0.4910
 8795TIP3   OH247799   0.909   0.402  12.187 -0.0720 -0.1761 -0.8892
 8795TIP3    H147800   0.840   0.438  12.131 -0.6269  0.0877 -0.0611
 8795TIP3    H247801   0.867   0.331  12.235 -0.3260  1.1901  1.0151
 8796TIP3   OH247802   5.978   2.434   5.234 -0.0502  0.0503 -0.7307
 8796TIP3    H147803   5.993   2.493   5.308  0.6231 -0.4252 -0.4768
 8796TIP3    H247804   6.061   2.388   5.223 -0.2516 -0.1242 -1.5738
 8797TIP3   OH247805   2.313   4.178  12.963  0.2966 -0.9811 -0.1977
 8797TIP3    H147806   2.249   4.184  12.891 -1.4232  2.7941  1.3794
 8797TIP3    H247807   2.271   4.120  13.026 -1.5359  1.0318  0.5820
 8798TIP3   OH247808   3.775   5.707  16.495 -0.3502 -0.0153 -0.3301
 8798TIP3    H147809   3.794   5.722  16.587 -0.9653  0.1469 -0.2293
 8798TIP3    H247810   3.831   5.633  16.471  1.0679  0.9996 -0.2676
 8799TIP3   OH247811   4.806   5.872   2.793 -0.0351  0.3238 -0.2807
 8799TIP3    H147812   4.713   5.880   2.775  0.1365  1.8521 -0.6143
 8799TIP3    H247813   4.839   5.818   2.721 -0.8029 -1.1696  0.4345
 8800TIP3   OH247814   5.088   5.274   3.230  0.1274  0.1332  0.4033
 8800TIP3    H147815   5.055   5.196   3.274  0.7060 -0.5730 -0.3880
 8800TIP3    H247816   5.102   5.338   3.300  0.3490 -0.7223  1.1465
 8801TIP3   OH247817   4.013   0.105   0.462 -0.2616 -0.0442  0.0218
 8801TIP3    H147818   3.978   0.083   0.376 -0.7107  0.4590  0.0668
 8801TIP3    H247819   3.962   0.052   0.523  1.1405 -1.6274 -0.1113
 8802TIP3   OH247820   2.679   5.948   2.576  0.2600  0.4538 -1.0199
 8802TIP3    H147821   2.732   5.967   2.653  1.1294 -2.4031 -0.8371
 8802TIP3    H247822   2.606   6.010   2.583  1.0535  1.2527  1.2924
 8803TIP3   OH247823   4.691   1.960  11.105  0.5334  0.2529  0.2445
 8803TIP3    H147824   4.612   1.905  11.114  1.0413 -0.6503 -0.6238
 8803TIP3    H247825   4.752   1.924  11.170  0.1289  1.1600  1.1423
 8804TIP3   OH247826   5.296   2.162  12.302  0.2014  0.2632 -0.4434
 8804TIP3    H147827   5.344   2.081  12.284  0.3461  0.3387 -0.3995
 8804TIP3    H247828   5.271   2.196  12.216  0.1399  0.1725 -0.4619
 8805TIP3   OH247829   6.388   5.083  13.692 -0.2197 -0.5764  0.7025
 8805TIP3    H147830   6.311   5.138  13.708 -2.2701 -3.4702  1.6157
 8805TIP3    H247831   6.450   5.106  13.761 -0.0216  2.0068 -0.2148
 8806TIP3   OH247832   2.111   6.343   3.585  0.1610  0.6040 -0.3512
 8806TIP3    H147833   2.059   6.421   3.565 -0.5391  0.3091  0.2417
 8806TIP3    H247834   2.115   6.295   3.503 -0.7371  0.5085 -0.3549
 8807TIP3   OH247835   0.326   0.092   3.242  0.3509 -0.9175 -0.6663
 8807TIP3    H147836   0.246   0.043   3.264  1.2336 -2.5757 -0.9601
 8807TIP3    H247837   0.383   0.079   3.318  0.5543 -0.2060 -0.6911
 8808TIP3   OH247838   5.367   3.999   3.301  0.1397  0.6108 -0.1098
 8808TIP3    H147839   5.307   3.962   3.236  0.1907 -2.0583  1.2270
 8808TIP3    H247840   5.310   4.031   3.371  0.1822  0.1876  0.1226
 8809TIP3   OH247841   0.846   0.474  11.490 -0.6428 -0.0879 -0.7517
 8809TIP3    H147842   0.755   0.502  11.504 -0.7619 -0.9148  0.2601
 8809TIP3    H247843   0.854   0.465  11.395 -0.6640  3.0498 -1.1506
 8810TIP3   OH247844   5.144   0.829  12.518 -0.7167  0.2991  0.1553
 8810TIP3    H147845   5.162   0.797  12.429  0.3939  0.6687  0.2299
 8810TIP3    H247846   5.143   0.924  12.509  0.2706  0.3711  0.6728
 8811TIP3   OH247847   4.288   5.971  14.992  0.1543  0.1911 -0.3777
 8811TIP3    H147848   4.274   5.878  15.012 -1.5623  0.7204  1.1682
 8811TIP3    H247849   4.315   6.010  15.076  1.2660  1.0433 -1.0979
 8812TIP3   OH247850   6.119   0.034   0.035  0.1660 -0.1883  0.0905
 8812TIP3    H147851   6.191  -0.014   0.077  1.5336  1.2815 -0.4792
 8812TIP3    H247852   6.148   0.125   0.033 -0.6758  0.1084 -2.2394
 8813TIP3   OH247853   1.271   6.597   1.086  0.4370  0.2148  0.1201
 8813TIP3    H147854   1.281   6.570   1.177 -0.0457 -1.6150 -0.3240
 8813TIP3    H247855   1.250   6.516   1.039 -1.2001  1.4138 -1.3270
 8814TIP3   OH247856   3.492   0.017   5.785 -0.3053  0.3599 -0.0361
 8814TIP3    H147857   3.408   0.059   5.803 -0.0819  0.4306  0.9198
 8814TIP3    H247858   3.477  -0.034   5.706 -1.2225  0.4500  0.0680
 8815TIP3   OH247859   5.736   3.233   0.405  0.0136 -0.0703  0.0111
 8815TIP3    H147860   5.694   3.177   0.471 -0.7421  0.1097 -0.3051
 8815TIP3    H247861   5.788   3.172   0.352  0.3097 -0.2713  0.5288
 8816TIP3   OH247862   0.571   5.631  13.680  0.2975  0.0796  0.0961
 8816TIP3    H147863   0.641   5.676  13.727  0.4050  0.0938 -0.0740
 8816TIP3    H247864   0.493   5.682  13.698  0.3962  0.2640  0.0039
 8817TIP3   OH247865   1.604   1.813   4.831  0.3689  0.2191  0.0668
 8817TIP3    H147866   1.569   1.862   4.905  0.8738 -0.5268  0.8195
 8817TIP3    H247867   1.696   1.836   4.827  0.3865  0.1146 -0.2201
 8818TIP3   OH247868   3.595   6.665  14.867  0.3812 -0.6792  0.3851
 8818TIP3    H147869   3.533   6.673  14.940 -0.9701  0.5442 -0.8348
 8818TIP3    H247870   3.598   6.753  14.829  2.9824 -0.6877  0.4423
 8819TIP3   OH247871   3.661   4.022   3.693  0.2137 -0.3551  0.1259
 8819TIP3    H147872   3.694   3.946   3.741 -0.3138  0.5247  1.9276
 8819TIP3    H247873   3.575   3.995   3.662 -0.4758 -0.1156  1.7771
 8820TIP3   OH247874   5.559   5.718  14.828 -0.2841  0.4896 -0.3392
 8820TIP3    H147875   5.651   5.695  14.824 -0.7142 -1.3214 -1.1641
 8820TIP3    H247876   5.536   5.742  14.738 -0.6543  0.7316 -0.1845
 8821TIP3   OH247877   0.426   5.965  16.244 -0.2527  0.0341 -0.1462
 8821TIP3    H147878   0.441   5.930  16.156  0.4198 -0.7444  0.2685
 8821TIP3    H247879   0.414   5.888  16.299 -0.1282  0.4977  0.5442
 8822TIP3   OH247880   1.811   3.235  13.342 -0.2951 -0.3112 -0.1279
 8822TIP3    H147881   1.777   3.160  13.293 -1.3858 -0.8160  1.3276
 8822TIP3    H247882   1.783   3.311  13.291 -0.2579 -0.8525 -0.9766
 8823TIP3   OH247883   0.939   3.595  16.583  0.1125 -0.7789  0.2115
 8823TIP3    H147884   0.904   3.528  16.525 -0.4189 -1.6832  1.5343
 8823TIP3    H247885   1.015   3.630  16.535 -0.9692 -0.6638 -1.5117
 8824TIP3   OH247886   4.548   0.054  11.004 -0.1393  0.4178  0.5805
 8824TIP3    H147887   4.630   0.030  10.959 -0.7553  0.0615 -0.3830
 8824TIP3    H247888   4.536   0.147  10.983  0.1111  0.5216  0.8852
 8825TIP3   OH247889   2.380   3.057  13.885  0.1717  0.4765  0.3374
 8825TIP3    H147890   2.412   3.124  13.946  0.9656 -0.0976  0.5735
 8825TIP3    H247891   2.457   3.003  13.867 -0.4462 -0.3514  0.1206
 8826TIP3   OH247892   0.492   5.045  13.838  0.0017 -0.3252  0.5175
 8826TIP3    H147893   0.474   4.951  13.830  1.4846 -0.5431 -0.7838
 8826TIP3    H247894   0.462   5.082  13.755 -1.0379  0.4527  1.2202
 8827TIP3   OH247895   0.643   2.785  12.544 -0.1553  0.2567  0.6588
 8827TIP3    H147896   0.728   2.825  12.561  0.9690 -1.9690  0.6465
 8827TIP3    H247897   0.659   2.691  12.551 -2.7558 -0.2196  1.2232
 8828TIP3   OH247898   5.205   1.781  17.191 -0.4456  0.1631 -0.1633
 8828TIP3    H147899   5.116   1.792  17.226 -0.0237  1.1954  0.6428
 8828TIP3    H247900   5.252   1.734  17.259  0.0239  0.9887  0.0989
 8829TIP3   OH247901   1.817   2.291  17.038  0.0825 -0.1825  0.4857
 8829TIP3    H147902   1.842   2.353  16.969 -0.9381 -1.2061 -0.8551
 8829TIP3    H247903   1.769   2.344  17.102 -0.4962  0.4909 -0.4806
 8830TIP3   OH247904   0.616   0.830   1.930  0.0777  0.3874  0.1609
 8830TIP3    H147905   0.613   0.840   1.835 -0.6499  0.9771  0.2452
 8830TIP3    H247906   0.534   0.867   1.962  0.0822 -0.2667  0.9843
 8831TIP3   OH247907   3.569   6.630  15.655  0.3122  0.3927 -0.3768
 8831TIP3    H147908   3.646   6.574  15.649  0.9443  0.8308  2.4296
 8831TIP3    H247909   3.501   6.574  15.691 -0.0658  0.5719 -0.8006
 8832TIP3   OH247910   1.326   5.355   0.165  0.0238  0.0154  0.1514
 8832TIP3    H147911   1.246   5.309   0.141  0.6732 -0.8830 -0.3584
 8832TIP3    H247912   1.325   5.435   0.112  0.0519 -0.5779 -0.7524
 8833TIP3   OH247913   2.954   5.476   6.089 -0.0713  1.2072  0.2729
 8833TIP3    H147914   2.883   5.411   6.084 -0.1999  1.3079  0.7720
 8833TIP3    H247915   2.998   5.457   6.172  1.8798 -0.2865 -1.0028
 8834TIP3   OH247916   6.680   6.519  12.877  0.5361 -0.0123  0.0517
 8834TIP3    H147917   6.741   6.478  12.815  0.2563  1.5389 -1.3318
 8834TIP3    H247918   6.597   6.474  12.862  1.0448 -1.3245  1.0919
 8835TIP3   OH247919   1.746   2.857   5.867 -0.8893 -0.2328 -0.1417
 8835TIP3    H147920   1.836   2.826   5.879 -0.0426  1.7817 -0.9378
 8835TIP3    H247921   1.740   2.935   5.923 -1.6283  0.5514 -1.2844
 8836TIP3   OH247922   5.229   0.271  12.476 -0.7442  0.0034 -0.2859
 8836TIP3    H147923   5.305   0.265  12.419  0.1011 -1.3054  0.9176
 8836TIP3    H247924   5.266   0.280  12.564 -2.0037  0.8115  0.1871
 8837TIP3   OH247925   1.246   2.205  16.824 -0.3366 -0.2349 -0.7552
 8837TIP3    H147926   1.312   2.268  16.795 -0.6803  0.2631 -0.4674
 8837TIP3    H247927   1.282   2.169  16.905  0.5613 -1.5289 -1.6909
 8838TIP3   OH247928   2.672   0.844  12.507  0.2603  0.0307 -0.6584
 8838TIP3    H147929   2.751   0.854  12.560 -0.8530 -2.2971  1.6756
 8838TIP3    H247930   2.703   0.849  12.416  2.9655 -0.0489  0.1791
 8839TIP3   OH247931   3.244   3.224  15.657 -0.0856 -0.0301  0.0798
 8839TIP3    H147932   3.187   3.180  15.720 -1.0845  1.4145  0.2483
 8839TIP3    H247933   3.194   3.302  15.630  0.9401  0.1650 -1.3792
 8840TIP3   OH247934   2.818   1.233  17.020  0.1290  0.7912 -0.2213
 8840TIP3    H147935   2.875   1.287  17.075  0.9361  0.2055 -0.4752
 8840TIP3    H247936   2.754   1.295  16.984 -1.2996  0.9890  2.4404
 8841TIP3   OH247937   0.854   4.571  11.840  0.0173 -0.2281  0.5585
 8841TIP3    H147938   0.947   4.578  11.864 -0.4529  0.6114  2.2636
 8841TIP3    H247939   0.848   4.615  11.756  1.2303 -0.6684  0.2138
 8842TIP3   OH247940   0.586   3.221   4.762  0.0202  0.4210  0.7864
 8842TIP3    H147941   0.518   3.280   4.794 -0.2433  0.0818  0.8595
 8842TIP3    H247942   0.542   3.163   4.701  0.4523  0.8318  0.0730
 8843TIP3   OH247943   5.189   3.926  16.325  0.9097  0.0100  0.0122
 8843TIP3    H147944   5.283   3.939  16.335  0.7124  0.7174  1.1421
 8843TIP3    H247945   5.153   3.936  16.413 -0.5101  2.4490 -0.7378
 8844TIP3   OH247946   1.156   5.087   4.794  0.0658  0.0686  0.3985
 8844TIP3    H147947   1.165   5.090   4.889  0.3377 -1.0741  0.4143
 8844TIP3    H247948   1.235   5.130   4.761  0.4065 -0.3432  0.6772
 8845TIP3   OH247949   1.031   3.401   2.371 -0.0403 -0.4352 -0.1755
 8845TIP3    H147950   1.092   3.349   2.320 -0.1415 -0.4970 -0.2336
 8845TIP3    H247951   1.076   3.484   2.386  1.2873 -1.4699  2.2735
 8846TIP3   OH247952   0.817   4.484   2.275 -0.4844 -0.0674 -1.2411
 8846TIP3    H147953   0.860   4.419   2.220 -0.2732  1.3775 -2.8785
 8846TIP3    H247954   0.725   4.478   2.251 -0.5179 -0.0195 -1.1247
 8847TIP3   OH247955   5.978   3.581  12.083  0.8531 -0.2530 -0.3709
 8847TIP3    H147956   6.019   3.548  12.163 -0.0410 -0.7189 -0.0965
 8847TIP3    H247957   6.004   3.673  12.079  0.3520 -0.0449  0.8086
 8848TIP3   OH247958   0.377   4.746  14.989 -0.1566 -0.3501  0.6692
 8848TIP3    H147959   0.428   4.684  15.042  0.6489  0.4384  0.8601
 8848TIP3    H247960   0.441   4.783  14.928 -1.1396 -1.5169 -1.1676
 8849TIP3   OH247961   5.493   5.501  14.034  0.0327  0.3156 -0.2930
 8849TIP3    H147962   5.400   5.511  14.015 -0.5348  0.0510  2.0225
 8849TIP3    H247963   5.528   5.589  14.026 -1.0289  0.9577  1.4076
 8850TIP3   OH247964   3.934   3.744  13.556  0.7254 -0.7180 -1.1157
 8850TIP3    H147965   3.914   3.783  13.471 -1.4489 -0.0837 -0.3773
 8850TIP3    H247966   3.892   3.658  13.554  0.1999 -0.4793 -0.4866
 8851TIP3   OH247967   4.022   3.192  12.200  0.2022 -0.0433 -0.4715
 8851TIP3    H147968   3.965   3.143  12.261 -0.6711  0.8521 -0.5389
 8851TIP3    H247969   3.988   3.281  12.203  2.1314  0.7215  0.0965
 8852TIP3   OH247970   2.540   4.843   0.526 -0.5117 -0.2687 -0.2194
 8852TIP3    H147971   2.615   4.831   0.468 -0.2153 -1.8904  0.4281
 8852TIP3    H247972   2.465   4.854   0.467 -0.1521 -1.4461 -0.9426
 8853TIP3   OH247973   4.674   0.550  14.711  0.0404  0.3661 -0.0271
 8853TIP3    H147974   4.739   0.593  14.767  1.0039 -0.5676 -0.4134
 8853TIP3    H247975   4.629   0.489  14.770  1.6730 -1.2951 -0.3829
 8854TIP3   OH247976   1.834   6.294  12.237  0.1810  0.3100 -0.0579
 8854TIP3    H147977   1.806   6.386  12.238  0.0161  0.2594  0.8735
 8854TIP3    H247978   1.918   6.294  12.283 -0.9886 -0.3318  2.2406
 8855TIP3   OH247979   5.411   0.764   0.439  0.7273  0.1001 -0.8208
 8855TIP3    H147980   5.364   0.795   0.361  1.1942  1.0256 -0.7466
 8855TIP3    H247981   5.500   0.747   0.408  0.2142 -2.3759 -1.1324
 8856TIP3   OH247982   6.693   3.740   2.331  0.4311 -0.6592  0.1598
 8856TIP3    H147983   6.730   3.656   2.359 -1.1498 -1.4656 -0.0868
 8856TIP3    H247984   6.731   3.756   2.245  0.6884 -1.1668  0.1753
 8857TIP3   OH247985   4.846   2.544   2.356 -0.1361  1.0059 -0.1752
 8857TIP3    H147986   4.808   2.624   2.392 -1.1263  0.3961  0.2045
 8857TIP3    H247987   4.875   2.568   2.268 -3.3198  1.0639 -1.3430
 8858TIP3   OH247988   4.212   2.566   6.479 -0.1704 -0.4036  0.6001
 8858TIP3    H147989   4.251   2.518   6.406 -1.4889 -3.2244  1.6254
 8858TIP3    H247990   4.233   2.514   6.556 -3.6699 -0.7242  1.5110
 8859TIP3   OH247991   1.162   1.811  12.940 -0.2510  0.1531 -0.6757
 8859TIP3    H147992   1.158   1.864  12.860 -2.3166 -0.4818 -1.0655
 8859TIP3    H247993   1.072   1.780  12.952  0.5515 -1.9373  0.4260
 8860TIP3   OH247994   5.308   4.986  14.420 -0.4467 -0.3567 -0.3403
 8860TIP3    H147995   5.283   5.054  14.483  2.0489  0.6159 -0.2567
 8860TIP3    H247996   5.277   4.905  14.460 -1.5408  0.5164  0.6715
 8861TIP3   OH247997   4.133   0.373  15.019  0.5425  0.2285 -0.8151
 8861TIP3    H147998   4.197   0.422  15.070  0.6763  1.0809 -1.7850
 8861TIP3    H247999   4.063   0.436  15.002  0.9902  0.2936 -2.5897
 8862TIP3   OH248000   1.731   1.367  12.462  0.1300 -0.0298 -0.3512
 8862TIP3    H148001   1.725   1.281  12.503  2.4821  0.5529  1.4097
 8862TIP3    H248002   1.744   1.428  12.535  0.1956  1.6297 -1.6782
 8863TIP3   OH248003   2.008   2.071  16.485 -0.0729 -0.3873  0.0330
 8863TIP3    H148004   2.020   2.100  16.395  0.8694 -1.4261 -0.2065
 8863TIP3    H248005   2.033   2.146  16.539 -2.7221  1.0023 -0.5305
 8864TIP3   OH248006   3.719   0.378   6.426  0.0930  0.0418 -0.0778
 8864TIP3    H148007   3.798   0.348   6.381 -0.8271 -1.5937 -0.7070
 8864TIP3    H248008   3.720   0.330   6.509 -0.1972  0.0567 -0.0628
 8865TIP3   OH248009   0.529   1.843  11.287  0.5163  0.3869 -0.9615
 8865TIP3    H148010   0.467   1.771  11.292 -0.0744  0.8995 -0.7620
 8865TIP3    H248011   0.550   1.850  11.194  2.5378 -1.6592 -0.7357
 8866TIP3   OH248012   3.379   1.607  11.622 -0.1767 -0.3093  0.6275
 8866TIP3    H148013   3.301   1.631  11.671  0.1830  1.9950  0.1833
 8866TIP3    H248014   3.348   1.545  11.555 -1.2847 -0.7410  1.5143
 8867TIP3   OH248015   6.492   3.274   2.174  0.5172 -0.2476 -0.3626
 8867TIP3    H148016   6.408   3.228   2.170  0.1748  0.0434  1.8126
 8867TIP3    H248017   6.556   3.205   2.192  0.3940 -0.2350  0.1683
 8868TIP3   OH248018   1.575   4.303  16.985  0.3306  0.4035 -0.1528
 8868TIP3    H148019   1.611   4.214  16.990  0.4357  0.4107 -0.7827
 8868TIP3    H248020   1.651   4.359  16.968  0.1739  0.5426 -0.4056
 8869TIP3   OH248021   6.354   6.745  13.736 -0.2664  0.3109 -0.0589
 8869TIP3    H148022   6.361   6.834  13.772  2.7202 -0.1740  0.7872
 8869TIP3    H248023   6.339   6.689  13.812  0.9156 -0.1913 -0.1755
 8870TIP3   OH248024   5.770   2.757  11.185  0.3540  0.0059  0.1766
 8870TIP3    H148025   5.818   2.802  11.116 -1.7317 -1.1313 -2.1881
 8870TIP3    H248026   5.823   2.679  11.203  1.7676  1.1362  1.1760
 8871TIP3   OH248027   4.793   2.068   0.194 -0.7725  0.2457 -0.0334
 8871TIP3    H148028   4.820   2.108   0.111  0.2558 -1.0731 -0.3555
 8871TIP3    H248029   4.874   2.032   0.231 -0.8518  2.3299  2.4371
 8872TIP3   OH248030   5.720   1.478   4.695 -0.0653 -0.5372 -0.2314
 8872TIP3    H148031   5.646   1.487   4.635 -0.1141  0.8478  0.0024
 8872TIP3    H248032   5.795   1.508   4.645  0.1890 -1.0990 -0.1849
 8873TIP3   OH248033   2.994   2.817   6.044  0.1334 -0.1965  0.0003
 8873TIP3    H148034   3.064   2.755   6.062 -1.5706 -1.3674  3.4054
 8873TIP3    H248035   2.923   2.763   6.009 -0.4140  0.3192  0.2998
 8874TIP3   OH248036   1.177   0.627  13.898 -0.1192 -0.7277  0.0848
 8874TIP3    H148037   1.121   0.566  13.851 -2.8600  1.9031 -0.2955
 8874TIP3    H248038   1.130   0.646  13.979 -0.1530  1.9406 -0.4639
 8875TIP3   OH248039   1.938   5.778  15.502  0.5803 -0.1158 -0.1498
 8875TIP3    H148040   1.988   5.850  15.540 -2.2650  0.8919  2.0526
 8875TIP3    H248041   1.885   5.744  15.574 -2.2368 -0.7706 -2.3285
 8876TIP3   OH248042   2.905   0.828  11.359  0.3503 -0.1504  0.6236
 8876TIP3    H148043   2.998   0.850  11.353  0.4454 -0.2924  1.4060
 8876TIP3    H248044   2.884   0.843  11.451 -0.6058  0.6670  0.2802
 8877TIP3   OH248045   4.885   0.141  11.455 -0.7511 -0.4066 -0.2146
 8877TIP3    H148046   4.851   0.227  11.482 -1.3479 -0.6077 -0.3097
 8877TIP3    H248047   4.894   0.092  11.536 -1.6461 -0.6891 -0.2749
 8878TIP3   OH248048   1.254   1.327   1.798  0.4395 -0.5818  0.4743
 8878TIP3    H148049   1.223   1.238   1.818 -2.2769 -0.5829 -2.8390
 8878TIP3    H248050   1.344   1.315   1.767 -0.3346 -2.4778 -1.2554
 8879TIP3   OH248051   4.406   4.281  13.796 -0.5900  0.0793  0.1898
 8879TIP3    H148052   4.413   4.218  13.724  0.3635  0.2028  0.1506
 8879TIP3    H248053   4.313   4.303  13.801 -0.6864 -0.0309 -0.9230
 8880TIP3   OH248054   3.389   2.291  15.000  0.1784 -0.4441 -0.1224
 8880TIP3    H148055   3.354   2.289  14.911  0.3622 -0.0320 -0.2077
 8880TIP3    H248056   3.484   2.288  14.988  0.1986 -0.5532  0.0667
 8881TIP3   OH248057   2.355   5.565   5.505 -0.4843 -0.4949  0.1538
 8881TIP3    H148058   2.301   5.559   5.426  0.6576 -0.8013 -0.6263
 8881TIP3    H248059   2.444   5.547   5.474 -0.0358 -0.6987  1.5324
 8882TIP3   OH248060   3.085   5.394  15.815 -0.5778 -0.1767  0.4026
 8882TIP3    H148061   3.136   5.358  15.887  0.7096  1.8137  0.5628
 8882TIP3    H248062   3.150   5.417  15.749 -1.5260  0.1092 -0.4498
 8883TIP3   OH248063   2.921   4.165   6.062 -0.0699 -0.5895  0.5917
 8883TIP3    H148064   2.980   4.124   6.126  0.5511 -2.2647 -0.9883
 8883TIP3    H248065   2.851   4.101   6.050  1.2172 -1.5869 -2.3644
 8884TIP3   OH248066   3.026   4.760   0.419  0.0241  0.0782  0.3151
 8884TIP3    H148067   2.939   4.791   0.395  0.5551  1.0922 -0.3891
 8884TIP3    H248068   3.011   4.699   0.491 -1.1505  1.5330  1.3822
 8885TIP3   OH248069   3.741   2.826  12.816  0.4979 -0.8671  0.5216
 8885TIP3    H148070   3.715   2.734  12.807  2.2328 -1.2604 -0.9150
 8885TIP3    H248071   3.720   2.866  12.732  0.6829 -0.1838  0.7886
 8886TIP3   OH248072   6.425   6.044   1.891  0.6826 -0.0221 -0.1828
 8886TIP3    H148073   6.467   6.013   1.971 -0.1089  0.3890  0.4006
 8886TIP3    H248074   6.498   6.062   1.831  1.2893 -0.1065  0.5161
 8887TIP3   OH248075   4.350   4.074  13.584  0.0447 -0.1832  0.0937
 8887TIP3    H148076   4.254   4.078  13.582  0.0489 -0.1062 -1.4978
 8887TIP3    H248077   4.370   3.980  13.580  0.0304 -0.1803 -0.0632
 8888TIP3   OH248078   1.704   0.101   4.426 -0.3512  0.0411  0.4686
 8888TIP3    H148079   1.660   0.184   4.443 -1.1886 -0.2790 -0.0491
 8888TIP3    H248080   1.797   0.121   4.428 -0.5527  1.0364  0.0794
 8889TIP3   OH248081   6.404   1.361  13.652  0.1294 -0.7819  0.0184
 8889TIP3    H148082   6.367   1.275  13.670  1.3475 -2.3493 -3.9749
 8889TIP3    H248083   6.363   1.388  13.570  1.0461  1.7069  0.2864
 8890TIP3   OH248084   5.692   5.451  15.577  0.0922 -0.2379  0.1686
 8890TIP3    H148085   5.722   5.365  15.608  2.5014  1.9185  4.6124
 8890TIP3    H248086   5.607   5.463  15.618  0.1451 -0.1570  0.2541
 8891TIP3   OH248087   0.798   5.739   0.022  0.2352 -0.0688  0.7135
 8891TIP3    H148088   0.713   5.697   0.013 -0.5525  1.5277  0.3416
 8891TIP3    H248089   0.844   5.720  -0.059 -0.3086  0.1875  0.3394
 8892TIP3   OH248090   3.730   3.249  14.771  0.0992 -0.4247  0.6526
 8892TIP3    H148091   3.759   3.333  14.736 -1.1169 -0.1145  0.3546
 8892TIP3    H248092   3.773   3.242  14.856  0.7514  0.1731  0.3760
 8893TIP3   OH248093   0.429   3.054  16.827  1.3032  0.3071  0.1268
 8893TIP3    H148094   0.522   3.053  16.809  1.1456  0.0109 -0.6920
 8893TIP3    H248095   0.388   3.086  16.747  0.7190  0.7307  0.5773
 8894TIP3   OH248096   5.998   2.922  16.812  0.8634 -0.0291  0.0485
 8894TIP3    H148097   6.073   2.899  16.757  3.5345  0.6686  3.0852
 8894TIP3    H248098   6.008   3.016  16.827 -0.5198  0.0332  0.7081
 8895TIP3   OH248099   3.230   5.953   2.954  0.6070 -0.1209  0.4362
 8895TIP3    H148100   3.145   5.996   2.945  0.1107 -0.8745  1.3320
 8895TIP3    H248101   3.239   5.899   2.875  1.7019  2.3199 -1.2264
 8896TIP3   OH248102   1.655   0.727   2.462  0.0684 -0.2730 -0.3046
 8896TIP3    H148103   1.577   0.782   2.449 -2.1422 -2.9404  0.6104
 8896TIP3    H248104   1.699   0.729   2.377 -1.5448  0.5670 -1.1870
 8897TIP3   OH248105   1.461   4.161   4.058 -0.2816  0.5695  0.0491
 8897TIP3    H148106   1.435   4.225   4.124  0.8505  2.0865 -0.9067
 8897TIP3    H248107   1.437   4.201   3.974  1.1186  0.0988 -0.6114
 8898TIP3   OH248108   4.536   5.206   0.231  0.3711  0.3092 -0.0557
 8898TIP3    H148109   4.455   5.212   0.282  0.0505 -4.1893  0.4141
 8898TIP3    H248110   4.604   5.187   0.296  0.5454 -2.2400 -0.8834
 8899TIP3   OH248111   4.709   6.441  14.796 -0.6551 -0.2143  0.4399
 8899TIP3    H148112   4.660   6.359  14.806 -0.0355 -0.5311  0.9484
 8899TIP3    H248113   4.763   6.446  14.874  0.1792  0.0966 -0.1443
 8900TIP3   OH248114   3.100   2.791  15.955 -0.0026  0.2753 -0.3160
 8900TIP3    H148115   3.078   2.842  15.877  0.1178 -0.1145 -0.6072
 8900TIP3    H248116   3.030   2.811  16.018 -2.4555 -2.4993 -1.9089
 8901TIP3   OH248117   0.112   4.841  15.915  0.2144  0.3041 -0.0719
 8901TIP3    H148118   0.148   4.859  15.828  0.9317  1.2578  0.4033
 8901TIP3    H248119   0.148   4.909  15.970 -0.2709 -0.2679  0.9794
 8902TIP3   OH248120   4.257   3.311   2.964  0.2527  0.1687 -0.1062
 8902TIP3    H148121   4.292   3.380   2.907 -3.1109  1.0235 -1.3284
 8902TIP3    H248122   4.249   3.353   3.050  2.7886 -0.3195  0.4731
 8903TIP3   OH248123   6.362   6.159  10.345  0.6529  0.1903  0.2353
 8903TIP3    H148124   6.446   6.114  10.334  0.2380 -0.7717  0.7814
 8903TIP3    H248125   6.320   6.154  10.259  1.5452  1.5498 -0.3069
 8904TIP3   OH248126   6.712   5.216  11.054  0.4487 -0.7574 -0.0480
 8904TIP3    H148127   6.730   5.152  11.123 -0.3143  0.1648  1.0551
 8904TIP3    H248128   6.629   5.188  11.016 -0.1762 -0.1478  0.8185
 8905TIP3   OH248129   6.592   2.600  16.129 -0.7230 -0.5995  0.0633
 8905TIP3    H148130   6.608   2.540  16.202  0.5580  0.7235  0.9262
 8905TIP3    H248131   6.677   2.641  16.113 -1.5105  0.8299 -0.6310
 8906TIP3   OH248132   4.296   4.633  15.148  0.1851  0.1054 -0.1627
 8906TIP3    H148133   4.297   4.666  15.237 -0.9913  0.9783 -0.4373
 8906TIP3    H248134   4.231   4.688  15.103 -0.5717 -1.4669 -1.0995
 8907TIP3   OH248135   4.420   4.139  15.274  0.4035  0.4417 -0.4053
 8907TIP3    H148136   4.382   4.224  15.253 -2.6531 -0.5047  0.7242
 8907TIP3    H248137   4.422   4.092  15.191  0.3141  0.9893 -0.7183
 8908TIP3   OH248138   6.435   1.812   5.003 -0.2281 -1.1934  0.2150
 8908TIP3    H148139   6.457   1.874   4.933  1.7070 -0.0672  1.7254
 8908TIP3    H248140   6.471   1.851   5.082 -1.7028 -2.7903  1.7592
 8909TIP3   OH248141   4.027   2.920   2.861  0.3749 -0.1436 -0.1435
 8909TIP3    H148142   4.023   2.961   2.948 -1.5689  0.2869 -0.3851
 8909TIP3    H248143   4.009   2.828   2.878  0.3080 -0.1147 -0.0545
 8910TIP3   OH248144   3.011   1.411  10.831  0.5673 -0.1504 -0.4111
 8910TIP3    H148145   3.097   1.452  10.824 -0.0364  1.2779  0.1655
 8910TIP3    H248146   2.977   1.441  10.915  1.0097 -3.7421  1.2302
 8911TIP3   OH248147   5.404   3.229  13.627 -0.2789 -0.3657  0.3768
 8911TIP3    H148148   5.397   3.134  13.629 -0.3248 -0.4051 -0.9601
 8911TIP3    H248149   5.496   3.246  13.605 -0.4928 -0.1340 -0.3884
 8912TIP3   OH248150   4.350   3.958  12.001  0.0988 -0.4578 -0.2389
 8912TIP3    H148151   4.270   3.998  11.968 -0.0836 -0.8999 -0.3450
 8912TIP3    H248152   4.344   3.967  12.096  0.7397  1.0280 -0.3193
 8913TIP3   OH248153   3.865   0.413   0.852  0.0093 -0.1382 -0.7157
 8913TIP3    H148154   3.884   0.431   0.944  1.2516 -0.9804 -0.7907
 8913TIP3    H248155   3.809   0.485   0.825 -0.6005 -0.0203  0.7706
 8914TIP3   OH248156   3.040   0.679   1.548 -0.1886 -0.1036 -0.1503
 8914TIP3    H148157   2.952   0.643   1.543 -0.7840  1.4063 -1.0459
 8914TIP3    H248158   3.093   0.622   1.491  0.2709 -3.1159  2.9439
 8915TIP3   OH248159   0.253   3.548  12.071 -0.2277 -0.4642 -0.1863
 8915TIP3    H148160   0.283   3.466  12.111 -2.0935 -1.9274 -1.5975
 8915TIP3    H248161   0.272   3.537  11.978 -0.5938  0.6691 -0.4008
 8916TIP3   OH248162   0.249   4.268   2.371  0.2524  0.2851  1.0245
 8916TIP3    H148163   0.213   4.190   2.329  1.3255 -0.7609  1.9879
 8916TIP3    H248164   0.217   4.341   2.318 -2.5361 -0.6195  1.3058
 8917TIP3   OH248165   4.409   1.645  14.346 -0.2061  0.2760 -0.1376
 8917TIP3    H148166   4.353   1.577  14.309  1.9640 -1.9425  0.4255
 8917TIP3    H248167   4.378   1.655  14.437  0.1752 -0.8296  0.1289
 8918TIP3   OH248168   3.436   5.955  11.630  0.4550 -0.3370  0.0132
 8918TIP3    H148169   3.386   5.986  11.555 -0.1647 -3.0228 -0.8195
 8918TIP3    H248170   3.526   5.950  11.599  0.4272 -0.1172 -0.0990
 8919TIP3   OH248171   2.643   5.273   4.128 -0.1522 -0.1791  0.3452
 8919TIP3    H148172   2.708   5.326   4.174 -0.1947  0.9586 -0.8760
 8919TIP3    H248173   2.687   5.243   4.049 -0.3204 -1.5183  0.7268
 8920TIP3   OH248174   6.302   6.533   0.591  0.2594 -0.0136 -0.2891
 8920TIP3    H148175   6.388   6.511   0.627 -0.1487  0.3679  0.9635
 8920TIP3    H248176   6.304   6.628   0.580 -0.2547  0.0856  0.4465
 8921TIP3   OH248177   3.637   3.743  11.833 -0.1156 -0.1462 -0.0375
 8921TIP3    H148178   3.597   3.721  11.749 -1.4377  0.6495  0.3646
 8921TIP3    H248179   3.655   3.658  11.874 -2.6831 -0.5919  0.3463
 8922TIP3   OH248180   1.871   2.034   0.157 -0.0867 -0.2471 -0.5016
 8922TIP3    H148181   1.832   2.059   0.241 -3.0504  1.5642 -2.2382
 8922TIP3    H248182   1.935   1.967   0.179  0.2785  1.1308  3.3276
 8923TIP3   OH248183   3.785   5.159   0.790  0.3088  0.0746 -0.0918
 8923TIP3    H148184   3.863   5.115   0.755 -0.6092 -0.0015 -2.2025
 8923TIP3    H248185   3.791   5.248   0.754 -0.7374 -0.0399 -0.5893
 8924TIP3   OH248186   5.923   1.435  11.377 -0.4766 -0.0758 -0.2147
 8924TIP3    H148187   5.954   1.346  11.395  1.3794  0.3687 -0.9642
 8924TIP3    H248188   5.847   1.423  11.321 -0.9872 -1.2010  0.6592
 8925TIP3   OH248189   4.685   6.734  15.916 -0.2496  0.3123  0.3078
 8925TIP3    H148190   4.736   6.672  15.970 -0.1777 -1.0489 -1.2501
 8925TIP3    H248191   4.594   6.707  15.928 -0.0595 -2.5698 -3.0616
 8926TIP3   OH248192   3.771   4.797   4.013 -0.2006  0.5703  0.2404
 8926TIP3    H148193   3.681   4.779   3.987 -0.4088  1.0213  0.6462
 8926TIP3    H248194   3.824   4.756   3.944 -0.7275  1.0181 -0.4431
 8927TIP3   OH248195   4.045   0.419   3.285 -1.0851  0.1896  0.2749
 8927TIP3    H148196   3.988   0.351   3.250 -0.5255 -0.3478  0.3904
 8927TIP3    H248197   4.064   0.390   3.374  2.4369 -1.6930 -0.9012
 8928TIP3   OH248198   5.798   0.125  15.931 -0.2746 -0.2545 -0.6720
 8928TIP3    H148199   5.824   0.186  15.862 -0.3511 -1.0744 -1.4374
 8928TIP3    H248200   5.873   0.065  15.939 -0.1085  0.0558  0.2239
 8929TIP3   OH248201   1.972   2.537  11.811  0.7466  0.2731  0.5926
 8929TIP3    H148202   2.050   2.545  11.757  1.6421 -0.7935  1.6532
 8929TIP3    H248203   1.926   2.620  11.800  1.6660  0.6531 -0.5977
 8930TIP3   OH248204   2.522   3.324  13.376 -0.4796  0.0436 -1.0710
 8930TIP3    H148205   2.428   3.305  13.372 -0.8503  0.2983  2.6663
 8930TIP3    H248206   2.547   3.303  13.466  2.5909  2.0359 -1.2986
 8931TIP3   OH248207   5.626   6.455   4.767  0.0310  0.0796 -0.6513
 8931TIP3    H148208   5.691   6.448   4.837 -2.4324  0.5094  1.8704
 8931TIP3    H248209   5.599   6.547   4.769  0.1353  0.1927 -2.4809
 8932TIP3   OH248210   3.473   1.415   3.187  0.5533 -0.0525  0.2914
 8932TIP3    H148211   3.404   1.360   3.150  0.6564 -0.1567  0.2534
 8932TIP3    H248212   3.464   1.405   3.281  0.3616  0.1258  0.2945
 8933TIP3   OH248213   3.250   0.239  13.144  0.1549  0.4407 -0.0246
 8933TIP3    H148214   3.232   0.215  13.235  0.6486  1.0483  0.2429
 8933TIP3    H248215   3.322   0.181  13.118  0.2482  0.5075  0.0839
 8934TIP3   OH248216   5.580   6.164   2.663  0.4525 -0.4975 -0.1504
 8934TIP3    H148217   5.562   6.078   2.625  2.3433 -0.3999 -1.3595
 8934TIP3    H248218   5.502   6.183   2.715 -1.6754 -1.2864 -2.8158
 8935TIP3   OH248219   2.219   0.953   4.193  0.2069  0.2434  0.4984
 8935TIP3    H148220   2.229   0.900   4.273 -1.4929 -0.2301  0.4443
 8935TIP3    H248221   2.193   0.890   4.126 -0.4817  0.9354  0.0979
 8936TIP3   OH248222   4.885   3.374  13.083 -0.1491  0.1790 -0.0122
 8936TIP3    H148223   4.978   3.359  13.097 -0.0457  0.6838 -0.1753
 8936TIP3    H248224   4.861   3.442  13.146 -0.7328 -0.9703  1.0674
 8937TIP3   OH248225   0.192   3.558  15.328  0.0166  0.8775 -0.1188
 8937TIP3    H148226   0.283   3.555  15.298  1.0505  1.4864  2.6437
 8937TIP3    H248227   0.176   3.650  15.345  0.2208  0.4801  2.8261
 8938TIP3   OH248228   5.673   0.246   2.931 -0.1346 -0.4225 -0.3053
 8938TIP3    H148229   5.651   0.244   3.024  0.8544  2.1598  0.0437
 8938TIP3    H248230   5.607   0.303   2.891 -0.6259 -1.6016 -1.2514
 8939TIP3   OH248231   3.213   0.585  17.184  0.1944 -0.0124  0.1056
 8939TIP3    H148232   3.203   0.500  17.141  1.1314  0.0310 -0.2337
 8939TIP3    H248233   3.124   0.613  17.203 -0.0896 -1.5354  1.1547
 8940TIP3   OH248234   4.812   1.731  11.930 -0.0391 -0.6159 -0.2865
 8940TIP3    H148235   4.741   1.721  11.867  0.7019 -0.3685 -1.1773
 8940TIP3    H248236   4.783   1.802  11.987 -0.2784 -0.1550 -0.9683
 8941TIP3   OH248237   0.420   6.444   1.659  0.5706  0.0329 -0.5330
 8941TIP3    H148238   0.505   6.436   1.616  0.2001 -2.0151 -0.9976
 8941TIP3    H248239   0.356   6.422   1.591 -0.1920 -0.4775  0.3196
 8942TIP3   OH248240   3.924   4.559   2.610  0.4156  0.1628  0.3108
 8942TIP3    H148241   3.918   4.525   2.699  0.1392 -0.3865  0.0840
 8942TIP3    H248242   4.018   4.568   2.593  0.5256 -1.2135  0.1037
 8943TIP3   OH248243   0.257   4.025   4.572 -0.6226  0.1774  0.3713
 8943TIP3    H148244   0.300   4.013   4.657  2.9195 -0.7144 -1.3518
 8943TIP3    H248245   0.212   4.109   4.580 -0.2917  0.1879  3.0599
 8944TIP3   OH248246   4.074   3.664   6.245 -0.6445 -0.5236  0.8492
 8944TIP3    H148247   4.005   3.637   6.305 -0.5978  0.0046  1.1477
 8944TIP3    H248248   4.081   3.759   6.257 -1.1960 -0.2734 -0.5755
 8945TIP3   OH248249   4.469   5.186   4.371  0.2614  0.5981 -0.0897
 8945TIP3    H148250   4.458   5.222   4.459  0.4459 -0.7931  0.5422
 8945TIP3    H248251   4.390   5.132   4.358  0.3232  0.6537 -0.6988
 8946TIP3   OH248252   3.647   5.483   3.041  0.2378  0.3521 -0.1952
 8946TIP3    H148253   3.620   5.453   3.128  0.8716 -0.3763 -0.2324
 8946TIP3    H248254   3.657   5.402   2.991 -1.2245  0.8237 -1.2922
 8947TIP3   OH248255   4.150   4.962   5.320 -0.4137 -0.2115  0.3099
 8947TIP3    H148256   4.061   4.973   5.354  0.5295  1.8318  2.4171
 8947TIP3    H248257   4.166   5.042   5.270  1.4798  1.3768  3.2201
 8948TIP3   OH248258   4.345   6.053  16.929 -0.4131  0.2758  0.0664
 8948TIP3    H148259   4.250   6.055  16.921 -0.3000 -0.6088 -2.6475
 8948TIP3    H248260   4.363   6.002  17.007 -2.1893 -0.9203 -0.2620
 8949TIP3   OH248261   3.608   4.039  11.449  0.2925 -0.1745  0.0316
 8949TIP3    H148262   3.516   4.017  11.435  0.2248 -0.2120  0.5143
 8949TIP3    H248263   3.625   4.014  11.540  0.8365 -0.3616 -0.1149
 8950TIP3   OH248264   3.378   0.555   3.765  0.0321 -0.2856 -0.5072
 8950TIP3    H148265   3.345   0.640   3.734  0.9773  0.8983  1.5388
 8950TIP3    H248266   3.336   0.542   3.850  0.8904 -1.2411 -0.2066
 8951TIP3   OH248267   0.253   1.319   1.697  0.4580 -0.3455 -0.0374
 8951TIP3    H148268   0.262   1.377   1.621  0.0419 -0.4491 -0.1650
 8951TIP3    H248269   0.248   1.378   1.772  0.3264 -0.2251 -0.1410
 8952TIP3   OH248270   5.855   4.758   4.668 -0.0367  0.8114  0.4690
 8952TIP3    H148271   5.864   4.800   4.582 -1.4412 -1.8599 -1.1234
 8952TIP3    H248272   5.939   4.715   4.682 -0.1555  0.3716 -0.1175
 8953TIP3   OH248273   5.901   1.425   2.963 -0.1087  0.0681  0.2519
 8953TIP3    H148274   5.926   1.475   2.885 -2.3147  0.6809 -0.1360
 8953TIP3    H248275   5.852   1.350   2.929  0.4733 -0.6582  0.9789
 8954TIP3   OH248276   1.011   4.152  16.974 -0.1088  0.1306 -0.2967
 8954TIP3    H148277   1.010   4.086  16.904 -1.7590 -0.1282 -0.0664
 8954TIP3    H248278   0.921   4.155  17.005  0.4018  0.9321  1.1934
 8955TIP3   OH248279   1.035   4.155   1.850  0.1070 -0.6344 -0.0605
 8955TIP3    H148280   1.081   4.239   1.847  0.3095 -0.7720 -2.1751
 8955TIP3    H248281   0.946   4.177   1.878 -0.9729  0.9247 -4.0739
 8956TIP3   OH248282   4.968   6.177   5.200  0.3825  0.3678 -0.6681
 8956TIP3    H148283   4.969   6.194   5.106  0.9943 -2.8134 -1.3382
 8956TIP3    H248284   5.057   6.148   5.220  0.6131  2.1071  1.2140
 8957TIP3   OH248285   6.334   0.578  13.239  0.2927 -0.1613  0.5691
 8957TIP3    H148286   6.271   0.648  13.257 -0.2279 -0.2005 -0.9100
 8957TIP3    H248287   6.384   0.610  13.164 -0.2782 -1.5503 -0.4472
 8958TIP3   OH248288   4.918   1.423  13.787  0.2804 -0.5521  0.3175
 8958TIP3    H148289   4.852   1.384  13.730  1.2838 -2.1516  0.1925
 8958TIP3    H248290   4.933   1.510  13.751 -0.1867 -0.9868 -0.9574
 8959TIP3   OH248291   2.469   0.290   0.356  0.2686 -0.4141  0.0773
 8959TIP3    H148292   2.400   0.235   0.393 -0.1286  0.3452  0.4791
 8959TIP3    H248293   2.490   0.248   0.272 -1.5110  0.0063 -0.6053
 8960TIP3   OH248294   6.150   2.845   0.185  0.5839  0.1312  0.8064
 8960TIP3    H148295   6.227   2.804   0.146  0.6333  1.0151 -0.0657
 8960TIP3    H248296   6.170   2.850   0.279  1.0802 -0.7222  0.7537
 8961TIP3   OH248297   2.941   3.686  11.436 -0.1777 -0.1642 -0.0342
 8961TIP3    H148298   3.005   3.659  11.370  0.9321  2.0562  0.0381
 8961TIP3    H248299   2.965   3.776  11.457 -3.3384  0.7634  0.0393
 8962TIP3   OH248300   2.414   5.030  12.146  0.1906  0.3970  1.0036
 8962TIP3    H148301   2.440   5.009  12.236 -0.4582 -1.4393  0.7858
 8962TIP3    H248302   2.320   5.044  12.151  0.1284  0.1187  0.5628
 8963TIP3   OH248303   2.546   1.735  14.169  0.8907  0.1117  0.2511
 8963TIP3    H148304   2.605   1.768  14.238  1.0572  1.2885 -0.4136
 8963TIP3    H248305   2.493   1.669  14.212  0.2525  1.5655  1.8088
 8964TIP3   OH248306   5.687   1.076   0.077 -0.3718  0.2800 -0.3224
 8964TIP3    H148307   5.679   0.981   0.081 -0.8253  0.3412  0.3362
 8964TIP3    H248308   5.699   1.103   0.168  1.2480  0.7383 -0.6411
 8965TIP3   OH248309   5.100   5.493  12.656 -0.3684 -0.8002 -0.6213
 8965TIP3    H148310   5.010   5.517  12.635 -0.7483 -1.2317  0.4115
 8965TIP3    H248311   5.099   5.475  12.750  0.8497 -0.5976 -0.5471
 8966TIP3   OH248312   4.349   6.568  17.130 -0.5003 -0.5583 -0.5622
 8966TIP3    H148313   4.422   6.528  17.082  1.1966  0.3799  1.1440
 8966TIP3    H248314   4.343   6.657  17.095  0.4566 -0.0143  0.5948
 8967TIP3   OH248315   3.985   4.916  10.862 -0.4850 -0.1456  0.2471
 8967TIP3    H148316   3.954   4.990  10.915  0.2351  0.1953  0.1978
 8967TIP3    H248317   3.944   4.929  10.777 -0.0192  0.4552  0.1004
 8968TIP3   OH248318   3.763   4.477   3.583  0.5859 -0.4068 -0.0511
 8968TIP3    H148319   3.829   4.544   3.564  0.0275  0.4478  0.9464
 8968TIP3    H248320   3.813   4.395   3.588  1.5225  0.1688  0.2776
 8969TIP3   OH248321   1.646   1.826   5.316  0.5003  0.1923 -0.0704
 8969TIP3    H148322   1.569   1.850   5.367  1.2916 -0.9477  1.7922
 8969TIP3    H248323   1.612   1.806   5.229 -1.0107  1.5788  0.1462
 8970TIP3   OH248324   6.624   3.110   4.326  0.4119 -0.3876 -0.6075
 8970TIP3    H148325   6.538   3.072   4.344  0.5788 -0.5249 -0.0776
 8970TIP3    H248326   6.607   3.204   4.317  0.4144 -0.1930  1.0722
 8971TIP3   OH248327   1.903   1.525   4.280 -0.6235 -0.4160  0.5369
 8971TIP3    H148328   1.922   1.578   4.202  0.4260  0.0033  1.0569
 8971TIP3    H248329   1.808   1.519   4.282 -0.7337  0.7545 -0.0016
 8972TIP3   OH248330   6.215   6.544  11.456 -0.5045 -0.2789 -0.0006
 8972TIP3    H148331   6.170   6.564  11.374  0.3905 -2.4654 -1.1118
 8972TIP3    H248332   6.302   6.582  11.445 -0.7641  0.4718  0.4683
 8973TIP3   OH248333   0.448   2.032  14.312  0.1780  0.3579 -0.3178
 8973TIP3    H148334   0.474   2.122  14.291  0.9173  0.3129  0.3632
 8973TIP3    H248335   0.363   2.041  14.354  0.2523  0.7355 -0.2443
 8974TIP3   OH248336   0.663   2.700   0.208 -0.0441  0.0510  0.0153
 8974TIP3    H148337   0.730   2.765   0.186  0.4327 -0.3941  0.1206
 8974TIP3    H248338   0.673   2.687   0.302 -0.3246  0.0274  0.0423
 8975TIP3   OH248339   2.959   4.946   6.666 -0.1292 -0.3928  0.2708
 8975TIP3    H148340   3.015   4.886   6.717 -0.1219 -0.4201  0.2304
 8975TIP3    H248341   2.959   5.027   6.717 -1.0843 -0.7902  0.9355
 8976TIP3   OH248342   3.122   1.699   0.233 -0.1486 -0.0527 -0.8410
 8976TIP3    H148343   3.140   1.707   0.327 -1.4774  2.0137 -0.6815
 8976TIP3    H248344   3.171   1.771   0.193 -2.0074  1.0519 -1.2736
 8977TIP3   OH248345   5.046   4.415  11.084  0.1937  0.2856 -0.1421
 8977TIP3    H148346   5.001   4.494  11.055 -0.9523 -0.5086 -0.6075
 8977TIP3    H248347   5.139   4.432  11.067  0.1250  2.0035  0.9156
 8978TIP3   OH248348   3.438   5.562  11.974  0.6241  0.3254  0.5536
 8978TIP3    H148349   3.412   5.613  11.897  2.1493  0.2573 -0.0359
 8978TIP3    H248350   3.412   5.617  12.048 -0.1146  0.7695 -0.0151
 8979TIP3   OH248351   5.573   4.745  11.685  0.1988 -0.3234  0.1579
 8979TIP3    H148352   5.659   4.711  11.660  0.8988  0.2859  1.6467
 8979TIP3    H248353   5.511   4.685  11.643  1.3542 -1.4221 -0.0651
 8980TIP3   OH248354   6.410   3.242  11.336 -0.0963  0.4386  0.4092
 8980TIP3    H148355   6.344   3.218  11.271  0.9714  1.6515 -1.2151
 8980TIP3    H248356   6.362   3.290  11.403 -0.8268  1.7668 -1.0109
 8981TIP3   OH248357   2.397   1.043  15.351 -0.2011 -0.3417 -0.3452
 8981TIP3    H148358   2.352   1.021  15.433 -2.0628 -0.3777 -1.3270
 8981TIP3    H248359   2.472   1.096  15.379 -0.2872 -1.0749  1.4386
 8982TIP3   OH248360   6.618   3.455  13.219 -0.4170 -0.0773 -0.9165
 8982TIP3    H148361   6.537   3.499  13.245  0.7447  1.8808 -0.4793
 8982TIP3    H248362   6.685   3.489  13.278  1.0587 -0.3940 -2.3152
 8983TIP3   OH248363   3.197   5.944  16.379  0.0431 -0.3432  0.5424
 8983TIP3    H148364   3.102   5.953  16.367  0.1221 -1.1825 -0.9790
 8983TIP3    H248365   3.221   5.869  16.324  1.6691  0.1615  0.5134
 8984TIP3   OH248366   6.583   5.720   1.426  0.0779  0.9905 -0.2801
 8984TIP3    H148367   6.591   5.635   1.382  1.5744  2.0276 -2.1759
 8984TIP3    H248368   6.663   5.766   1.403  1.2681  1.5051  4.0411
 8985TIP3   OH248369   2.700   6.779  13.948  0.3309 -0.1366  0.5821
 8985TIP3    H148370   2.777   6.771  13.891  0.4711 -1.2098  0.9088
 8985TIP3    H248371   2.732   6.827  14.024 -0.4818  3.8052 -1.3300
 8986TIP3   OH248372   4.938   3.342   2.180  0.2257  0.2625 -0.3438
 8986TIP3    H148373   4.881   3.307   2.111 -0.7313 -1.8670  1.3928
 8986TIP3    H248374   5.027   3.326   2.148 -0.1920  0.0537 -1.4319
 8987TIP3   OH248375   3.821   6.133   6.103  0.1762 -0.4162 -0.4938
 8987TIP3    H148376   3.831   6.040   6.121  1.0308 -0.1677  0.3720
 8987TIP3    H248377   3.873   6.147   6.024 -0.4273 -0.7649 -0.9698
 8988TIP3   OH248378   6.725   4.972   5.540  0.2966 -0.0154 -0.4297
 8988TIP3    H148379   6.739   5.066   5.547  0.4442  0.0382 -1.3039
 8988TIP3    H248380   6.632   4.963   5.519 -0.0762 -0.1575  1.1332
 8989TIP3   OH248381   5.362   1.295   4.173 -0.3112  0.1988  0.4657
 8989TIP3    H148382   5.308   1.236   4.224 -0.0202  0.0834  0.6423
 8989TIP3    H248383   5.399   1.356   4.237  1.2523 -0.8648  0.6223
 8990TIP3   OH248384   0.732   6.690  14.650 -0.1606 -0.0716 -0.0684
 8990TIP3    H148385   0.649   6.702  14.603  0.7574  2.0040 -1.2792
 8990TIP3    H248386   0.799   6.709  14.585  1.2048  1.5722  1.7156
 8991TIP3   OH248387   5.887   4.552   3.316 -0.2381 -0.5367  0.0178
 8991TIP3    H148388   5.897   4.636   3.272 -1.1690 -0.3446  0.1549
 8991TIP3    H248389   5.951   4.495   3.273 -0.8734 -0.2676 -1.3378
 8992TIP3   OH248390   6.429   3.763   2.083 -0.6189 -0.6355  0.3508
 8992TIP3    H148391   6.343   3.738   2.049 -0.3891 -2.4299  0.9768
 8992TIP3    H248392   6.470   3.680   2.108  0.9411  0.2595  0.9130
 8993TIP3   OH248393   2.703   4.659  13.492 -0.0611  0.3555  1.0694
 8993TIP3    H148394   2.610   4.655  13.511 -0.0790 -3.5503  1.0418
 8993TIP3    H248395   2.745   4.626  13.572  1.1925  0.8880  0.6563
 8994TIP3   OH248396   5.366   1.913   4.844 -0.2169  0.0947  0.0857
 8994TIP3    H148397   5.450   1.882   4.812 -0.4180  1.2904 -1.7648
 8994TIP3    H248398   5.379   2.007   4.860 -1.3653  0.4599 -0.9655
 8995TIP3   OH248399   4.181   4.277   1.219 -0.0643  0.7770  0.1291
 8995TIP3    H148400   4.219   4.252   1.135 -0.3056 -0.4896  0.3666
 8995TIP3    H248401   4.255   4.278   1.280 -0.2904 -1.5642  0.5648
 8996TIP3   OH248402   2.130   3.299   5.681 -0.1137 -0.2855  0.8245
 8996TIP3    H148403   2.040   3.307   5.650 -0.2918  0.9719  1.5830
 8996TIP3    H248404   2.183   3.300   5.602 -0.7444 -0.6332  0.3929
 8997TIP3   OH248405   3.572   5.119  15.169 -0.5572 -0.5433  0.0706
 8997TIP3    H148406   3.497   5.105  15.111 -2.2759  0.2446  2.0060
 8997TIP3    H248407   3.576   5.214  15.182 -0.1804 -0.6981  1.1939
 8998TIP3   OH248408   2.529   0.534   6.092 -0.2465 -0.1098 -0.0636
 8998TIP3    H148409   2.599   0.534   6.026  0.5636 -1.6572  0.7410
 8998TIP3    H248410   2.476   0.611   6.071  2.3979  1.8826  0.0756
 8999TIP3   OH248411   6.060   0.325  14.761 -0.0100 -0.0679 -0.2589
 8999TIP3    H148412   6.019   0.244  14.731  0.3161 -0.6893  0.9023
 8999TIP3    H248413   6.037   0.331  14.854  0.2909  0.9751 -0.2331
 9000TIP3   OH248414   0.281   2.434  12.537  0.0535 -0.2651 -0.4971
 9000TIP3    H148415   0.349   2.378  12.501  1.2684  0.8167  0.0317
 9000TIP3    H248416   0.312   2.458  12.624 -0.7045  0.7310 -0.4716
 9001TIP3   OH248417   4.611   5.145  12.442  0.2806 -0.4491 -0.2822
 9001TIP3    H148418   4.566   5.140  12.526  1.5898  0.7590  0.5447
 9001TIP3    H248419   4.692   5.194  12.461  1.5427 -1.8085 -1.8555
 9002TIP3   OH248420   5.480   1.276   1.005 -0.2483  0.2378  0.0563
 9002TIP3    H148421   5.517   1.198   1.047 -0.2194  0.2134 -0.0147
 9002TIP3    H248422   5.553   1.315   0.958  0.1393  1.2325  1.4431
 9003TIP3   OH248423   2.562   1.758   6.236 -0.0343 -0.0433  0.8960
 9003TIP3    H148424   2.505   1.774   6.312 -0.0593  1.2517  0.6234
 9003TIP3    H248425   2.503   1.724   6.169 -0.3298  0.4695  0.8938
 9004TIP3   OH248426   5.698   5.033  12.635  0.2719  0.5184 -0.0298
 9004TIP3    H148427   5.673   5.122  12.662 -0.2578 -0.2599  2.2366
 9004TIP3    H248428   5.793   5.038  12.625  0.2642  1.3175  0.1845
 9005TIP3   OH248429   0.907   2.046  15.148 -0.2065  0.2313  0.1236
 9005TIP3    H148430   0.966   1.982  15.107 -0.8716 -0.3820  0.1161
 9005TIP3    H248431   0.829   1.996  15.171 -0.0765  0.6878  1.6531
 9006TIP3   OH248432   0.937   0.634  15.998  0.2392  0.7564 -0.0334
 9006TIP3    H148433   0.851   0.593  16.003 -0.3667  1.7991 -1.4581
 9006TIP3    H248434   0.998   0.563  16.019 -0.8004 -0.8000 -1.9592
 9007TIP3   OH248435   5.855   6.282   2.246  0.1242  0.4226 -0.1108
 9007TIP3    H148436   5.873   6.189   2.254 -2.4876 -0.4289 -2.6474
 9007TIP3    H248437   5.815   6.306   2.330 -0.1355 -0.9861  0.1850
 9008TIP3   OH248438   2.595   2.434   4.432  0.0965 -0.1732  0.5278
 9008TIP3    H148439   2.687   2.406   4.432  0.5647  1.2375 -0.6003
 9008TIP3    H248440   2.585   2.482   4.350 -2.4539 -2.7488 -0.8658
 9009TIP3   OH248441   0.306   2.003  14.996  0.1995 -0.0645 -0.3531
 9009TIP3    H148442   0.283   2.096  15.002 -0.3807 -0.1771 -0.6552
 9009TIP3    H248443   0.224   1.960  14.970  0.0921 -0.8474  1.1370
 9010TIP3   OH248444   0.045   4.645   1.918 -0.1940  0.0220 -0.6182
 9010TIP3    H148445   0.093   4.563   1.909 -2.5506 -1.5504  0.3656
 9010TIP3    H248446  -0.047   4.621   1.912 -1.0337  2.3965  1.0518
 9011TIP3   OH248447   1.683   3.688  17.077  0.3946  0.3589 -0.4181
 9011TIP3    H148448   1.593   3.656  17.077 -0.3480  2.3176  0.0925
 9011TIP3    H248449   1.714   3.674  16.988 -0.6090  0.1663 -0.7387
 9012TIP3   OH248450   6.660   5.977   2.066  0.1807  0.1089 -0.4027
 9012TIP3    H148451   6.716   6.052   2.048 -1.7462  1.1082 -2.9763
 9012TIP3    H248452   6.638   5.984   2.159  1.5123  1.6508 -0.1701
 9013TIP3   OH248453   5.894   1.281   3.463  0.5378 -0.3292  0.1377
 9013TIP3    H148454   5.814   1.244   3.501  0.3684 -1.2103 -1.0341
 9013TIP3    H248455   5.877   1.286   3.369  2.0444 -1.0427 -0.2124
 9014TIP3   OH248456   0.178   3.682  16.102  0.1439  0.2709  0.0619
 9014TIP3    H148457   0.248   3.703  16.164 -0.6454  0.6781  0.8429
 9014TIP3    H248458   0.219   3.628  16.035  0.9088 -0.5895  1.2082
 9015TIP3   OH248459   1.970   2.296  14.103 -0.2852 -0.1211  0.3072
 9015TIP3    H148460   1.882   2.330  14.086 -0.8284 -1.8701 -0.6560
 9015TIP3    H248461   2.002   2.268  14.017 -0.1019 -2.4190  1.0531
 9016TIP3   OH248462   0.543   2.313   5.406  0.2920 -0.7005  0.3102
 9016TIP3    H148463   0.497   2.389   5.442  1.3925  0.2826 -0.2852
 9016TIP3    H248464   0.606   2.350   5.345  1.3702 -2.0453  0.5569
 9017TIP3   OH248465   5.215   1.131  15.569 -0.2536 -0.7043  0.3479
 9017TIP3    H148466   5.157   1.193  15.526  0.9508 -0.1153 -0.4733
 9017TIP3    H248467   5.157   1.075  15.620 -1.4221  0.6986  0.6148
 9018TIP3   OH248468   4.268   3.132   5.790 -0.2254  0.2741  0.4454
 9018TIP3    H148469   4.273   3.121   5.885 -1.2329 -3.0280  0.2508
 9018TIP3    H248470   4.347   3.181   5.767  0.3673  0.6073  2.9151
 9019TIP3   OH248471   5.283   6.080   4.974 -1.0252  0.2780  0.9481
 9019TIP3    H148472   5.312   6.074   5.065 -0.2134  0.7673  0.7335
 9019TIP3    H248473   5.213   6.015   4.966  0.8361 -1.8677  1.1652
 9020TIP3   OH248474   3.839   1.642  14.358 -0.4557 -0.9385  0.3031
 9020TIP3    H148475   3.782   1.693  14.415 -1.5714 -0.0819 -1.5111
 9020TIP3    H248476   3.927   1.658  14.392 -0.9326  0.9100  0.7538
 9021TIP3   OH248477   2.307   0.817  12.985 -0.3936 -0.7447 -0.4026
 9021TIP3    H148478   2.367   0.748  12.957 -0.9811 -0.7061 -1.8198
 9021TIP3    H248479   2.221   0.775  12.988 -1.0967  0.3010 -3.1549
 9022TIP3   OH248480   0.978   1.505   3.080 -0.5303  0.7735  0.1763
 9022TIP3    H148481   0.997   1.586   3.128 -1.2398  0.5856  0.7793
 9022TIP3    H248482   1.039   1.507   3.007  0.3256  1.2419  0.8794
 9023TIP3   OH248483   3.367   6.134  11.396 -0.5658  0.2859  0.4110
 9023TIP3    H148484   3.304   6.185  11.446 -0.8815  1.6580 -1.2745
 9023TIP3    H248485   3.344   6.151  11.304 -2.1805 -4.6974 -0.4204
 9024TIP3   OH248486   0.595   1.148   2.131  0.0703  0.1655  0.0435
 9024TIP3    H148487   0.548   1.155   2.215 -0.4317 -0.0125 -0.2172
 9024TIP3    H248488   0.539   1.093   2.077  1.0563 -0.8918  0.0549
 9025TIP3   OH248489   3.675   6.305  11.656 -0.3359 -0.6147  0.2753
 9025TIP3    H148490   3.742   6.372  11.664 -0.5698 -0.0526 -1.9657
 9025TIP3    H248491   3.616   6.322  11.729  0.7833  0.2053  1.0325
 9026TIP3   OH248492   1.981   6.167  11.950  0.9449  0.0060 -0.0765
 9026TIP3    H148493   1.948   6.218  11.876 -1.2719 -0.5298  0.4691
 9026TIP3    H248494   2.013   6.232  12.012 -1.1505  0.7620  0.2908
 9027TIP3   OH248495   0.655   6.293   2.823  0.1212  0.1980 -0.6711
 9027TIP3    H148496   0.704   6.215   2.848  0.8766  0.7091 -0.5212
 9027TIP3    H248497   0.591   6.305   2.893  0.1031 -0.1899 -0.6174
 9028TIP3   OH248498   6.232   3.279   1.032  0.1056 -0.3088  0.3409
 9028TIP3    H148499   6.246   3.354   1.091 -0.1438  0.8935 -1.0701
 9028TIP3    H248500   6.221   3.319   0.945  1.7030 -2.1047 -0.7369
 9029TIP3   OH248501   0.156   3.175  12.268 -0.2901 -0.2842 -0.0099
 9029TIP3    H148502   0.105   3.161  12.188  1.8353 -2.7396 -1.0934
 9029TIP3    H248503   0.099   3.226  12.325 -2.1919  0.9399 -2.7872
 9030TIP3   OH248504   0.418   5.280   1.031  0.2908 -0.4479 -0.3517
 9030TIP3    H148505   0.344   5.333   1.058  1.0166  0.4991 -0.1659
 9030TIP3    H248506   0.416   5.282   0.935  1.9397  2.3521 -0.4214
 9031TIP3   OH248507   6.695   6.434  10.882  0.1014 -0.8786  0.1023
 9031TIP3    H148508   6.652   6.520  10.888 -0.9626 -1.3416 -0.5042
 9031TIP3    H248509   6.788   6.454  10.875 -0.1687  0.2530 -0.5432
 9032TIP3   OH248510   4.164   4.076  12.872 -0.2007 -0.4014 -0.8965
 9032TIP3    H148511   4.122   4.033  12.946 -0.7455 -0.7903 -1.4252
 9032TIP3    H248512   4.228   4.013  12.839 -0.9391 -0.7956 -1.6177
 9033TIP3   OH248513   5.771   3.918  14.156  0.5436  0.0821  0.9934
 9033TIP3    H148514   5.823   3.883  14.228 -1.9821 -1.1566  2.3189
 9033TIP3    H248515   5.794   3.863  14.081 -1.5359 -3.0016  2.4590
 9034TIP3   OH248516   2.127   4.125  16.719 -0.0441  0.0964 -0.1040
 9034TIP3    H148517   2.166   4.199  16.766  1.5484 -1.0622  0.4928
 9034TIP3    H248518   2.085   4.073  16.787 -0.5848  0.1159 -0.4223
 9035TIP3   OH248519   6.100   2.758   3.167  0.2713  0.1256  0.0536
 9035TIP3    H148520   6.008   2.744   3.186  0.7301 -1.0486  1.6381
 9035TIP3    H248521   6.117   2.847   3.199 -0.0087 -0.1933  1.1527
 9036TIP3   OH248522   0.715   6.491  15.331  0.1781 -0.0654 -0.0140
 9036TIP3    H148523   0.677   6.495  15.419  0.2627  0.5881 -0.0028
 9036TIP3    H248524   0.710   6.581  15.299  0.3520 -0.2607 -0.5934
 9037TIP3   OH248525   0.944   1.871   0.201 -0.8698 -0.5212 -0.5335
 9037TIP3    H148526   0.948   1.779   0.226 -0.3142 -0.1258  0.8917
 9037TIP3    H248527   0.943   1.919   0.283  1.1671  0.8457 -1.2262
 9038TIP3   OH248528   5.743   5.940  14.154 -0.2720 -0.2242 -0.5198
 9038TIP3    H148529   5.670   6.001  14.141 -1.1609 -1.0842  0.2868
 9038TIP3    H248530   5.795   5.981  14.224  0.7874  1.0411 -1.9814
 9039TIP3   OH248531   6.474   5.491  16.560  0.5489  0.6181  0.4778
 9039TIP3    H148532   6.493   5.558  16.494  0.0277  0.0490 -0.2662
 9039TIP3    H248533   6.411   5.534  16.618 -3.3219 -0.4825 -2.4597
 9040TIP3   OH248534   2.556   3.741  13.299  0.0505 -0.5353 -0.1978
 9040TIP3    H148535   2.495   3.814  13.308 -0.1449 -0.9107  2.1034
 9040TIP3    H248536   2.637   3.781  13.268 -0.5312  0.4014 -0.5390
 9041TIP3   OH248537   3.843   1.528  12.228 -0.0041 -0.0019  0.0970
 9041TIP3    H148538   3.826   1.484  12.145  0.8257 -1.9705  0.9068
 9041TIP3    H248539   3.758   1.562  12.255 -0.4102  0.0743 -1.2125
 9042TIP3   OH248540   0.471   2.351  12.287  0.1610  1.2039 -0.2272
 9042TIP3    H148541   0.541   2.307  12.337 -1.3154 -0.1953  0.7023
 9042TIP3    H248542   0.470   2.306  12.203 -0.9230 -0.1858  0.4927
 9043TIP3   OH248543   1.228   6.148   5.641  0.2037 -0.3346  0.0530
 9043TIP3    H148544   1.197   6.136   5.552 -0.5971  0.6837  0.1755
 9043TIP3    H248545   1.186   6.078   5.691 -0.0555 -0.3634 -0.2060
 9044TIP3   OH248546   2.566   4.877   4.944 -0.2810  0.2750 -0.0336
 9044TIP3    H148547   2.550   4.880   4.850  0.2548  1.2134 -0.1133
 9044TIP3    H248548   2.494   4.927   4.982 -0.7555 -0.4980  0.1042
 9045TIP3   OH248549   2.899   3.546  14.392  0.0279  0.0036  0.2992
 9045TIP3    H148550   2.951   3.614  14.433 -0.6070 -1.4439  3.8332
 9045TIP3    H248551   2.813   3.586  14.379  0.2626  0.5177  0.3244
 9046TIP3   OH248552   5.295   2.723   3.215  0.0823  0.3143  0.1995
 9046TIP3    H148553   5.283   2.709   3.309  0.7296 -0.5428  0.1629
 9046TIP3    H248554   5.315   2.816   3.207  0.4940  0.2971  0.9680
 9047TIP3   OH248555   0.082   3.597   5.667  0.6792 -0.0580 -0.2564
 9047TIP3    H148556   0.133   3.586   5.747  1.4784  0.4313 -0.6967
 9047TIP3    H248557   0.073   3.508   5.633  2.8844  0.0133 -1.1731
 9048TIP3   OH248558   2.328   6.388  10.710  0.1095 -0.4233 -0.3067
 9048TIP3    H148559   2.275   6.371  10.631 -0.0954 -0.1664 -0.2260
 9048TIP3    H248560   2.269   6.436  10.768  1.2973  2.5283 -1.3643
 9049TIP3   OH248561   2.982   3.831  17.136  0.0381 -0.7713 -0.1162
 9049TIP3    H148562   3.031   3.881  17.070  0.1206 -0.1760  0.3853
 9049TIP3    H248563   2.987   3.740  17.105  1.1889 -0.6784 -0.2491
 9050TIP3   OH248564   2.199   1.494   3.886 -0.7902  0.1000 -0.3964
 9050TIP3    H148565   2.173   1.458   3.971 -0.0700 -0.4488 -0.4025
 9050TIP3    H248566   2.156   1.580   3.883  1.0767  1.2337  1.5941
 9051TIP3   OH248567   1.552   5.994  12.469  0.4008 -0.0460 -0.1554
 9051TIP3    H148568   1.524   5.914  12.425 -2.6423  0.4743  0.6051
 9051TIP3    H248569   1.526   6.064  12.409  0.7172  0.4732  0.3034
 9052TIP3   OH248570   0.396   6.400   2.917  0.7763 -0.5228 -0.0033
 9052TIP3    H148571   0.418   6.447   2.836  0.3813  0.6539  0.5448
 9052TIP3    H248572   0.360   6.468   2.974 -1.5889 -1.7908  0.1603
 9053TIP3   OH248573   3.828   1.884   5.747 -0.0547  0.0514 -0.0368
 9053TIP3    H148574   3.847   1.975   5.770 -0.5644  0.4002 -0.9624
 9053TIP3    H248575   3.735   1.874   5.765  0.1717 -0.5467  0.8677
 9054TIP3   OH248576   0.884   1.857  12.686  0.9179  0.2257 -0.1266
 9054TIP3    H148577   0.861   1.855  12.593 -1.4521  1.8329  0.3452
 9054TIP3    H248578   0.930   1.940  12.698 -1.5286  1.5529  0.6240
 9055TIP3   OH248579   3.397   3.188   3.347  0.0565 -0.2109 -0.1415
 9055TIP3    H148580   3.371   3.185   3.255  2.6959  0.9276 -1.0400
 9055TIP3    H248581   3.422   3.280   3.362  1.2155 -0.7110  1.2299
 9056TIP3   OH248582   1.003   0.653  12.306 -0.4091 -0.1763 -0.0055
 9056TIP3    H148583   1.001   0.572  12.254  3.0206 -0.8331  0.6290
 9056TIP3    H248584   1.062   0.711  12.258  0.3379  0.3938  1.5304
 9057TIP3   OH248585   1.442   4.788   5.407  0.2360 -0.3616 -0.3348
 9057TIP3    H148586   1.351   4.773   5.431  0.0187  0.0478 -0.8877
 9057TIP3    H248587   1.438   4.825   5.318  0.8769  0.6142  0.0230
 9058TIP3   OH248588   4.303   5.221   0.444 -0.9418 -0.0950 -0.0018
 9058TIP3    H148589   4.267   5.167   0.373 -0.4049 -1.0459  0.4369
 9058TIP3    H248590   4.314   5.161   0.517  2.0760 -0.0085 -0.2666
 9059TIP3   OH248591   3.453   0.870   0.571  0.1194 -0.3749  0.0977
 9059TIP3    H148592   3.423   0.848   0.483 -1.4578 -1.5257  0.8841
 9059TIP3    H248593   3.463   0.785   0.615  0.0506  0.2112  1.2832
 9060TIP3   OH248594   3.989   1.375  11.272  1.0161 -0.2974 -0.5113
 9060TIP3    H148595   3.990   1.342  11.182 -0.5537 -1.7934 -0.0283
 9060TIP3    H248596   3.935   1.454  11.268  0.6792 -0.5408 -0.8317
 9061TIP3   OH248597   4.049   4.423   4.225 -0.1267  0.2982  1.1167
 9061TIP3    H148598   4.124   4.471   4.261  1.7801 -0.9050 -1.0422
 9061TIP3    H248599   4.071   4.408   4.134 -1.3131 -3.2829  1.2592
 9062TIP3   OH248600   2.716   5.979  11.967  0.0245  0.2152 -0.2366
 9062TIP3    H148601   2.700   5.897  11.921 -1.4918 -0.5671  1.5790
 9062TIP3    H248602   2.648   5.984  12.033  2.2135  1.1652  2.1324
 9063TIP3   OH248603   1.625   6.639   4.369 -0.1411 -0.0511  0.1109
 9063TIP3    H148604   1.715   6.609   4.355  0.0198 -1.0288  2.6014
 9063TIP3    H248605   1.634   6.724   4.412 -0.3955 -0.1848  0.4349
 9064TIP3   OH248606   6.632   5.867  13.413  0.4701  0.7517  0.1333
 9064TIP3    H148607   6.660   5.776  13.428 -0.0654  0.5253 -0.1891
 9064TIP3    H248608   6.585   5.863  13.329  0.3740  1.3128  0.1625
 9065TIP3   OH248609   3.576   4.342  13.683 -0.0645 -0.3260  0.0073
 9065TIP3    H148610   3.499   4.335  13.628  0.0871 -1.6288 -0.0597
 9065TIP3    H248611   3.563   4.423  13.732 -0.0886  1.0033 -2.0853
 9066TIP3   OH248612   3.540   4.746   3.925  0.2387  0.1394  0.5062
 9066TIP3    H148613   3.484   4.731   3.848 -0.7589 -3.5317  1.7567
 9066TIP3    H248614   3.487   4.800   3.983 -0.5683 -0.2993  0.1900
 9067TIP3   OH248615   2.836   0.214  13.570 -0.0022  0.1247 -0.7003
 9067TIP3    H148616   2.877   0.196  13.655  0.5780 -0.9128 -1.1758
 9067TIP3    H248617   2.748   0.178  13.578  0.2716 -0.5752 -0.7470
 9068TIP3   OH248618   4.590   5.816   0.819  0.2747  0.5383  0.1941
 9068TIP3    H148619   4.671   5.865   0.803 -0.3150  1.2150 -0.8224
 9068TIP3    H248620   4.548   5.809   0.733  0.0890 -1.3428  0.3948
 9069TIP3   OH248621   5.241   3.456   3.129 -0.5278  0.3274 -0.3391
 9069TIP3    H148622   5.233   3.434   3.036 -1.8671  0.2220 -0.2162
 9069TIP3    H248623   5.172   3.406   3.172 -1.0005  1.6461  0.4964
 9070TIP3   OH248624   3.451   6.190   0.284 -0.1729  0.2859 -0.2654
 9070TIP3    H148625   3.385   6.248   0.246 -0.5330  0.1850  0.1989
 9070TIP3    H248626   3.495   6.152   0.208 -0.9739 -0.0127 -0.5958
 9071TIP3   OH248627   2.722   4.054  15.499  0.7831  0.3480 -0.4699
 9071TIP3    H148628   2.654   4.076  15.436  0.4631 -1.6682 -0.9084
 9071TIP3    H248629   2.787   4.005  15.447  1.7211  0.7478  0.2923
 9072TIP3   OH248630   1.268   0.932   2.733 -0.6088  0.4726  0.0451
 9072TIP3    H148631   1.305   0.870   2.669 -1.4472  0.8161 -0.8050
 9072TIP3    H248632   1.269   0.885   2.816  2.3984  0.7284  0.2475
 9073TIP3   OH248633   4.522   3.572   5.437 -0.2147  0.3413 -0.3357
 9073TIP3    H148634   4.580   3.514   5.486 -0.6668 -1.0738 -1.4104
 9073TIP3    H248635   4.448   3.588   5.496  0.0498  0.0432  0.0768
 9074TIP3   OH248636   5.061   5.004   4.367 -0.6559  0.0323 -0.3341
 9074TIP3    H148637   5.025   5.093   4.365 -0.4971  0.1380  0.7878
 9074TIP3    H248638   4.988   4.949   4.338 -0.6095  0.5573 -1.4948
 9075TIP3   OH248639   2.000   6.132  17.099 -0.3648  0.5145  0.3837
 9075TIP3    H148640   1.946   6.200  17.138 -0.3530 -0.4328  2.1627
 9075TIP3    H248641   1.968   6.050  17.138  1.3467 -0.2192  0.3452
 9076TIP3   OH248642   0.143   5.332  13.937  0.3473 -0.1952  0.0927
 9076TIP3    H148643   0.181   5.270  13.875  0.6377 -0.6173  0.6852
 9076TIP3    H248644   0.194   5.412  13.925  1.3059 -0.6905  0.7391
 9077TIP3   OH248645   5.294   0.962  13.453  0.2719 -0.5179 -0.5716
 9077TIP3    H148646   5.306   1.029  13.520 -1.1434 -1.3182  0.5513
 9077TIP3    H248647   5.222   0.908  13.486  0.6874 -1.9807 -1.9221
 9078TIP3   OH248648   2.906   5.392  13.606  0.5739  0.3270 -0.1619
 9078TIP3    H148649   2.811   5.400  13.619  0.3136 -1.1162 -0.9661
 9078TIP3    H248650   2.940   5.479  13.628 -0.9160  0.8483  0.2429
 9079TIP3   OH248651   3.718   3.895  12.302 -0.2316 -0.0880 -0.1416
 9079TIP3    H148652   3.634   3.887  12.348 -0.0475  1.4592  0.5559
 9079TIP3    H248653   3.775   3.937  12.367  0.6792  0.1245 -1.0720
 9080TIP3   OH248654   4.295   6.372  12.101 -0.5662  0.1009  0.5019
 9080TIP3    H148655   4.300   6.315  12.024 -1.5494  0.0602  0.4515
 9080TIP3    H248656   4.285   6.312  12.175 -1.4372  0.1803  0.4654
 9081TIP3   OH248657   3.998   6.113   1.456 -0.2422 -0.0045  0.2458
 9081TIP3    H148658   4.020   6.196   1.414 -2.1948  0.1748 -0.5385
 9081TIP3    H248659   4.039   6.118   1.542  0.6201  1.2765 -0.2164
 9082TIP3   OH248660   4.616   2.621   3.932  0.1885 -0.1169 -0.5079
 9082TIP3    H148661   4.637   2.714   3.929 -1.1732  0.1963 -1.1506
 9082TIP3    H248662   4.548   2.613   3.999  0.7885 -0.7698  0.0434
 9083TIP3   OH248663   0.951   1.372  11.726 -0.0341  0.2584  0.3855
 9083TIP3    H148664   1.040   1.383  11.691  0.6249 -0.2041  1.8393
 9083TIP3    H248665   0.894   1.381  11.650  1.3227 -0.4591 -0.7619
 9084TIP3   OH248666   1.414   4.659  17.111  0.0276 -0.6239  0.1442
 9084TIP3    H148667   1.417   4.710  17.192 -4.0528  0.3136 -0.0867
 9084TIP3    H248668   1.405   4.725  17.042 -1.7174 -1.4896 -0.5101
 9085TIP3   OH248669   4.135   0.112  15.131 -0.0589  0.1530  0.4962
 9085TIP3    H148670   4.148   0.100  15.225  0.3625  0.8294  0.5314
 9085TIP3    H248671   4.136   0.207  15.118 -1.7730  0.1500  0.0330
 9086TIP3   OH248672   1.256   2.816  15.543 -0.2324  0.3245 -0.5017
 9086TIP3    H148673   1.317   2.826  15.470 -1.6034 -2.0170 -2.1177
 9086TIP3    H248674   1.305   2.847  15.620  1.1424  3.2180 -2.3917
 9087TIP3   OH248675   2.542   5.213   5.128 -0.2792 -0.1386  0.0775
 9087TIP3    H148676   2.527   5.228   5.222  0.8226  0.7123  0.1428
 9087TIP3    H248677   2.479   5.146   5.104  0.7851 -1.9122  1.9091
 9088TIP3   OH248678   6.540   4.419   5.177 -0.1529  0.1186  0.2527
 9088TIP3    H148679   6.535   4.324   5.189 -0.9903  0.0374 -0.6083
 9088TIP3    H248680   6.633   4.439   5.172  0.0088 -0.7670 -0.3610
 9089TIP3   OH248681   4.917   3.496   5.038  0.0980  0.4790 -0.4484
 9089TIP3    H148682   4.979   3.423   5.042 -0.9608 -0.4688 -0.6593
 9089TIP3    H248683   4.881   3.491   4.949  1.2012  2.3058 -1.0471
 9090TIP3   OH248684   2.808   1.498  16.126  0.1830 -0.6444 -0.5856
 9090TIP3    H148685   2.778   1.422  16.077  0.7372 -1.0416 -0.3223
 9090TIP3    H248686   2.861   1.462  16.197 -1.1408 -0.1140  0.7054
 9091TIP3   OH248687   3.139   3.833  16.601 -0.1945 -0.2993  0.3713
 9091TIP3    H148688   3.148   3.906  16.539  0.9567  0.1359  1.0192
 9091TIP3    H248689   3.096   3.764  16.551 -0.2368  0.4177 -0.6052
 9092TIP3   OH248690   3.806   1.246   2.873  0.3210 -0.0447  0.6653
 9092TIP3    H148691   3.856   1.211   2.800  0.8910 -0.2872  1.1608
 9092TIP3    H248692   3.834   1.194   2.948 -0.8567 -0.3510  0.9147
 9093TIP3   OH248693   1.167   1.477  12.605  0.3759 -0.2201 -0.4583
 9093TIP3    H148694   1.255   1.482  12.643  0.5916  2.0358 -1.1322
 9093TIP3    H248695   1.181   1.463  12.512  0.0485  0.4348 -0.6133
 9094TIP3   OH248696   5.312   5.850   5.950 -0.5125  0.2523 -0.0269
 9094TIP3    H148697   5.343   5.760   5.956  0.2797  0.5946  1.6618
 9094TIP3    H248698   5.368   5.899   6.010 -0.5609  1.9897 -1.3189
 9095TIP3   OH248699   0.163   6.183  16.632 -0.2556 -0.7535 -0.1716
 9095TIP3    H148700   0.228   6.159  16.698  0.3754 -2.4168 -1.3356
 9095TIP3    H248701   0.212   6.185  16.549 -1.1165  0.8448 -0.6936
 9096TIP3   OH248702   4.253   4.076   0.332  0.1305  0.4504  0.2705
 9096TIP3    H148703   4.221   4.036   0.251 -0.2616 -0.5591  0.9029
 9096TIP3    H248704   4.211   4.162   0.334  0.9843  0.9350 -1.1153
 9097TIP3   OH248705   0.548   2.474   5.099 -0.0671 -0.3402 -0.0327
 9097TIP3    H148706   0.523   2.516   5.017 -1.4943 -1.3141 -0.1445
 9097TIP3    H248707   0.476   2.413   5.117  0.4641 -0.5226  1.6701
 9098TIP3   OH248708   5.302   4.612   3.830 -0.2350 -0.2343 -0.2028
 9098TIP3    H148709   5.323   4.590   3.739 -1.4017 -1.4757 -0.2006
 9098TIP3    H248710   5.388   4.622   3.872  0.5148 -3.8891 -0.4656
 9099TIP3   OH248711   1.877   0.996  16.756  0.0195  0.2435  0.6812
 9099TIP3    H148712   1.789   1.031  16.746 -0.1141 -0.1510  0.4482
 9099TIP3    H248713   1.931   1.051  16.699 -0.3412 -0.4815 -0.3910
 9100TIP3   OH248714   2.274   2.704  11.377 -0.4663  0.1057  0.8220
 9100TIP3    H148715   2.337   2.637  11.349 -1.2051 -0.1367 -0.3408
 9100TIP3    H248716   2.313   2.787  11.347  0.3859  0.2056  2.1477
 9101TIP3   OH248717   1.707   5.215   1.027 -0.3300  0.0852  0.0483
 9101TIP3    H148718   1.796   5.186   1.044 -0.3041 -0.8011 -1.3687
 9101TIP3    H248719   1.716   5.282   0.958 -0.7973 -0.6472 -0.7455
 9102TIP3   OH248720   4.559   1.994  15.573 -0.1878 -0.5881  0.0461
 9102TIP3    H148721   4.465   2.003  15.581 -0.1016  0.4268 -0.0440
 9102TIP3    H248722   4.577   2.003  15.480  0.1440  0.7496  0.2270
 9103TIP3   OH248723   0.459   3.566  12.312 -0.1799 -0.3436  0.0397
 9103TIP3    H148724   0.437   3.488  12.260 -0.9231 -0.0959 -0.0219
 9103TIP3    H248725   0.374   3.606  12.333  0.1308 -0.1863  1.0563
 9104TIP3   OH248726   3.431   0.997   3.414  0.7369 -0.0461  0.2446
 9104TIP3    H148727   3.378   0.919   3.397  0.6194 -0.0931  0.7968
 9104TIP3    H248728   3.458   0.987   3.505 -0.5049  1.2742  0.7982
 9105TIP3   OH248729   1.172   6.508   0.708  0.3683 -0.2759  0.0611
 9105TIP3    H148730   1.116   6.499   0.630 -0.3489 -1.3018  0.6725
 9105TIP3    H248731   1.240   6.570   0.681 -0.5378  0.3067 -1.0039
 9106TIP3   OH248732   3.620   1.286  14.204  0.6154  0.4965  0.2429
 9106TIP3    H148733   3.712   1.273  14.223  0.9142 -1.0027 -1.8473
 9106TIP3    H248734   3.579   1.200  14.220 -0.4163  1.1032  1.0235
 9107TIP3   OH248735   3.374   6.044   5.841 -0.1344  0.3718  0.6728
 9107TIP3    H148736   3.325   6.122   5.866 -1.2102 -0.4451  1.1896
 9107TIP3    H248737   3.400   6.060   5.751  1.0898  2.0191  1.2652
 9108TIP3   OH248738   1.311   0.755   4.659  0.6954 -0.1887  0.2765
 9108TIP3    H148739   1.335   0.674   4.615 -2.4619 -2.0749  1.7199
 9108TIP3    H248740   1.266   0.807   4.592  0.6287 -0.6962 -0.0692
 9109TIP3   OH248741   2.995   4.412   1.495  0.2565 -0.6451  0.1589
 9109TIP3    H148742   2.926   4.477   1.485  0.2294 -0.7435 -0.3009
 9109TIP3    H248743   3.076   4.463   1.499 -0.0057 -0.2493  3.9080
 9110TIP3   OH248744   0.139   1.999   3.980 -0.0823 -0.0079 -0.5503
 9110TIP3    H148745   0.215   2.056   3.973 -1.1035  1.5214  0.1482
 9110TIP3    H248746   0.064   2.057   3.966 -1.2939 -0.5723  2.7009
 9111TIP3   OH248747   1.359   2.526   0.992 -0.6952  0.0713  0.0086
 9111TIP3    H148748   1.374   2.619   0.974  0.5078  0.0002  0.5383
 9111TIP3    H248749   1.443   2.495   1.028 -1.5150 -0.8851  1.1774
 9112TIP3   OH248750   0.816   3.160  12.109  0.6757  0.2328  0.3772
 9112TIP3    H148751   0.899   3.132  12.146  0.9987 -0.9631 -1.1320
 9112TIP3    H248752   0.840   3.226  12.044  0.8201 -1.8588 -1.8734
 9113TIP3   OH248753   3.599   2.349  10.947  0.1741 -0.5353 -0.4570
 9113TIP3    H148754   3.592   2.348  11.042  1.9572 -0.9342 -0.3018
 9113TIP3    H248755   3.648   2.270  10.925 -1.2879 -1.1254 -1.8389
 9114TIP3   OH248756   5.573   4.886  14.760  0.1361 -0.1735 -0.0742
 9114TIP3    H148757   5.664   4.905  14.782  0.0698 -0.8862  0.8637
 9114TIP3    H248758   5.572   4.879  14.664  1.5562 -2.4771  0.0023
 9115TIP3   OH248759   5.747   6.754  16.157 -0.1148  0.0812 -0.0494
 9115TIP3    H148760   5.727   6.804  16.077 -1.1828  0.4624  0.4384
 9115TIP3    H248761   5.811   6.808  16.203  0.3870 -0.0637 -0.5667
 9116TIP3   OH248762   6.139   1.986   5.029  0.2740 -0.1836 -0.6351
 9116TIP3    H148763   6.190   1.998   4.949 -0.7187 -0.5829 -1.3444
 9116TIP3    H248764   6.204   1.982   5.099  1.2309 -1.0436 -1.5536
 9117TIP3   OH248765   2.646   1.960   2.381  0.0240 -0.3429 -0.3984
 9117TIP3    H148766   2.721   2.007   2.417  0.2620  0.6421 -2.0798
 9117TIP3    H248767   2.683   1.901   2.316 -0.6095 -0.2481 -0.8532
 9118TIP3   OH248768   1.965   6.610  14.414  0.1739 -0.2323  0.8899
 9118TIP3    H148769   2.006   6.678  14.361  1.2371 -2.8828 -1.9966
 9118TIP3    H248770   2.039   6.565  14.456  0.0947 -2.7186 -1.3840
 9119TIP3   OH248771   0.414   4.055   3.872  0.1641  0.0550  0.2288
 9119TIP3    H148772   0.344   4.087   3.816  1.5837  1.0375 -1.0716
 9119TIP3    H248773   0.423   4.123   3.939  0.1351  0.1234  0.1644
 9120TIP3   OH248774   2.348   3.388   2.119  0.5111 -0.0217  0.4010
 9120TIP3    H148775   2.260   3.351   2.112  0.3614 -0.0664  2.1823
 9120TIP3    H248776   2.406   3.314   2.103  0.3558  0.5114 -3.6068
 9121TIP3   OH248777   4.321   6.319   1.654  0.9820  0.4088 -0.5298
 9121TIP3    H148778   4.253   6.255   1.676  1.5290  0.2785  0.8802
 9121TIP3    H248779   4.273   6.392   1.615  0.2919 -0.6256 -1.6899
 9122TIP3   OH248780   1.233   1.069   0.889 -0.0936  0.2466 -0.0745
 9122TIP3    H148781   1.324   1.087   0.866  0.1323  0.0158  0.6249
 9122TIP3    H248782   1.212   0.988   0.842 -0.6500  1.4172 -2.0156
 9123TIP3   OH248783   6.394   5.817   3.555  0.3451  0.1618  0.5154
 9123TIP3    H148784   6.392   5.911   3.576  3.2187  0.7068 -1.1906
 9123TIP3    H248785   6.320   5.805   3.496 -0.7554  1.0485  1.6414
 9124TIP3   OH248786   1.718   1.687  12.326 -0.3731  0.3187  0.2173
 9124TIP3    H148787   1.755   1.767  12.363 -1.8288  1.6852 -1.1091
 9124TIP3    H248788   1.624   1.694  12.342 -0.2772 -3.2885  3.9979
 9125TIP3   OH248789   4.373   4.253  15.789 -0.3446  0.3088 -0.3137
 9125TIP3    H148790   4.468   4.254  15.791 -0.2916 -1.3224  2.3293
 9125TIP3    H248791   4.351   4.207  15.708  1.1425 -0.1128 -0.5041
 9126TIP3   OH248792   5.800   0.544  15.809  0.3631  0.9447  0.3450
 9126TIP3    H148793   5.708   0.524  15.827  0.4283  0.2428 -0.0869
 9126TIP3    H248794   5.849   0.498  15.878  0.2670  4.1549  2.8254
 9127TIP3   OH248795   3.206   2.505  14.573  0.3192  0.2647  0.1837
 9127TIP3    H148796   3.176   2.561  14.644  2.4424  1.9319 -0.1308
 9127TIP3    H248797   3.257   2.563  14.516 -1.0728 -1.0294 -2.6248
 9128TIP3   OH248798   4.553   6.094  10.195 -0.0357 -0.2518 -0.0533
 9128TIP3    H148799   4.511   6.027  10.249 -1.3597 -0.1580 -0.9221
 9128TIP3    H248800   4.488   6.116  10.128  1.1876  0.3235 -1.1159
 9129TIP3   OH248801   5.717   2.860  13.481 -0.3122 -0.0467 -0.0870
 9129TIP3    H148802   5.798   2.906  13.505  1.3291 -1.7083 -2.0134
 9129TIP3    H248803   5.718   2.780  13.533 -0.4935 -0.2686 -0.4203
 9130TIP3   OH248804   0.402   3.121   3.463  0.6192  0.4228 -0.0139
 9130TIP3    H148805   0.387   3.143   3.371 -1.5439 -0.9993 -0.0672
 9130TIP3    H248806   0.484   3.071   3.462 -0.1953 -0.9617 -1.4273
 9131TIP3   OH248807   3.142   4.143   0.424 -0.4114  0.1999  0.1932
 9131TIP3    H148808   3.051   4.165   0.446 -0.4426  0.8197 -0.5292
 9131TIP3    H248809   3.162   4.069   0.481 -1.4322 -0.0686  0.2372
 9132TIP3   OH248810   0.353   1.851   3.400  0.2087 -0.6347 -0.0724
 9132TIP3    H148811   0.317   1.775   3.445  0.8527  0.5132  2.5527
 9132TIP3    H248812   0.339   1.924   3.461  5.1501  0.2423  0.4072
 9133TIP3   OH248813   6.585   3.126   4.635  0.6409 -0.0862  0.4081
 9133TIP3    H148814   6.534   3.205   4.654 -0.0328 -0.5956  0.7460
 9133TIP3    H248815   6.665   3.159   4.594  1.1187  0.8942  2.0304
 9134TIP3   OH248816   1.324   0.999  16.219 -0.5251  0.3561  0.1626
 9134TIP3    H148817   1.330   0.979  16.312  0.4889 -0.5286 -0.0681
 9134TIP3    H248818   1.294   0.918  16.178 -1.5804  0.9244 -0.2273
 9135TIP3   OH248819   5.685   2.853  12.167 -0.5226 -0.3044  0.1600
 9135TIP3    H148820   5.677   2.827  12.076 -1.5380  1.0764 -0.1774
 9135TIP3    H248821   5.776   2.885  12.175 -0.7707  0.6717 -0.6984
 9136TIP3   OH248822   4.342   4.267  11.768 -0.3592  0.7181 -0.4550
 9136TIP3    H148823   4.304   4.231  11.689 -2.3578 -0.2463  0.8553
 9136TIP3    H248824   4.289   4.230  11.839  0.6513  2.3826  1.2649
 9137TIP3   OH248825   1.772   4.999   5.060 -0.5504 -0.2800 -0.2955
 9137TIP3    H148826   1.720   5.063   5.110 -1.0292  1.1934 -2.5474
 9137TIP3    H248827   1.707   4.947   5.012 -0.0904 -1.5694  0.4365
 9138TIP3   OH248828   5.573   3.740   5.490 -0.4578 -0.3634  0.2768
 9138TIP3    H148829   5.662   3.753   5.523 -0.8996  0.7423  1.0789
 9138TIP3    H248830   5.533   3.827   5.493 -1.5491 -0.8319 -0.1376
 9139TIP3   OH248831   3.817   6.537  11.265  0.0264 -0.5149 -0.1703
 9139TIP3    H148832   3.789   6.479  11.194  0.2546 -0.4200 -0.3403
 9139TIP3    H248833   3.880   6.597  11.224  0.7543 -0.9593  0.2859
 9140TIP3   OH248834   5.614   2.532  16.970  0.6683 -0.3103 -0.8354
 9140TIP3    H148835   5.684   2.592  16.943  3.5606 -3.1267 -0.2047
 9140TIP3    H248836   5.564   2.518  16.890  1.8564  0.4926 -1.7684
 9141TIP3   OH248837   3.562   4.147  13.413  0.0844  0.0146  0.3412
 9141TIP3    H148838   3.525   4.227  13.375  0.2225  0.0417  0.2665
 9141TIP3    H248839   3.654   4.168  13.430  0.5492 -0.6566 -1.1921
 9142TIP3   OH248840   1.314   0.681  12.582  0.2870  0.1980  0.2675
 9142TIP3    H148841   1.401   0.677  12.621  0.0284  3.0924  1.4095
 9142TIP3    H248842   1.328   0.665  12.489  1.5458 -2.3335  0.8038
 9143TIP3   OH248843   6.046   3.668   0.826  0.4897  0.0692  0.4214
 9143TIP3    H148844   6.068   3.715   0.746  0.8971  0.5324  0.8036
 9143TIP3    H248845   6.129   3.630   0.855  0.0529 -1.4628 -0.2431
 9144TIP3   OH248846   4.465   6.644  16.359  0.1598  0.0118  0.0412
 9144TIP3    H148847   4.543   6.591  16.342 -1.6833 -2.1288 -2.6195
 9144TIP3    H248848   4.477   6.721  16.304  0.7007  0.0184  0.1590
 9145TIP3   OH248849   3.097   5.099   6.124 -0.0599 -0.0744  0.1756
 9145TIP3    H148850   3.065   5.011   6.108  0.0539 -0.1397  0.3067
 9145TIP3    H248851   3.066   5.150   6.049 -0.1137 -0.2286  0.0936
 9146TIP3   OH248852   3.229   1.482   2.595  0.2417 -0.2921 -0.3162
 9146TIP3    H148853   3.239   1.567   2.639 -1.1162 -0.4383  0.3377
 9146TIP3    H248854   3.279   1.421   2.649 -0.4978 -0.2656  0.4198
 9147TIP3   OH248855   6.771   5.329  10.565 -0.1351  0.3379 -0.1807
 9147TIP3    H148856   6.742   5.241  10.590 -0.8088 -0.1591 -2.4325
 9147TIP3    H248857   6.710   5.388  10.608  0.8962 -0.1971  2.1327
 9148TIP3   OH248858   4.598   1.623  16.378 -0.6231 -0.2617 -0.8335
 9148TIP3    H148859   4.672   1.597  16.323 -0.6653  0.8018 -1.4298
 9148TIP3    H248860   4.568   1.706  16.340 -0.9509  0.2681  0.5097
 9149TIP3   OH248861   0.049   3.458  12.282 -0.4223  0.0555  0.2350
 9149TIP3    H148862  -0.027   3.471  12.338 -0.7450  0.4781 -0.2836
 9149TIP3    H248863   0.108   3.530  12.304 -0.7303  0.4647 -0.2501
 9150TIP3   OH248864   1.397   1.259   1.312 -0.2621 -0.1933 -0.0274
 9150TIP3    H148865   1.385   1.199   1.239  0.6824 -0.4888  0.0472
 9150TIP3    H248866   1.356   1.215   1.387 -0.7894 -0.1126 -0.2652
 9151TIP3   OH248867   1.309   4.584   6.191 -0.7402  0.3052 -0.4011
 9151TIP3    H148868   1.377   4.632   6.239  0.0552  0.6393 -1.8111
 9151TIP3    H248869   1.280   4.517   6.252  1.6130 -0.5421 -0.0746
 9152TIP3   OH248870   5.496   3.494  14.578 -0.2722 -0.1017  0.0398
 9152TIP3    H148871   5.499   3.568  14.639  0.1764  0.4814 -0.6782
 9152TIP3    H248872   5.411   3.453  14.595 -0.0040 -0.1756  1.3096
 9153TIP3   OH248873   1.424   5.497   4.947 -1.0049 -0.0388 -0.0190
 9153TIP3    H148874   1.474   5.524   5.023 -0.5486  1.7371 -0.8984
 9153TIP3    H248875   1.488   5.459   4.887 -0.7224  1.8072 -0.9499
 9154TIP3   OH248876   6.790   1.675   4.019 -0.5076 -0.9085 -0.2442
 9154TIP3    H148877   6.885   1.690   4.020 -0.5702 -0.3420 -1.6808
 9154TIP3    H248878   6.777   1.606   4.084  0.5695  0.7093  1.8248
 9155TIP3   OH248879   4.007   0.942  11.393 -0.0591  0.1011  0.2217
 9155TIP3    H148880   4.079   0.881  11.380  0.6033  1.0744 -0.7702
 9155TIP3    H248881   4.036   0.999  11.465 -0.3338 -0.2174  0.5923
 9156TIP3   OH248882   6.486   5.240  10.657 -0.2388  0.0030  0.0002
 9156TIP3    H148883   6.492   5.259  10.751 -0.9344  2.9703 -0.4490
 9156TIP3    H248884   6.414   5.295  10.627 -2.3250 -3.3546 -1.7710
 9157TIP3   OH248885   1.129   5.160   0.421 -0.6534  0.3188 -0.2509
 9157TIP3    H148886   1.165   5.087   0.472 -1.2704  0.6476  0.6813
 9157TIP3    H248887   1.197   5.228   0.425 -0.1540 -0.1218 -0.9729
 9158TIP3   OH248888   1.996   1.900  14.666 -0.1663  0.2027 -0.0267
 9158TIP3    H148889   1.998   1.838  14.740 -0.3188  1.4192  1.0294
 9158TIP3    H248890   2.088   1.925  14.654 -0.1342 -0.0389 -0.2999
 9159TIP3   OH248891   3.555   3.412   3.378  0.2267 -0.2948  0.2679
 9159TIP3    H148892   3.596   3.397   3.463 -0.1978  0.7655  0.6726
 9159TIP3    H248893   3.492   3.482   3.393  0.0080 -0.2214 -0.8781
 9160TIP3   OH248894   5.680   4.898   2.925  0.1822 -0.3858 -0.0119
 9160TIP3    H148895   5.672   4.811   2.964 -1.2776  0.4256  1.6356
 9160TIP3    H248896   5.604   4.904   2.867 -1.0418  0.5675  1.6068
 9161TIP3   OH248897   0.277   6.315   1.465 -0.7717 -0.4132 -0.4585
 9161TIP3    H148898   0.243   6.345   1.381  4.5928  1.0237 -2.5647
 9161TIP3    H248899   0.316   6.230   1.447  0.3702 -0.1294  0.5057
 9162TIP3   OH248900   4.216   0.746   1.097 -0.0340 -0.2933  0.0752
 9162TIP3    H148901   4.173   0.809   1.040  0.7005 -0.4229 -0.6400
 9162TIP3    H248902   4.292   0.794   1.132 -0.5780 -0.1545  1.0969
 9163TIP3   OH248903   1.152   1.377  16.216  0.2419 -0.3176 -0.0704
 9163TIP3    H148904   1.085   1.309  16.225 -1.0113  0.8484 -0.3360
 9163TIP3    H248905   1.134   1.417  16.131  0.7142  0.6191  0.2640
 9164TIP3   OH248906   0.287   0.541  12.419 -0.1235  0.4571 -0.6796
 9164TIP3    H148907   0.216   0.535  12.355  1.3478 -0.2543 -2.3266
 9164TIP3    H248908   0.349   0.603  12.379  1.0792 -0.4251 -0.2282
 9165TIP3   OH248909   2.074   2.151  17.036 -0.9844  0.3595  0.1509
 9165TIP3    H148910   1.985   2.182  17.051 -0.6964  1.0974  0.3578
 9165TIP3    H248911   2.130   2.226  17.057 -0.3674  0.2693 -1.0752
 9166TIP3   OH248912   2.539   1.673  16.621 -0.3496 -0.3517 -0.0382
 9166TIP3    H148913   2.533   1.578  16.621 -0.9618 -0.3574 -1.7975
 9166TIP3    H248914   2.594   1.694  16.697  0.9572 -2.1677 -0.4140
 9167TIP3   OH248915   1.235   0.812  13.695  0.0933  0.3488  0.4375
 9167TIP3    H148916   1.209   0.766  13.775 -0.1950  0.1364  0.2214
 9167TIP3    H248917   1.325   0.782  13.679 -0.4715 -1.0266 -0.3230
 9168TIP3   OH248918   2.432   3.278  16.943  0.3851 -0.2924  0.1413
 9168TIP3    H148919   2.496   3.324  16.997 -0.3377  0.3414  0.4698
 9168TIP3    H248920   2.357   3.337  16.940 -0.0973 -0.9316 -0.4278
 9169TIP3   OH248921   5.736   3.581   6.086  0.2915  0.6048  0.1838
 9169TIP3    H148922   5.646   3.547   6.081  0.7672 -0.6603 -0.0121
 9169TIP3    H248923   5.735   3.640   6.161 -0.6606  0.4768  0.2871
 9170TIP3   OH248924   4.068   4.721  14.386 -0.4176  0.0007 -0.2228
 9170TIP3    H148925   4.113   4.789  14.435  0.5755 -0.6683 -0.1791
 9170TIP3    H248926   4.071   4.644  14.443 -0.4843 -0.4027 -0.7566
 9171TIP3   OH248927   2.661   1.875   4.033 -0.6348 -0.5281  0.1699
 9171TIP3    H148928   2.593   1.812   4.059 -0.7800 -0.2663  0.4248
 9171TIP3    H248929   2.715   1.826   3.970 -1.9984 -0.2340 -1.2971
 9172TIP3   OH248930   4.987   6.737   1.932 -0.4242  0.1831  0.5045
 9172TIP3    H148931   4.991   6.757   1.839  1.2087 -0.8557  0.3132
 9172TIP3    H248932   4.893   6.735   1.952 -0.8108  0.2626 -1.1420
 9173TIP3   OH248933   0.158   1.538   3.104 -0.1821  0.2494  0.3173
 9173TIP3    H148934   0.202   1.472   3.049 -1.5262 -0.6173  0.2220
 9173TIP3    H248935   0.184   1.622   3.066  0.8360 -0.2480 -0.1377
 9174TIP3   OH248936   5.139   2.880  14.484 -0.2295 -0.4375  0.6086
 9174TIP3    H148937   5.192   2.941  14.534  0.6923 -0.2957 -0.5223
 9174TIP3    H248938   5.053   2.882  14.527  0.5283 -0.3271  2.1669
 9175TIP3   OH248939   5.274   6.376   1.049  0.1992 -0.0271  0.1438
 9175TIP3    H148940   5.367   6.358   1.032  0.0692 -0.0618 -0.5855
 9175TIP3    H248941   5.267   6.472   1.045  0.2786  0.0002  0.6279
 9176TIP3   OH248942   4.035   2.129   5.730  0.6712  0.1786 -0.2040
 9176TIP3    H148943   4.062   2.040   5.753  1.7797  0.5583  0.0435
 9176TIP3    H248944   4.045   2.134   5.635 -0.9955 -0.4541 -0.4462
 9177TIP3   OH248945   6.423   1.977  15.452  0.4054 -0.5499 -0.2600
 9177TIP3    H148946   6.376   1.897  15.430 -0.1134 -0.2450 -0.2882
 9177TIP3    H248947   6.499   1.977  15.394  1.0559 -1.6006  0.5459
 9178TIP3   OH248948   4.833   0.766   2.847  0.4290 -0.1938 -0.4625
 9178TIP3    H148949   4.856   0.717   2.768  1.1901 -0.4464 -0.0980
 9178TIP3    H248950   4.835   0.857   2.819 -0.4780 -0.3345 -1.0178
 9179TIP3   OH248951   1.778   1.607   5.423 -0.7277 -0.0160  0.7280
 9179TIP3    H148952   1.716   1.672   5.392 -1.5582 -0.9517  0.3501
 9179TIP3    H248953   1.799   1.555   5.345 -1.3948 -1.2313  1.3174
 9180TIP3   OH248954   6.222   3.243   3.010  0.0697 -0.2496  0.2726
 9180TIP3    H148955   6.260   3.299   2.941 -0.0265  1.0070  1.2053
 9180TIP3    H248956   6.134   3.278   3.023 -0.7154 -1.8474 -0.4389
 9181TIP3   OH248957   3.220   5.512   5.087 -0.2588  0.2668 -0.2160
 9181TIP3    H148958   3.237   5.488   5.178 -1.8123  0.2213  0.0884
 9181TIP3    H248959   3.307   5.518   5.048  0.4028 -0.9093  0.9610
 9182TIP3   OH248960   3.991   6.727   0.714  0.1436  0.5778  0.1561
 9182TIP3    H148961   4.082   6.698   0.708 -0.7084 -2.6889  1.3445
 9182TIP3    H248962   3.993   6.799   0.777  2.0912  1.8765 -1.2670
 9183TIP3   OH248963   5.412   2.561   3.892 -0.4265 -0.3015  0.1083
 9183TIP3    H148964   5.495   2.575   3.848  0.3447 -0.1179  1.5545
 9183TIP3    H248965   5.435   2.516   3.973 -2.0556 -2.9084 -0.7714
 9184TIP3   OH248966   5.065   2.073   0.184 -0.3929  0.5068 -0.3072
 9184TIP3    H148967   5.088   2.163   0.160  2.2402  0.0358  0.1841
 9184TIP3    H248968   5.055   2.028   0.100  2.1132  0.4281 -0.6408
 9185TIP3   OH248969   5.989   3.246  12.996  0.1599 -0.2242  0.3292
 9185TIP3    H148970   6.011   3.164  13.041 -1.2917 -0.9652 -0.2406
 9185TIP3    H248971   5.900   3.233  12.964  0.4305  1.0238 -1.0615
 9186TIP3   OH248972   5.985   2.270   1.537 -0.0186 -0.5849 -0.2816
 9186TIP3    H148973   5.969   2.226   1.620  1.7970  0.8682  0.9259
 9186TIP3    H248974   6.076   2.248   1.516  0.3215  1.0222 -0.5987
 9187TIP3   OH248975   1.876   0.314   2.043  0.3221  0.2422 -0.4132
 9187TIP3    H148976   1.890   0.228   2.083  0.5499  1.3747  2.1809
 9187TIP3    H248977   1.963   0.353   2.037  0.3003  0.0803 -2.1978
 9188TIP3   OH248978   4.346   6.049  14.054 -0.5723  0.0196  0.5777
 9188TIP3    H148979   4.277   6.012  13.998 -1.4085  0.2940  1.3950
 9188TIP3    H248980   4.306   6.128  14.091  0.2111  0.2173  1.0193
 9189TIP3   OH248981   3.666   3.278   3.169  0.7078  0.5887  0.9565
 9189TIP3    H148982   3.608   3.307   3.239  2.2759  0.4777  2.3683
 9189TIP3    H248983   3.719   3.208   3.208  1.2408  0.1322 -0.5090
 9190TIP3   OH248984   5.425   6.255  12.131 -0.8386 -0.0114  0.3622
 9190TIP3    H148985   5.480   6.308  12.073 -0.3562 -0.3155  0.5266
 9190TIP3    H248986   5.487   6.194  12.172 -1.2819 -0.2569  0.6714
 9191TIP3   OH248987   0.908   4.083   5.427  0.3030 -0.1350 -0.0658
 9191TIP3    H148988   0.959   4.133   5.490  1.9002 -2.2682  0.4697
 9191TIP3    H248989   0.951   3.997   5.425 -1.6007 -1.1249 -1.7469
 9192TIP3   OH248990   4.406   0.948  15.340  0.0435 -0.2445 -0.0590
 9192TIP3    H148991   4.437   1.038  15.345  1.1642 -0.5855 -0.5278
 9192TIP3    H248992   4.407   0.917  15.431  1.9768 -0.5100 -0.1324
 9193TIP3   OH248993   2.690   5.139   3.850  0.1097  0.3246  0.0450
 9193TIP3    H148994   2.613   5.105   3.804 -1.3569  0.9293  1.9406
 9193TIP3    H248995   2.702   5.227   3.815  2.0050 -0.8592 -2.5962
 9194TIP3   OH248996   5.541   1.497  15.435 -0.1446  0.1169  0.5332
 9194TIP3    H148997   5.463   1.533  15.394 -0.1860 -0.2483  0.2857
 9194TIP3    H248998   5.584   1.573  15.475 -0.9549  0.2220  1.2362
 9195TIP3   OH248999   4.957   3.053  15.350 -0.1597  0.0445  0.4036
 9195TIP3    H149000   4.885   3.085  15.295 -0.0825  0.1257  0.3495
 9195TIP3    H249001   5.029   3.114  15.333 -0.6250  1.0205  1.7868
 9196TIP3   OH249002   3.770   2.247  13.900  0.2124 -0.0810  0.3556
 9196TIP3    H149003   3.784   2.338  13.874 -1.5050  0.2138  0.3267
 9196TIP3    H249004   3.732   2.254  13.988 -2.8635 -0.5342 -0.8197
 9197TIP3   OH249005   3.083   3.147  11.408 -0.4627  0.8645 -0.8625
 9197TIP3    H149006   3.178   3.153  11.407 -0.2301 -1.6274 -2.2255
 9197TIP3    H249007   3.052   3.229  11.370  1.2133  1.0420 -1.9233
 9198TIP3   OH249008   2.961   0.374   3.810  0.1180  0.1728 -0.2389
 9198TIP3    H149009   2.981   0.375   3.904 -0.3840  0.6590 -0.1339
 9198TIP3    H249010   3.021   0.308   3.774  1.2164  0.8788  0.2217
 9199TIP3   OH249011   2.789   1.316  14.524  0.0732  0.4343 -0.1508
 9199TIP3    H149012   2.861   1.366  14.487 -2.0439  2.8176 -1.4148
 9199TIP3    H249013   2.769   1.250  14.458  0.7167  0.1468 -0.0618
 9200TIP3   OH249014   5.745   0.742  15.173 -0.0217  0.1508  0.0897
 9200TIP3    H149015   5.672   0.694  15.212  0.6589  0.0131  1.2564
 9200TIP3    H249016   5.718   0.833  15.174  0.2521  0.2461  1.6109
 9201TIP3   OH249017   1.835   3.936  11.168 -0.3824 -0.5560  0.1109
 9201TIP3    H149018   1.927   3.960  11.176 -0.5328  0.4247 -0.7760
 9201TIP3    H249019   1.790   3.993  11.230 -0.5631  0.3072 -0.7819
 9202TIP3   OH249020   3.630   1.627   2.450 -0.5488  0.2489  0.0961
 9202TIP3    H149021   3.618   1.587   2.536 -1.6990  1.8553  0.7163
 9202TIP3    H249022   3.630   1.721   2.467  3.9658  0.6759 -1.0372
 9203TIP3   OH249023   4.542   5.516   0.679 -0.1187 -0.0255 -0.5040
 9203TIP3    H149024   4.529   5.462   0.757 -2.8003  1.7050  0.4094
 9203TIP3    H249025   4.624   5.563   0.696  0.2351 -0.9461  0.4532
 9204TIP3   OH249026   2.582   3.470   3.737 -0.4443  0.5485  0.5677
 9204TIP3    H149027   2.509   3.481   3.798 -2.0740  0.5070 -1.2509
 9204TIP3    H249028   2.614   3.559   3.722 -2.4994  1.0909 -1.2484
 9205TIP3   OH249029   6.772   4.424   2.458  0.0608  0.2512  0.6431
 9205TIP3    H149030   6.787   4.349   2.400  0.7211  0.4155  0.5915
 9205TIP3    H249031   6.678   4.440   2.453  0.3333  1.7678 -2.3110
 9206TIP3   OH249032   4.826   3.650   3.689 -0.3831  0.4678  0.1596
 9206TIP3    H149033   4.861   3.688   3.770  1.8936  1.5042 -1.2214
 9206TIP3    H249034   4.889   3.582   3.665 -1.4375 -0.3454 -0.3779
 9207TIP3   OH249035   0.651   3.944   6.406 -0.4608 -0.1391  0.3788
 9207TIP3    H149036   0.691   3.940   6.493 -0.3229  0.9201  0.3713
 9207TIP3    H249037   0.613   3.857   6.394  0.6853 -0.7488  0.9377
 9208TIP3   OH249038   0.924   5.365  13.124  0.6770 -0.1469 -0.0519
 9208TIP3    H149039   0.910   5.460  13.121  2.3331  0.1841  1.4304
 9208TIP3    H249040   1.001   5.354  13.179 -0.3741 -2.4689  1.0725
 9209TIP3   OH249041   2.632   2.324  12.718 -0.3241 -0.2655 -0.4884
 9209TIP3    H149042   2.658   2.236  12.691 -0.6570 -0.6793  0.4893
 9209TIP3    H249043   2.569   2.309  12.788  0.3669  0.7549  0.3820
 9210TIP3   OH249044   4.807   2.414  11.616  0.0541 -0.5090  0.1743
 9210TIP3    H149045   4.831   2.470  11.542  0.8785  0.9900  1.5136
 9210TIP3    H249046   4.879   2.351  11.623 -0.4126 -1.1663 -0.7559
 9211TIP3   OH249047   5.388   6.775  12.595 -0.2894 -0.1927 -0.5197
 9211TIP3    H149048   5.326   6.703  12.608  1.0996 -1.2641  0.4294
 9211TIP3    H249049   5.447   6.744  12.527 -0.2925  0.4909 -0.8446
 9212TIP3   OH249050   0.175   2.545  15.167 -0.0179 -0.0145  0.8086
 9212TIP3    H149051   0.094   2.571  15.122  0.1788 -0.8139 -0.0288
 9212TIP3    H249052   0.181   2.606  15.241 -0.9521  0.5867  0.4181
 9213TIP3   OH249053   5.175   2.310   0.411 -0.0876  0.6167 -0.1001
 9213TIP3    H149054   5.214   2.392   0.441  0.2944  0.6341 -0.6355
 9213TIP3    H249055   5.147   2.328   0.321  0.5850 -0.0303 -0.4463
 9214TIP3   OH249056   3.344   2.998  11.716  0.0799  0.3752 -0.5705
 9214TIP3    H149057   3.290   2.928  11.679 -0.4041 -0.1728  1.0707
 9214TIP3    H249058   3.296   3.026  11.794  1.7216  0.4893  0.4375
 9215TIP3   OH249059   4.858   4.065  13.485 -0.8478  0.2592 -0.4362
 9215TIP3    H149060   4.886   3.975  13.502  0.3405  0.2763 -2.0333
 9215TIP3    H249061   4.821   4.062  13.397 -0.1511  1.4444 -0.7893
 9216TIP3   OH249062   1.730   1.783  13.181 -0.8122  0.7724 -0.2324
 9216TIP3    H149063   1.769   1.815  13.262 -1.2129 -0.0373  0.2986
 9216TIP3    H249064   1.790   1.812  13.112 -2.0287  4.2390 -0.0397
 9217TIP3   OH249065   0.481   1.847  15.717 -0.3647 -0.5410  0.2144
 9217TIP3    H149066   0.430   1.897  15.781  0.0000 -1.8272  1.5716
 9217TIP3    H249067   0.466   1.756  15.741  2.0250 -0.9917  0.2526
 9218TIP3   OH249068   1.324   5.152   0.837  0.1487 -0.2852  0.1401
 9218TIP3    H149069   1.404   5.156   0.785  0.3063  0.5499  0.4307
 9218TIP3    H249070   1.334   5.072   0.889  0.6848 -0.3120  0.0024
 9219TIP3   OH249071   1.292   0.463   4.600 -1.1027  0.4853 -0.6062
 9219TIP3    H149072   1.321   0.436   4.687  0.2839 -0.5640 -1.3428
 9219TIP3    H249073   1.262   0.382   4.559 -0.5889  0.7515 -1.5220
 9220TIP3   OH249074   3.144   1.325  15.211  0.2889  0.2187 -0.6244
 9220TIP3    H149075   3.132   1.236  15.243 -0.8246 -0.0455 -1.6932
 9220TIP3    H249076   3.151   1.378  15.290 -0.6261 -0.6349  0.0590
 9221TIP3   OH249077   2.014   1.300  16.779 -0.9338  0.5238  0.7883
 9221TIP3    H149078   2.001   1.261  16.693 -1.1683 -0.6272  1.3272
 9221TIP3    H249079   2.028   1.226  16.838 -1.0583  1.2678  1.7945
 9222TIP3   OH249080   1.274   2.575   3.118 -0.0817 -0.1834 -0.4471
 9222TIP3    H149081   1.223   2.591   3.038  0.0822 -2.5437 -1.1211
 9222TIP3    H249082   1.219   2.516   3.170  0.7238 -0.4081  0.1739
 9223TIP3   OH249083   4.865   5.490   4.964  0.3029 -0.0604 -0.4139
 9223TIP3    H149084   4.887   5.397   4.975  0.3348  0.0153  0.2242
 9223TIP3    H249085   4.911   5.516   4.884 -0.2595 -0.7626 -0.9781
 9224TIP3   OH249086   4.712   6.216  15.888  0.6285 -0.1400  0.0438
 9224TIP3    H149087   4.719   6.271  15.966 -0.0844 -1.0669  0.7737
 9224TIP3    H249088   4.801   6.216  15.852  1.0924 -0.0775  1.1286
 9225TIP3   OH249089   2.325   5.053  11.798  0.0164  0.2950 -0.1889
 9225TIP3    H149090   2.377   4.977  11.769 -1.6832 -1.9430  2.1693
 9225TIP3    H249091   2.388   5.108  11.845  1.0603 -0.2261 -0.9223
 9226TIP3   OH249092   0.367   5.705  14.555 -0.1511  0.0217 -0.2635
 9226TIP3    H149093   0.410   5.622  14.532 -1.0605 -0.4695 -0.2347
 9226TIP3    H249094   0.278   5.679  14.579 -0.5097  1.0410 -0.4789
 9227TIP3   OH249095   2.301   1.795  12.802 -0.0265 -0.3280 -0.2777
 9227TIP3    H149096   2.288   1.836  12.887 -0.2255  0.9751 -0.9232
 9227TIP3    H249097   2.396   1.783  12.795 -0.0222 -0.5804  0.1865
 9228TIP3   OH249098   2.615   2.865   4.956 -0.7047 -0.4016  0.1477
 9228TIP3    H149099   2.659   2.949   4.948 -1.7326  0.1493  0.1207
 9228TIP3    H249100   2.668   2.804   4.904  2.2796 -0.7043  3.1869
 9229TIP3   OH249101   4.446   1.079  16.612  0.2192 -0.6318  0.1123
 9229TIP3    H149102   4.391   1.086  16.535  2.6262 -0.5336 -1.7172
 9229TIP3    H249103   4.525   1.130  16.590  0.1449  1.2506  3.5010
 9230TIP3   OH249104   5.570   5.647  12.885 -0.2531  0.4892 -0.0515
 9230TIP3    H149105   5.541   5.696  12.963  2.2774  0.8740  0.7346
 9230TIP3    H249106   5.515   5.568  12.885  0.9701 -0.5592  3.3821
 9231TIP3   OH249107   6.512   0.707   0.851  0.2209 -0.4510 -0.0388
 9231TIP3    H149108   6.505   0.612   0.850  1.4203 -0.5677 -1.6190
 9231TIP3    H249109   6.426   0.737   0.819  0.4284 -1.0880 -1.2646
 9232TIP3   OH249110   0.872   1.404  11.161  0.0915 -0.3891  0.0135
 9232TIP3    H149111   0.855   1.438  11.073  3.1270  1.3081 -0.0938
 9232TIP3    H249112   0.904   1.315  11.147 -0.6491 -0.5879 -0.4623
 9233TIP3   OH249113   6.396   1.283  13.322 -0.8998 -0.4478 -0.2516
 9233TIP3    H149114   6.452   1.360  13.338  0.0489  0.1751 -5.0425
 9233TIP3    H249115   6.444   1.210  13.362  0.2363  0.8719  0.9347
 9234TIP3   OH249116   5.996   3.326  16.155  0.2270 -0.0723  0.5170
 9234TIP3    H149117   6.054   3.383  16.206 -0.3046 -0.1162  1.1808
 9234TIP3    H249118   6.030   3.238  16.167  0.8062  0.0480 -0.1752
 9235TIP3   OH249119   2.411   4.671  11.598  0.0994 -0.3083 -0.0126
 9235TIP3    H149120   2.333   4.699  11.550  0.9831  2.5512  0.0163
 9235TIP3    H249121   2.470   4.637  11.531 -0.6641 -1.3044 -0.1990
 9236TIP3   OH249122   4.689   4.218  13.249  0.5617 -0.2652  0.1338
 9236TIP3    H149123   4.658   4.144  13.196 -0.3493  0.0204  0.2603
 9236TIP3    H249124   4.626   4.224  13.321  1.8258 -0.7160  1.3422
 9237TIP3   OH249125   5.815   5.631   2.724  0.5427 -0.0081  0.4124
 9237TIP3    H149126   5.761   5.587   2.658  0.4054 -0.3906  0.7751
 9237TIP3    H249127   5.876   5.564   2.754  2.3995  0.8702 -1.2343
 9238TIP3   OH249128   0.520   2.832  14.545 -0.2728  0.1928  0.1613
 9238TIP3    H149129   0.437   2.866  14.512  0.1988  0.9335 -0.2985
 9238TIP3    H249130   0.580   2.906  14.538  0.1600 -0.0046  1.5306
 9239TIP3   OH249131   5.727   4.892   3.961  0.2203 -0.0252 -0.1404
 9239TIP3    H149132   5.717   4.955   3.889 -0.4645 -1.9369 -1.8250
 9239TIP3    H249133   5.798   4.835   3.933  1.0874  0.1971  1.5307
 9240TIP3   OH249134   3.050   5.428  11.330 -0.5854 -0.2111  0.4138
 9240TIP3    H149135   3.101   5.375  11.391 -0.7380  0.6411  1.2883
 9240TIP3    H249136   3.001   5.489  11.385 -3.1419 -1.4733 -0.3226
 9241TIP3   OH249137   6.511   0.386   1.583 -0.3189 -0.6882 -0.8503
 9241TIP3    H149138   6.572   0.315   1.602  0.1024 -0.5201 -1.5606
 9241TIP3    H249139   6.450   0.385   1.657  1.1112 -0.2221  0.4125
 9242TIP3   OH249140   0.994   6.175   4.576 -0.1965 -0.3453 -0.5015
 9242TIP3    H149141   1.074   6.216   4.543 -0.3036  0.5775  0.3296
 9242TIP3    H249142   0.927   6.199   4.513  0.2512 -1.4816 -1.4320
 9243TIP3   OH249143   4.547   6.113   1.155  0.1558 -0.4464 -0.1458
 9243TIP3    H149144   4.525   6.024   1.184 -1.2604  0.2149  0.9131
 9243TIP3    H249145   4.492   6.126   1.077  1.1470 -0.8593 -0.9292
 9244TIP3   OH249146   2.763   4.298  13.048  0.7413 -0.2944 -0.4689
 9244TIP3    H149147   2.675   4.329  13.024  0.5767  0.0564  0.5146
 9244TIP3    H249148   2.799   4.369  13.102  1.0074 -1.0832  0.4275
 9245TIP3   OH249149   3.443   5.082  12.426  0.4022 -0.4498  0.6782
 9245TIP3    H149150   3.514   5.147  12.429  0.6868 -0.7880  1.2281
 9245TIP3    H249151   3.450   5.034  12.508 -1.3442  0.4296  1.4114
 9246TIP3   OH249152   3.859   0.939   0.385  0.4077  0.1990  0.5236
 9246TIP3    H149153   3.862   0.863   0.327  1.3326  1.0864 -0.6496
 9246TIP3    H249154   3.818   1.008   0.333  1.5066  1.0958  0.8031
 9247TIP3   OH249155   1.227   6.393   1.945  0.2277 -0.3615 -0.8904
 9247TIP3    H149156   1.319   6.366   1.948  0.5013  0.5231 -0.8786
 9247TIP3    H249157   1.198   6.387   2.036 -0.1613 -2.0145 -1.0920
 9248TIP3   OH249158   0.160   5.372   5.941 -0.3270  0.6787  0.3575
 9248TIP3    H149159   0.173   5.305   6.008 -1.5142 -0.3744 -0.4368
 9248TIP3    H249160   0.248   5.391   5.909 -0.0492 -1.3815 -0.2306
 9249TIP3   OH249161   6.255   5.791   2.077  0.3368  0.3517  0.4160
 9249TIP3    H149162   6.312   5.768   2.151 -1.4440 -1.0560  1.4568
 9249TIP3    H249163   6.210   5.871   2.106 -1.4927 -1.0269  1.6348
 9250TIP3   OH249164   2.392   3.690  15.915 -0.2966  0.5634 -0.1378
 9250TIP3    H149165   2.487   3.688  15.927 -0.1765  1.9869 -0.6521
 9250TIP3    H249166   2.359   3.617  15.968  1.1638 -0.7119 -0.8837
 9251TIP3   OH249167   0.590   4.504   5.364 -0.4221  0.3886 -0.2500
 9251TIP3    H149168   0.508   4.554   5.368 -0.9962 -0.6062  2.2702
 9251TIP3    H249169   0.655   4.561   5.405 -0.9114 -0.5267  1.9233
 9252TIP3   OH249170   4.178   5.576  13.250 -0.5457 -0.5430  0.2113
 9252TIP3    H149171   4.209   5.509  13.311  1.8831  0.2334 -0.0608
 9252TIP3    H249172   4.257   5.623  13.224 -1.9850  1.5001 -0.7306
 9253TIP3   OH249173   1.185   2.630  16.133  0.1525  0.4083 -0.0216
 9253TIP3    H149174   1.273   2.649  16.163 -0.1446  0.0708  1.0972
 9253TIP3    H249175   1.141   2.589  16.208 -0.6127 -0.4673 -0.8990
 9254TIP3   OH249176   4.707   6.690  11.733  0.4473  0.0282 -0.4704
 9254TIP3    H149177   4.612   6.689  11.719  0.2992 -2.2567  0.2023
 9254TIP3    H249178   4.718   6.717  11.824  0.5439  1.5859 -0.9313
 9255TIP3   OH249179   1.533   2.930   5.683  0.3711 -0.0594 -0.6842
 9255TIP3    H149180   1.572   2.928   5.596  1.8694  1.9997 -0.1429
 9255TIP3    H249181   1.598   2.888   5.739  0.0101 -0.1906 -0.3591
 9256TIP3   OH249182   2.358   2.499   4.597  0.4686 -0.2242 -0.2585
 9256TIP3    H149183   2.272   2.490   4.557  0.2690 -0.0470  0.1238
 9256TIP3    H249184   2.418   2.457   4.536 -0.1701 -2.3451  0.4834
 9257TIP3   OH249185   4.332   4.032   3.723 -0.1831 -0.1445 -0.1216
 9257TIP3    H149186   4.258   3.972   3.716  0.8839 -1.3684 -2.0611
 9257TIP3    H249187   4.364   4.041   3.633  1.5221  0.9829  0.5419
 9258TIP3   OH249188   4.963   0.405   1.862 -0.0017 -0.1140  0.3386
 9258TIP3    H149189   4.941   0.498   1.872  2.9595  0.7347  0.1296
 9258TIP3    H249190   4.928   0.381   1.777  0.1247  1.1506 -0.0896
 9259TIP3   OH249191   4.389   0.406   5.833  0.0707  0.6668  0.0634
 9259TIP3    H149192   4.393   0.455   5.751  0.6528  1.0410  0.3144
 9259TIP3    H249193   4.355   0.469   5.897  2.7709  1.4230  0.8625
 9260TIP3   OH249194   2.647   1.287   5.830 -0.3138 -0.1141 -0.3229
 9260TIP3    H149195   2.629   1.252   5.917 -1.8502  1.6971  0.1287
 9260TIP3    H249196   2.740   1.312   5.833 -0.3928  0.0751  0.8507
 9261TIP3   OH249197   2.292   3.105  11.006  0.1270  0.0328 -0.2700
 9261TIP3    H149198   2.244   3.077  10.928  1.9234 -0.1225 -1.3756
 9261TIP3    H249199   2.238   3.175  11.044 -1.6899 -1.1585 -0.5781
 9262TIP3   OH249200   0.765   6.689   5.083  0.0589 -0.4190 -0.0066
 9262TIP3    H149201   0.737   6.597   5.090  0.2200 -0.5028 -0.4034
 9262TIP3    H249202   0.698   6.738   5.129 -0.1148 -0.7246  0.0706
 9263TIP3   OH249203   0.013   1.830  10.657  0.0643 -0.5375 -0.0873
 9263TIP3    H149204   0.088   1.856  10.710 -0.3470  1.1280 -0.2828
 9263TIP3    H249205  -0.009   1.742  10.688  0.3740  0.0453  1.9135
 9264TIP3   OH249206   5.779   3.883   1.071  0.2120 -0.6407 -0.4403
 9264TIP3    H149207   5.843   3.907   1.004 -1.1966  0.2527 -1.5220
 9264TIP3    H249208   5.791   3.789   1.082 -0.4609 -1.1144 -3.0429
 9265TIP3   OH249209   6.013   6.373   4.666 -0.0400  0.6240 -0.0592
 9265TIP3    H149210   5.978   6.458   4.695 -0.8058  0.4223 -0.3618
 9265TIP3    H249211   5.972   6.310   4.724 -0.5221  0.3419 -0.6933
 9266TIP3   OH249212   2.393   5.000   3.452  0.2873 -0.2434 -0.0600
 9266TIP3    H149213   2.450   5.070   3.484 -0.6329  0.7725 -0.5712
 9266TIP3    H249214   2.397   4.933   3.520 -0.1832  1.0684  1.3345
 9267TIP3   OH249215   3.422   4.010  12.076 -0.6144  0.4152 -0.1583
 9267TIP3    H149216   3.480   4.087  12.081  0.0030 -0.0359 -0.1868
 9267TIP3    H249217   3.386   4.002  12.164  0.2587  0.0421  0.1825
 9268TIP3   OH249218   3.868   4.926   5.385 -0.6235 -0.2135 -0.8241
 9268TIP3    H149219   3.860   4.832   5.374 -1.6043 -0.0831 -1.3322
 9268TIP3    H249220   3.798   4.949   5.446  0.4007  0.0292  0.3029
 9269TIP3   OH249221   5.430   0.963  13.202 -0.0225 -1.0955 -0.4309
 9269TIP3    H149222   5.506   0.904  13.200  0.2325 -0.8134  0.4143
 9269TIP3    H249223   5.397   0.955  13.291  0.5712  0.7259 -0.0188
 9270TIP3   OH249224   1.119   5.904   1.593 -0.7813 -0.6677  0.2335
 9270TIP3    H149225   1.048   5.843   1.573 -1.6719  0.4899 -0.2182
 9270TIP3    H249226   1.199   5.855   1.572 -1.5099 -1.3661 -1.0042
 9271TIP3   OH249227   0.597   3.748  16.427  0.0257  0.0073  0.0315
 9271TIP3    H149228   0.591   3.841  16.402 -3.5156  0.1549  0.8330
 9271TIP3    H249229   0.612   3.750  16.522 -0.0341 -0.2354  0.0456
 9272TIP3   OH249230   4.978   2.003   3.890 -0.1333 -0.8825  0.6281
 9272TIP3    H149231   5.024   2.084   3.912 -2.2456  0.2088  1.3341
 9272TIP3    H249232   4.978   1.953   3.972 -2.5213  0.3763  1.4876
 9273TIP3   OH249233   2.877   1.426  15.516  0.0867  0.0259  0.4813
 9273TIP3    H149234   2.844   1.481  15.444 -0.4740  0.5386  1.1102
 9273TIP3    H249235   2.827   1.455  15.592  1.1824  0.0017  1.2298
 9274TIP3   OH249236   6.478   5.470  14.705  0.5629 -0.0318 -0.4558
 9274TIP3    H149237   6.422   5.454  14.780  1.4327 -1.0508 -0.0066
 9274TIP3    H249238   6.533   5.392  14.698  1.0678  0.3998 -1.6453
 9275TIP3   OH249239   2.526   4.145  15.927 -0.0168 -0.0279 -0.4396
 9275TIP3    H149240   2.543   4.064  15.880  2.8733 -0.1966  0.6777
 9275TIP3    H249241   2.486   4.203  15.862 -1.5494 -2.0729 -1.4307
 9276TIP3   OH249242   2.865   5.461  12.811  0.4327 -0.2492  0.2935
 9276TIP3    H149243   2.914   5.387  12.848 -0.0451 -0.3709  0.6849
 9276TIP3    H249244   2.779   5.424  12.788 -0.4504  0.5621  2.1148
 9277TIP3   OH249245   2.195   3.912   3.110  0.1917 -0.5275 -0.6483
 9277TIP3    H149246   2.267   3.945   3.164 -0.1452 -0.9466  0.0695
 9277TIP3    H249247   2.153   3.846   3.164 -0.6236 -0.4191 -1.1331
 9278TIP3   OH249248   1.932   6.620   0.528  0.4374 -0.0025 -0.0640
 9278TIP3    H149249   1.932   6.529   0.498  3.0744 -0.5515  1.3016
 9278TIP3    H249250   1.847   6.630   0.572  0.0860 -1.8197 -0.2361
 9279TIP3   OH249251   5.862   3.758   1.798 -0.1632  0.1757  0.1799
 9279TIP3    H149252   5.808   3.692   1.755 -0.6052  0.8815 -0.3829
 9279TIP3    H249253   5.849   3.837   1.746 -1.4163  1.3201  2.0802
 9280TIP3   OH249254   0.698   3.070   0.494  0.2883  0.4548 -0.1531
 9280TIP3    H149255   0.735   3.144   0.446 -1.0083  1.3230  0.1252
 9280TIP3    H249256   0.636   3.030   0.433  0.6618 -0.1281 -0.1491
 9281TIP3   OH249257   0.928   6.496   1.970 -0.4961 -0.3602  0.7340
 9281TIP3    H149258   0.900   6.432   1.905  2.5224 -0.1643 -0.9378
 9281TIP3    H249259   0.956   6.444   2.045 -0.1645 -0.8811  0.2537
 9282TIP3   OH249260   6.417   4.835   2.494  0.0200 -0.1629 -0.3442
 9282TIP3    H149261   6.395   4.742   2.496  1.2484 -0.4631 -0.1236
 9282TIP3    H249262   6.334   4.878   2.475 -1.0486 -1.1321  1.7272
 9283TIP3   OH249263   3.923   0.072   5.751 -0.0138  0.1007  0.5482
 9283TIP3    H149264   3.853   0.061   5.815 -2.5259  0.6102 -1.9129
 9283TIP3    H249265   3.935   0.167   5.745  0.3214  0.0497  0.3737
 9284TIP3   OH249266   6.516   6.023  15.748  0.8878  0.0972  0.1659
 9284TIP3    H149267   6.503   6.023  15.843 -1.3950  0.7931 -0.1119
 9284TIP3    H249268   6.526   6.115  15.725 -0.9669  0.1472 -0.5397
 9285TIP3   OH249269   1.718   4.836   2.408 -0.0857 -0.4453  0.1527
 9285TIP3    H149270   1.668   4.846   2.328  0.3689 -0.1042 -0.0938
 9285TIP3    H249271   1.687   4.754   2.446  1.3676 -1.8770 -1.5775
 9286TIP3   OH249272   1.287   3.523   2.798  0.7171 -0.5651 -0.3732
 9286TIP3    H149273   1.211   3.469   2.819 -0.4824  1.2311  0.2326
 9286TIP3    H249274   1.332   3.535   2.882  1.9981 -2.0358 -0.8188
 9287TIP3   OH249275   6.607   0.862  11.274 -0.0446  0.1301  0.3265
 9287TIP3    H149276   6.683   0.920  11.275  0.0782  0.0135 -0.7528
 9287TIP3    H249277   6.541   0.908  11.326  0.2830  0.9057  0.0774
 9288TIP3   OH249278   6.760   1.969   2.551  0.0855 -0.4556 -0.4658
 9288TIP3    H149279   6.816   1.896   2.578 -1.8968 -1.1382  2.2730
 9288TIP3    H249280   6.673   1.930   2.541 -0.4437  1.0131 -1.9891
 9289TIP3   OH249281   5.251   4.965   3.426 -0.0016  0.0395  0.1172
 9289TIP3    H149282   5.241   4.914   3.507  0.1852  0.8394  0.6573
 9289TIP3    H249283   5.172   5.019   3.421 -0.2998 -0.4548 -0.5658
 9290TIP3   OH249284   1.242   4.991   2.911 -0.6048 -0.0466  0.1369
 9290TIP3    H149285   1.276   4.966   2.825 -1.1718 -0.0214 -0.0998
 9290TIP3    H249286   1.293   4.939   2.973  0.3763  0.5416 -0.1592
 9291TIP3   OH249287   1.441   4.043   2.137 -0.4523 -0.3965  0.2164
 9291TIP3    H149288   1.526   4.042   2.180 -0.2119  0.4395 -0.2289
 9291TIP3    H249289   1.437   3.959   2.090 -0.5102 -1.0904  1.4246
 9292TIP3   OH249290   3.020   1.863   3.335  0.0195 -0.3605  0.1460
 9292TIP3    H149291   3.015   1.957   3.346  0.1792 -0.1643 -1.2916
 9292TIP3    H249292   2.931   1.832   3.352 -0.2116  0.1474 -0.1213
 9293TIP3   OH249293   5.691   6.161   4.552  0.1052 -0.1984 -0.9164
 9293TIP3    H149294   5.747   6.172   4.475 -0.1279  1.1414 -0.9197
 9293TIP3    H249295   5.747   6.184   4.626  0.5733 -2.2601 -0.5582
 9294TIP3   OH249296   0.698   4.143  14.584 -0.1309  0.4941  0.2123
 9294TIP3    H149297   0.673   4.075  14.521  1.7599  0.6059 -0.7148
 9294TIP3    H249298   0.709   4.096  14.666 -1.7346  0.2032  0.3031
 9295TIP3   OH249299   2.782   0.862  11.067  0.1017 -0.0919  0.2587
 9295TIP3    H149300   2.841   0.810  11.013  0.7949  0.7553  0.1829
 9295TIP3    H249301   2.745   0.926  11.006  0.4231  0.4803  0.6594
 9296TIP3   OH249302   3.567   3.378   4.708  0.4405 -0.7415  0.0475
 9296TIP3    H149303   3.545   3.461   4.750 -0.7050 -0.5056 -0.9695
 9296TIP3    H249304   3.532   3.311   4.766 -0.4435 -0.4446 -0.1339
 9297TIP3   OH249305   1.968   5.000  15.709  0.1991  0.3303 -0.2381
 9297TIP3    H149306   1.895   4.956  15.666 -1.2415  0.9957  1.4342
 9297TIP3    H249307   2.039   4.997  15.645 -0.8009 -1.6899 -1.3192
 9298TIP3   OH249308   5.789   4.587  13.387 -0.1475 -0.9174 -0.2564
 9298TIP3    H149309   5.845   4.517  13.353  1.4526 -1.0439  2.4207
 9298TIP3    H249310   5.808   4.662  13.331  0.9483 -1.6040 -0.8408
 9299TIP3   OH249311   3.958   1.794  12.224  0.2646 -0.4610  1.0017
 9299TIP3    H149312   3.925   1.710  12.254  0.6625 -0.7750  0.5683
 9299TIP3    H249313   3.900   1.859  12.265 -0.6732 -0.9805  0.5212
 9300TIP3   OH249314   1.321   0.428  12.720 -0.7329 -0.7421  0.2728
 9300TIP3    H149315   1.285   0.517  12.717  2.6349  0.9184  2.5744
 9300TIP3    H249316   1.365   0.417  12.636 -0.6218  0.0541  0.2190
 9301TIP3   OH249317   2.017   0.840   2.134  0.7820 -0.2349  0.3083
 9301TIP3    H149318   2.096   0.787   2.142  1.7262  1.1140  0.1081
 9301TIP3    H249319   2.034   0.899   2.061 -0.0631  0.6487  0.8030
 9302TIP3   OH249320   0.095   0.752  13.758 -0.0534 -0.2329 -0.2098
 9302TIP3    H149321   0.067   0.802  13.834  1.9025  0.6317 -0.0185
 9302TIP3    H249322   0.108   0.817  13.689  0.6579 -0.7017 -0.5302
 9303TIP3   OH249323   0.419   3.966  14.302 -0.1799  0.0099  0.3001
 9303TIP3    H149324   0.401   4.033  14.368 -0.3729 -0.4994  0.7731
 9303TIP3    H249325   0.342   3.968  14.244 -1.1735 -1.1827  1.4938
 9304TIP3   OH249326   6.196   1.032  14.243 -0.0763  0.0287  0.6387
 9304TIP3    H149327   6.189   0.936  14.238  1.4236 -0.0478 -2.0268
 9304TIP3    H249328   6.272   1.047  14.299  2.9866 -0.7051 -2.9101
 9305TIP3   OH249329   1.513   2.821  14.017 -0.1983 -0.0306  0.5356
 9305TIP3    H149330   1.515   2.794  13.925 -1.8396  1.0493  0.1383
 9305TIP3    H249331   1.427   2.862  14.028 -0.2431 -0.5875  2.7038
 9306TIP3   OH249332   3.640   4.109  14.417 -0.6150 -0.5422 -0.2782
 9306TIP3    H149333   3.686   4.160  14.483 -0.9191  0.4838 -0.8338
 9306TIP3    H249334   3.707   4.053  14.378 -0.0635  0.1565 -0.3395
 9307TIP3   OH249335   2.722   4.450  14.648 -0.5619  0.3506  0.4404
 9307TIP3    H149336   2.735   4.511  14.720  0.3332 -0.6220  1.1360
 9307TIP3    H249337   2.805   4.402  14.641 -1.8749 -2.2869  1.3870
 9308TIP3   OH249338   1.381   5.368  13.648  0.0234 -0.2889  0.7308
 9308TIP3    H149339   1.374   5.422  13.569 -0.6615 -0.5095  0.6353
 9308TIP3    H249340   1.475   5.352  13.657  0.1886  0.4713  0.4605
 9309TIP3   OH249341   1.575   5.710  16.858 -0.4592  0.4540 -0.3524
 9309TIP3    H149342   1.567   5.658  16.778  0.8628  0.0275 -0.2164
 9309TIP3    H249343   1.575   5.801  16.828 -0.0337  0.2979 -0.8314
 9310TIP3   OH249344   1.745   4.946  15.343  0.1857  0.4356  0.2778
 9310TIP3    H149345   1.836   4.976  15.342 -0.1529  1.5018  0.2515
 9310TIP3    H249346   1.746   4.867  15.290  0.9954  0.7504 -0.2016
 9311TIP3   OH249347   1.356   2.512  15.437 -0.0449 -0.3600  0.0526
 9311TIP3    H149348   1.310   2.575  15.381 -0.8821 -0.9165  0.0853
 9311TIP3    H249349   1.427   2.479  15.383  1.1791  1.4950  0.4459
 9312TIP3   OH249350   4.367   5.714  16.068 -0.2227  0.0548  0.0143
 9312TIP3    H149351   4.374   5.808  16.052  0.7523 -0.1249 -0.7740
 9312TIP3    H249352   4.293   5.685  16.014 -1.5672  0.6029  1.5072
 9313TIP3   OH249353   2.197   2.029  16.266  0.8138 -0.5180 -0.2555
 9313TIP3    H149354   2.232   2.069  16.186  0.3223 -0.3750 -0.3990
 9313TIP3    H249355   2.264   2.046  16.332  0.2896  1.2077 -0.1180
 9314TIP3   OH249356   2.806   3.889   1.878  0.9400 -0.8617  0.0700
 9314TIP3    H149357   2.885   3.857   1.834  0.5501 -1.1448 -0.4407
 9314TIP3    H249358   2.758   3.935   1.810  0.0269 -1.8325  0.0274
 9315TIP3   OH249359   2.481   4.815  14.525  0.0339  0.6194 -0.0887
 9315TIP3    H149360   2.532   4.821  14.606 -0.5968 -1.1369  0.4857
 9315TIP3    H249361   2.537   4.854  14.458 -0.3343  4.3471  1.4930
 9316TIP3   OH249362   2.977   2.697   6.411  0.4748 -0.7119 -0.1996
 9316TIP3    H149363   3.070   2.702   6.433  0.8529 -1.3274 -1.5150
 9316TIP3    H249364   2.941   2.637   6.476  0.8794 -0.0380  0.6599
 9317TIP3   OH249365   2.694   5.383   1.295  0.2356 -0.6205  0.0210
 9317TIP3    H149366   2.615   5.390   1.349 -0.3129 -0.4345 -0.7911
 9317TIP3    H249367   2.669   5.420   1.211  0.7019 -2.0733 -0.7812
 9318TIP3   OH249368   1.778   4.506   0.880 -0.3760  0.2606  0.4547
 9318TIP3    H149369   1.765   4.510   0.785 -0.9971  2.7297  0.5608
 9318TIP3    H249370   1.699   4.464   0.914  0.6825 -2.3937 -0.1957
 9319TIP3   OH249371   2.568   0.959  10.651 -0.5829  0.1387  0.4503
 9319TIP3    H149372   2.647   0.928  10.605  0.3094  2.0896  0.5875
 9319TIP3    H249373   2.501   0.964  10.582  0.6585  2.7358 -0.7280
 9320TIP3   OH249374   0.978   5.346  12.762  0.0295  0.1090  0.1981
 9320TIP3    H149375   0.888   5.375  12.777 -0.0816 -0.6982  1.1638
 9320TIP3    H249376   1.032   5.411  12.807 -0.0557  0.6275 -0.4334
 9321TIP3   OH249377   5.075   6.732   3.438 -0.8207 -0.3167  0.2689
 9321TIP3    H149378   5.015   6.716   3.511 -0.9156 -0.3296  0.1889
 9321TIP3    H249379   5.019   6.726   3.360 -1.1079  1.4842  0.2732
 9322TIP3   OH249380   2.630   3.484  11.806  0.0205 -0.3102 -0.6294
 9322TIP3    H149381   2.546   3.521  11.830  0.8369 -0.0705  2.3415
 9322TIP3    H249382   2.610   3.395  11.777 -1.2044 -0.8430  1.6075
 9323TIP3   OH249383   2.796   2.493   3.231  0.4790  0.1892  0.2513
 9323TIP3    H149384   2.761   2.449   3.153  0.4856 -0.1636  0.4439
 9323TIP3    H249385   2.835   2.574   3.198 -0.1224  0.3704 -0.0263
 9324TIP3   OH249386   2.843   0.856  11.627 -0.1198 -0.2668  0.2349
 9324TIP3    H149387   2.895   0.933  11.649 -0.3086 -0.0698  0.0022
 9324TIP3    H249388   2.833   0.809  11.709 -1.2167  0.6960  0.6669
 9325TIP3   OH249389   4.089   3.087   0.790  0.7493  0.1408  0.4271
 9325TIP3    H149390   3.997   3.063   0.781  0.9177 -0.9011  1.3823
 9325TIP3    H249391   4.095   3.131   0.875  0.7847  2.0217 -0.5013
 9326TIP3   OH249392   2.864   3.889  15.319  0.4451 -0.2174 -0.3891
 9326TIP3    H149393   2.903   3.804  15.338  0.0640 -0.0081  1.5882
 9326TIP3    H249394   2.917   3.925  15.248  3.1745 -0.4195  1.3943
 9327TIP3   OH249395   4.431   0.881   5.774 -0.5203 -0.1506 -0.3510
 9327TIP3    H149396   4.500   0.936   5.738  0.1708 -0.1554  0.8947
 9327TIP3    H249397   4.357   0.940   5.787 -0.6187 -0.0560 -1.3137
 9328TIP3   OH249398   2.918   5.933  13.521 -0.4676  0.3384 -0.3966
 9328TIP3    H149399   2.925   6.013  13.468  0.1908  1.2056  0.9547
 9328TIP3    H249400   2.975   5.948  13.596 -0.8230 -1.1538  0.2181
 9329TIP3   OH249401   5.233   1.299  11.261  0.8489 -0.3313 -0.5755
 9329TIP3    H149402   5.311   1.304  11.315 -0.1573 -2.1040  1.1982
 9329TIP3    H249403   5.221   1.388  11.227  1.9375  0.7028  1.5629
 9330TIP3   OH249404   3.510   0.084  13.916  0.0820  0.5543  0.0509
 9330TIP3    H149405   3.594   0.130  13.920 -0.6944  2.1480 -0.8927
 9330TIP3    H249406   3.487   0.082  13.823 -1.5316  1.3688  0.3854
 9331TIP3   OH249407   3.174   5.860   0.799 -0.5129 -0.3184  0.1371
 9331TIP3    H149408   3.099   5.918   0.811 -0.6302 -0.3851 -0.2865
 9331TIP3    H249409   3.136   5.774   0.780 -0.3481  0.0328 -2.0332
 9332TIP3   OH249410   3.497   5.244   0.841 -0.0116  0.6948  0.0455
 9332TIP3    H149411   3.590   5.231   0.820 -0.3920 -0.9480 -0.7577
 9332TIP3    H249412   3.486   5.339   0.841  1.8702  0.9698  1.1102
 9333TIP3   OH249413   0.695   4.325  11.857 -0.0567  0.8967 -0.5657
 9333TIP3    H149414   0.746   4.363  11.929 -1.1121  0.8531  0.2331
 9333TIP3    H249415   0.741   4.353  11.778  2.0932 -0.3966  0.1239
 9334TIP3   OH249416   5.132   0.192   1.973 -0.8468 -0.3653  0.0230
 9334TIP3    H149417   5.077   0.261   1.934  0.7491  0.3197 -1.1256
 9334TIP3    H249418   5.086   0.111   1.954 -0.7819  0.0606 -2.2380
 9335TIP3   OH249419   6.337   5.483   0.491 -0.2454  0.5800  0.0146
 9335TIP3    H149420   6.397   5.416   0.524 -0.6257 -0.3338 -1.1075
 9335TIP3    H249421   6.262   5.479   0.550  0.0548  0.5428  0.3995
 9336TIP3   OH249422   5.495   2.765  11.690 -0.6063 -0.1343  0.3731
 9336TIP3    H149423   5.420   2.730  11.642 -0.1765  0.4590 -0.7671
 9336TIP3    H249424   5.475   2.747  11.782 -2.6718  0.9896  0.2090
 9337TIP3   OH249425   4.845   1.521  12.136 -0.4921 -0.1613  0.3936
 9337TIP3    H149426   4.872   1.582  12.205  2.3359 -0.4325 -0.3503
 9337TIP3    H249427   4.831   1.576  12.059 -0.9269 -0.1467  0.4812
 9338TIP3   OH249428   3.835   5.032   3.142 -0.2191  0.4167 -0.2788
 9338TIP3    H149429   3.923   5.065   3.124  0.1860 -0.5510 -0.1260
 9338TIP3    H249430   3.783   5.058   3.066  0.3444  0.4751 -0.6489
 9339TIP3   OH249431   1.823   3.143   3.627 -0.2447 -0.1266  0.1512
 9339TIP3    H149432   1.801   3.050   3.633 -1.1257 -0.0820 -1.6672
 9339TIP3    H249433   1.883   3.148   3.552 -1.1838  0.9057 -0.5615
 9340TIP3   OH249434   4.133   5.768   5.491  0.0685 -0.0550  0.1759
 9340TIP3    H149435   4.076   5.798   5.562  0.6668  1.2452  0.1194
 9340TIP3    H249436   4.073   5.727   5.429 -0.5224 -0.7850  1.1904
 9341TIP3   OH249437   4.062   5.239   4.159  0.3575  0.2655 -0.3374
 9341TIP3    H149438   4.042   5.207   4.071 -0.5894  2.1165 -0.8490
 9341TIP3    H249439   4.035   5.331   4.158  0.6571  0.4315  1.7861
 9342TIP3   OH249440   3.074   3.016  13.663 -0.0059  0.2097 -0.0998
 9342TIP3    H149441   3.135   3.067  13.717 -0.5369  0.2718  0.4454
 9342TIP3    H249442   3.059   2.936  13.712 -1.2776  0.7031  0.3353
 9343TIP3   OH249443   3.728   4.153  15.584  0.0362  0.2751  0.8832
 9343TIP3    H149444   3.797   4.108  15.535  0.5893  1.9292  0.0485
 9343TIP3    H249445   3.662   4.086  15.600 -0.6791 -0.2025 -3.0757
 9344TIP3   OH249446   4.744   3.588  13.717 -0.2338 -0.1225  0.1343
 9344TIP3    H149447   4.800   3.528  13.765 -1.9059 -1.3820  0.6023
 9344TIP3    H249448   4.707   3.535  13.646  0.3631  1.0954 -1.1316
 9345TIP3   OH249449   3.911   0.451   2.829  0.3281 -0.2574  0.4079
 9345TIP3    H149450   4.005   0.432   2.830  0.4553  0.3232  1.2980
 9345TIP3    H249451   3.900   0.518   2.897 -0.5985  0.3002 -0.2652
 9346TIP3   OH249452   5.134   2.021  11.663 -0.1064 -0.2214 -0.1474
 9346TIP3    H149453   5.197   1.959  11.698 -1.1230  0.5943  3.4970
 9346TIP3    H249454   5.059   1.967  11.637  0.1451 -0.7693  0.2447
 9347TIP3   OH249455   2.141   1.452  10.913 -0.2615  0.3978  0.4617
 9347TIP3    H149456   2.072   1.482  10.854 -0.9211 -0.5587  0.7023
 9347TIP3    H249457   2.214   1.429  10.856 -0.4811  0.5570  0.1150
 9348TIP3   OH249458   1.057   0.798   6.105  0.7436  0.3587 -0.4499
 9348TIP3    H149459   1.011   0.741   6.044  1.8923 -2.5211  1.1834
 9348TIP3    H249460   1.001   0.876   6.112 -1.9557 -1.3865 -1.2722
 9349TIP3   OH249461   0.874   6.207  15.737  0.2416 -0.2983  0.5083
 9349TIP3    H149462   0.934   6.217  15.662 -0.0481  2.1604  0.5508
 9349TIP3    H249463   0.836   6.293  15.750  0.0501 -0.7019  3.3388
 9350TIP3   OH249464   0.605   5.335   4.287  0.1943 -0.3208  0.9673
 9350TIP3    H149465   0.620   5.429   4.299 -1.3931  0.0690  0.2626
 9350TIP3    H249466   0.677   5.306   4.231  0.0883  0.7318  0.2619
 9351TIP3   OH249467   5.302   5.839  15.645  0.2444 -0.2751 -0.6202
 9351TIP3    H149468   5.256   5.829  15.562 -1.8227  1.4647  0.2215
 9351TIP3    H249469   5.387   5.877  15.621  0.2779 -1.1686 -2.0266
 9352TIP3   OH249470   3.394   3.980  13.710  0.0947 -0.2420  0.4430
 9352TIP3    H149471   3.312   3.930  13.721  0.1020 -0.1796  0.8056
 9352TIP3    H249472   3.393   4.042  13.783  0.5834 -0.4056  0.5885
 9353TIP3   OH249473   1.960   2.893   3.486  0.0670  0.1758 -0.5276
 9353TIP3    H149474   1.977   2.898   3.392  2.2047 -2.7371 -0.4228
 9353TIP3    H249475   2.045   2.907   3.527 -0.6815  0.5594  0.9509
 9354TIP3   OH249476   4.311   6.064   1.380  0.1636 -0.1089 -0.0792
 9354TIP3    H149477   4.251   6.001   1.422 -0.4295 -0.1670 -0.9687
 9354TIP3    H249478   4.272   6.079   1.294  1.4331 -0.1263 -0.6748
 9355TIP3   OH249479   2.978   4.158   2.150  0.1062  0.4486 -0.7846
 9355TIP3    H149480   3.004   4.162   2.058  1.1366  0.6961 -0.4944
 9355TIP3    H249481   2.883   4.152   2.148  0.1522 -0.2483 -1.8884
 9356TIP3   OH249482   3.208   5.102  13.811  0.5939 -0.5965  0.1086
 9356TIP3    H149483   3.296   5.115  13.847  0.8762 -0.9150 -0.4613
 9356TIP3    H249484   3.215   5.024  13.757  0.1503 -0.1911 -0.5540
 9357TIP3   OH249485   6.306   5.277  11.885 -0.6792 -0.2675 -0.1445
 9357TIP3    H149486   6.278   5.288  11.976 -2.4891  1.5038 -0.8270
 9357TIP3    H249487   6.316   5.367  11.853 -1.9115 -0.8175 -2.2039
 9358TIP3   OH249488   2.355   5.819   0.842 -0.4647  0.1509 -0.0206
 9358TIP3    H149489   2.324   5.771   0.919 -1.4046 -0.8990 -1.0269
 9358TIP3    H249490   2.403   5.754   0.791 -1.1362  0.4590 -1.0592
 9359TIP3   OH249491   2.704   3.827  17.042  0.0958  0.4192  0.0817
 9359TIP3    H149492   2.799   3.836  17.046  0.4871 -2.7233 -0.0128
 9359TIP3    H249493   2.684   3.751  17.097 -2.2418  0.3615 -0.7269
 9360TIP3   OH249494   5.296   2.375  13.667 -0.0951  0.4337 -0.2364
 9360TIP3    H149495   5.388   2.350  13.660 -0.2082  0.2879 -1.3194
 9360TIP3    H249496   5.292   2.432  13.744  0.6287 -0.7756  0.7121
 9361TIP3   OH249497   5.646   0.049  11.492  0.8217  0.3008 -0.3663
 9361TIP3    H149498   5.647   0.001  11.410  1.4995  1.3098 -0.9774
 9361TIP3    H249499   5.586   0.123  11.476 -1.4422 -1.0978  1.0556
 9362TIP3   OH249500   3.589   3.844  13.175 -0.5504  0.2324  0.1444
 9362TIP3    H149501   3.513   3.836  13.116 -0.9074  2.5034  0.2034
 9362TIP3    H249502   3.664   3.852  13.116 -0.6408  0.2800  0.0348
 9363TIP3   OH249503   1.706   1.973  15.328 -0.0269 -0.1113 -0.0394
 9363TIP3    H149504   1.652   1.997  15.404 -0.5170  0.7187 -0.6329
 9363TIP3    H249505   1.646   1.929  15.269 -0.2448  1.3672 -0.9767
 9364TIP3   OH249506   2.968   0.177   4.997  0.1733  0.3798  0.1078
 9364TIP3    H149507   3.037   0.208   5.056 -0.3292  0.3773  0.6975
 9364TIP3    H249508   2.978   0.232   4.918 -0.2295  1.5529  0.8464
 9365TIP3   OH249509   6.739   2.644  15.007 -0.0453  0.6927 -0.5968
 9365TIP3    H149510   6.656   2.632  15.053  0.2113  2.4240  0.4372
 9365TIP3    H249511   6.714   2.671  14.918 -0.6473  2.1218 -0.0289
 9366TIP3   OH249512   6.077   4.180  11.722  0.0923  0.1165 -0.1877
 9366TIP3    H149513   6.036   4.208  11.805  0.0744 -0.4686  0.0031
 9366TIP3    H249514   6.016   4.209  11.655 -0.4016 -0.3175  0.0687
 9367TIP3   OH249515   6.742   4.334  13.472 -0.2830  0.0542  0.3934
 9367TIP3    H149516   6.749   4.240  13.459  1.4352  0.0299  1.2389
 9367TIP3    H249517   6.681   4.364  13.405 -0.4484 -1.5758 -0.2092
 9368TIP3   OH249518   6.599   2.597  14.761  0.1407 -0.1057 -0.1055
 9368TIP3    H149519   6.618   2.507  14.736  1.5100  0.1542 -0.0627
 9368TIP3    H249520   6.511   2.593  14.800  0.0931 -1.3696 -0.3033
 9369TIP3   OH249521   1.994   0.096   6.411 -0.7531 -0.1288  0.2385
 9369TIP3    H149522   1.969   0.042   6.336 -0.8333 -0.3574  0.4276
 9369TIP3    H249523   1.983   0.038   6.487  1.5039 -0.6460  0.2345
 9370TIP3   OH249524   5.658   3.718  15.531 -0.3922 -0.3826 -0.4298
 9370TIP3    H149525   5.654   3.802  15.484 -0.0038 -0.6769 -1.0117
 9370TIP3    H249526   5.613   3.656  15.473  0.2903 -0.7975 -0.5283
 9371TIP3   OH249527   0.156   4.044   2.227  0.0443 -0.1883  0.2660
 9371TIP3    H149528   0.117   3.983   2.164 -0.7082  0.2469  0.2912
 9371TIP3    H249529   0.159   3.994   2.309  1.9131 -1.0858 -0.2928
 9372TIP3   OH249530   1.051   6.401   3.276  0.1292 -0.1168  0.3104
 9372TIP3    H149531   0.977   6.401   3.336  0.5192  0.2948  0.8127
 9372TIP3    H249532   1.120   6.354   3.323  0.1756 -0.5304 -0.1666
 9373TIP3   OH249533   6.572   1.545  16.263  0.3584 -0.3358  0.8962
 9373TIP3    H149534   6.642   1.489  16.297  1.6986  0.5146 -0.3319
 9373TIP3    H249535   6.608   1.580  16.182 -0.9346  1.3170  1.0037
 9374TIP3   OH249536   4.583   0.247   1.496 -0.0392 -0.4619 -0.4674
 9374TIP3    H149537   4.569   0.233   1.403  0.2490  0.2144 -0.6175
 9374TIP3    H249538   4.575   0.342   1.508 -2.3981 -0.7194  0.5864
 9375TIP3   OH249539   0.004   0.810   3.065 -0.5085  0.3948 -0.5511
 9375TIP3    H149540  -0.069   0.754   3.092 -0.4458  0.1224 -0.9495
 9375TIP3    H249541   0.049   0.831   3.147 -0.5433 -0.1207 -0.3957
 9376TIP3   OH249542   2.939   0.746  10.861  0.4745 -0.0356  0.3815
 9376TIP3    H149543   2.982   0.829  10.839  0.5411  0.4917  2.3682
 9376TIP3    H249544   3.010   0.691  10.895  0.0557 -0.1548  1.0631
 9377TIP3   OH249545   0.036   2.399   4.522 -0.8161 -0.2037 -0.2125
 9377TIP3    H149546  -0.057   2.417   4.512 -0.7242 -0.2694 -1.2297
 9377TIP3    H249547   0.079   2.470   4.474 -0.3436 -0.2674  0.1110
 9378TIP3   OH249548   3.190   5.491   5.799 -0.1114 -0.5106 -0.5425
 9378TIP3    H149549   3.196   5.479   5.894  0.5939  2.3722 -0.1457
 9378TIP3    H249550   3.275   5.461   5.766 -0.0651 -0.8048 -0.1685
 9379TIP3   OH249551   3.167   2.477   5.883 -0.3618 -0.3286  0.2316
 9379TIP3    H149552   3.231   2.530   5.930  1.3622 -2.4425  0.4222
 9379TIP3    H249553   3.174   2.506   5.792  1.4246 -0.9703  0.1196
 9380TIP3   OH249554   2.086   1.616   3.366 -0.0095 -0.0886 -0.3418
 9380TIP3    H149555   2.027   1.687   3.390 -1.8381 -1.3462 -0.8799
 9380TIP3    H249556   2.101   1.568   3.448  0.0274  0.0546 -0.2651
 9381TIP3   OH249557   6.148   0.828  13.316  0.1222 -0.1995  0.2955
 9381TIP3    H149558   6.163   0.913  13.358  1.0645 -0.9831  1.6232
 9381TIP3    H249559   6.054   0.814  13.323  0.0017  0.5786  0.3602
 9382TIP3   OH249560   4.678   1.505  12.701  0.0595  0.2761 -0.3800
 9382TIP3    H149561   4.676   1.416  12.665 -0.6126  0.7184 -1.4809
 9382TIP3    H249562   4.637   1.497  12.787  4.0308 -1.3076  1.6342
 9383TIP3   OH249563   5.651   5.089   4.987  0.1497  1.1008 -0.3989
 9383TIP3    H149564   5.743   5.114   4.986  0.3564  0.4715  0.9150
 9383TIP3    H249565   5.605   5.167   4.957  1.0064  2.0092  0.5647
 9384TIP3   OH249566   5.945   1.944   4.401  0.3116 -0.4836  0.4736
 9384TIP3    H149567   5.957   1.964   4.308  0.0886  0.8686  0.7040
 9384TIP3    H249568   5.860   1.981   4.423  1.8299  2.5227  1.9904
 9385TIP3   OH249569   3.763   5.017  11.132 -0.0642  0.1554 -0.1938
 9385TIP3    H149570   3.722   4.963  11.065 -0.4332  1.0607 -0.7147
 9385TIP3    H249571   3.832   5.064  11.085  1.2959 -0.9948  0.5716
 9386TIP3   OH249572   3.844   4.051   0.246 -0.1236 -0.0554  0.0662
 9386TIP3    H149573   3.862   3.958   0.234  0.0496 -0.1088  0.6904
 9386TIP3    H249574   3.756   4.053   0.285 -1.0390  0.1505 -1.8679
 9387TIP3   OH249575   1.864   3.360  17.083 -0.2303 -0.4048 -0.0590
 9387TIP3    H149576   1.837   3.381  17.173 -0.2756  0.3417 -0.2434
 9387TIP3    H249577   1.787   3.382  17.030  0.6789  1.7646 -0.5903
 9388TIP3   OH249578   6.494   2.179  16.399  0.1454 -0.6155  0.0847
 9388TIP3    H149579   6.541   2.098  16.380 -0.5462 -0.4610 -2.7925
 9388TIP3    H249580   6.402   2.156  16.389 -0.1142  0.3077  0.2489
 9389TIP3   OH249581   2.105   0.020   0.709  0.1928 -0.3886 -0.0902
 9389TIP3    H149582   2.114   0.111   0.680 -0.9268  0.5623  2.3210
 9389TIP3    H249583   2.026  -0.011   0.666 -0.2885  0.2998  0.2791
 9390TIP3   OH249584   1.974   2.636   1.547  0.2013  0.3738 -0.2789
 9390TIP3    H149585   1.902   2.694   1.571 -0.2370 -0.1847 -0.2177
 9390TIP3    H249586   1.982   2.576   1.621 -1.3191 -1.5215 -1.5445
 9391TIP3   OH249587   0.149   5.594  10.504  0.5206 -0.1034  0.1047
 9391TIP3    H149588   0.228   5.579  10.451  0.1723  0.5137 -0.6081
 9391TIP3    H249589   0.089   5.525  10.477 -0.0002  0.7623 -1.0136
 9392TIP3   OH249590   0.014   2.272   1.471 -0.0636  0.1376  0.5978
 9392TIP3    H149591   0.046   2.362   1.476  2.2392 -0.4860 -1.4440
 9392TIP3    H249592  -0.008   2.259   1.379 -0.7696 -1.2996  0.9423
 9393TIP3   OH249593   5.991   2.598   1.335 -1.1181 -0.4180  0.0504
 9393TIP3    H149594   5.952   2.552   1.409 -1.7844  0.7624  0.4700
 9393TIP3    H249595   5.941   2.570   1.259 -1.8734  0.0187  0.3815
 9394TIP3   OH249596   6.246   4.414  15.578  0.5430  0.0542  0.5867
 9394TIP3    H149597   6.268   4.498  15.537 -0.9037  0.2075  0.0828
 9394TIP3    H249598   6.160   4.392  15.543  0.5907 -1.2990  1.2647
 9395TIP3   OH249599   5.952   2.657  14.985  0.2228  0.4881 -0.2515
 9395TIP3    H149600   5.934   2.732  14.929  1.5824  0.6483 -0.5110
 9395TIP3    H249601   5.922   2.582  14.934 -2.1881  0.8930  0.4745
 9396TIP3   OH249602   0.314   0.862  10.825 -0.0727 -0.2608  0.3235
 9396TIP3    H149603   0.230   0.853  10.871  0.1346  0.3791  0.8345
 9396TIP3    H249604   0.319   0.784  10.770 -0.1938 -1.2291  1.6215
 9397TIP3   OH249605   3.020   1.148  14.480  0.3093 -0.1154 -0.3356
 9397TIP3    H149606   2.997   1.063  14.516  0.2831  0.0933  0.1590
 9397TIP3    H249607   2.957   1.209  14.520 -1.2159 -0.1620 -2.4529
 9398TIP3   OH249608   1.018   3.896   0.312 -0.2426 -0.7172  0.3949
 9398TIP3    H149609   0.971   3.946   0.245 -1.3544 -0.6058  1.2280
 9398TIP3    H249610   0.974   3.920   0.394  1.5599 -0.2797  1.2721
 9399TIP3   OH249611   5.718   3.290  13.874  0.0828  0.1097 -0.0622
 9399TIP3    H149612   5.775   3.252  13.806  0.9800  1.4033 -0.0778
 9399TIP3    H249613   5.647   3.227  13.883  0.6919 -0.7957 -1.1852
 9400TIP3   OH249614   3.579   2.289  16.669  0.6596  0.6107  0.3406
 9400TIP3    H149615   3.553   2.376  16.638  1.4508  1.0883  0.9794
 9400TIP3    H249616   3.497   2.248  16.696 -0.0718  0.1630 -2.3041
 9401TIP3   OH249617   5.501   5.953   4.528 -0.4304  0.1362 -0.2638
 9401TIP3    H149618   5.570   6.013   4.554 -1.0814  0.4623  0.7698
 9401TIP3    H249619   5.520   5.872   4.576 -0.8207  0.2616  0.1070
 9402TIP3   OH249620   4.311   5.393  16.435  0.1983 -0.0583  0.0545
 9402TIP3    H149621   4.271   5.371  16.351 -1.3466 -0.5161  0.8688
 9402TIP3    H249622   4.328   5.487  16.430  0.4753 -0.1442 -0.8919
 9403TIP3   OH249623   0.166   6.289  11.532  0.1139 -0.2421  0.0026
 9403TIP3    H149624   0.158   6.362  11.471 -0.7642 -0.4025 -0.0964
 9403TIP3    H249625   0.234   6.315  11.593 -0.9004  1.1281  0.6011
 9404TIP3   OH249626   1.169   5.969   4.674 -0.0134 -0.5921  0.5684
 9404TIP3    H149627   1.223   5.957   4.596 -0.2716 -1.4972  0.5125
 9404TIP3    H249628   1.111   6.042   4.653  1.8276  1.0764  1.0041
 9405TIP3   OH249629   6.325   5.071   1.439 -0.2416  0.0394  0.2016
 9405TIP3    H149630   6.257   5.090   1.504  0.7639 -0.8362  1.5684
 9405TIP3    H249631   6.407   5.086   1.486  0.5281 -0.2101 -1.0177
 9406TIP3   OH249632   3.302   3.175   0.452  0.4284  0.4072 -0.5321
 9406TIP3    H149633   3.328   3.262   0.422  0.4002  0.6620  0.1595
 9406TIP3    H249634   3.384   3.134   0.480  0.2601  0.7735  0.5428
 9407TIP3   OH249635   2.546   4.858  11.989  0.4183 -0.2643 -0.3229
 9407TIP3    H149636   2.538   4.941  12.036 -0.6257  0.0253 -0.9803
 9407TIP3    H249637   2.586   4.882  11.905 -0.0656 -0.3755 -0.5933
 9408TIP3   OH249638   2.722   6.466   3.509  0.1594 -0.1763  0.5252
 9408TIP3    H149639   2.771   6.399   3.462  1.0715  0.6609  0.2711
 9408TIP3    H249640   2.775   6.545   3.502 -0.5528  0.4037  1.4421
 9409TIP3   OH249641   3.483   3.284  12.650 -0.2636  0.0028 -0.0193
 9409TIP3    H149642   3.401   3.333  12.646 -0.8454 -0.9151  0.5052
 9409TIP3    H249643   3.457   3.192  12.645  0.5178 -0.4298  2.6627
 9410TIP3   OH249644   0.014   5.493  11.080  0.0580  1.0503 -0.1355
 9410TIP3    H149645   0.002   5.457  11.168 -1.2207  2.0906  0.1449
 9410TIP3    H249646   0.012   5.417  11.023  0.0326  0.4386  0.6572
 9411TIP3   OH249647   2.157   5.014   4.537  0.0997 -0.4516  0.0722
 9411TIP3    H149648   2.251   5.004   4.523  0.8000  3.1879  1.0617
 9411TIP3    H249649   2.126   5.058   4.458 -0.2177  0.6271  0.7704
 9412TIP3   OH249650   3.591   1.728   4.387  0.8465 -0.1421 -0.0117
 9412TIP3    H149651   3.673   1.766   4.419  1.2750  2.4865 -3.5647
 9412TIP3    H249652   3.618   1.646   4.345  1.1867 -0.5491  0.9648
 9413TIP3   OH249653   4.672   1.635   4.226 -0.0670 -0.0251  0.2891
 9413TIP3    H149654   4.632   1.589   4.152 -0.6186  0.5875  0.1973
 9413TIP3    H249655   4.610   1.704   4.248  0.9226  0.9371  0.1620
 9414TIP3   OH249656   1.343   1.444   5.854  0.3151 -0.3204  0.7603
 9414TIP3    H149657   1.414   1.424   5.793  0.1865 -2.1227  1.1432
 9414TIP3    H249658   1.274   1.382   5.832 -1.0584  1.1868  0.6083
 9415TIP3   OH249659   2.692   5.663  16.213 -0.6172 -0.6294  0.2246
 9415TIP3    H149660   2.695   5.746  16.165 -2.0827 -0.8965 -0.3637
 9415TIP3    H249661   2.644   5.603  16.156  0.8954 -2.0786  0.3938
 9416TIP3   OH249662   4.437   0.058  14.428 -0.1797 -0.0769 -0.2563
 9416TIP3    H149663   4.513   0.079  14.482  1.4838  0.4868 -2.6841
 9416TIP3    H249664   4.366   0.111  14.465  1.4267  1.9524  0.0848
 9417TIP3   OH249665   2.665   1.009  11.503  0.2261  0.2932 -0.1119
 9417TIP3    H149666   2.703   0.958  11.575 -0.7976  0.9863  0.9328
 9417TIP3    H249667   2.571   1.006  11.518  0.1452  2.8516  0.2269
 9418TIP3   OH249668   3.850   5.713  13.709  0.3446  0.0175  0.6879
 9418TIP3    H149669   3.827   5.771  13.782 -0.8783  0.8168 -0.2815
 9418TIP3    H249670   3.866   5.773  13.636  0.2913 -0.8111 -0.0147
 9419TIP3   OH249671   3.872   6.712  15.714 -0.0478  0.2556  0.7039
 9419TIP3    H149672   3.914   6.747  15.635 -0.9244  0.4162  0.3010
 9419TIP3    H249673   3.870   6.617  15.700  1.6067  0.0749  1.4416
 9420TIP3   OH249674   0.143   5.749   0.489 -0.3815 -0.3605 -0.0543
 9420TIP3    H149675   0.106   5.830   0.452  0.1979 -0.9054 -1.9476
 9420TIP3    H249676   0.135   5.760   0.584 -3.2695  0.5179 -0.3076
 9421TIP3   OH249677   0.579   2.827   3.253 -0.0882 -0.0242 -0.5590
 9421TIP3    H149678   0.608   2.865   3.336 -0.1132 -1.7329  0.2706
 9421TIP3    H249679   0.545   2.741   3.277 -1.9340  0.2190 -2.0779
 9422TIP3   OH249680   5.393   3.823   3.836 -0.0088  0.0790  0.7251
 9422TIP3    H149681   5.371   3.843   3.927 -1.5224  1.6785  0.0658
 9422TIP3    H249682   5.451   3.894   3.809 -0.9161  0.5701 -0.0102
 9423TIP3   OH249683   4.437   4.157  12.941  0.0588  0.2597  0.8253
 9423TIP3    H149684   4.351   4.151  12.899  0.3091  0.2261  0.3088
 9423TIP3    H249685   4.428   4.108  13.022 -0.1196 -0.6319  0.2830
 9424TIP3   OH249686   0.003   4.650  11.957  0.5210 -0.1208  0.1587
 9424TIP3    H149687   0.020   4.643  12.051 -0.9766 -0.3760  0.4299
 9424TIP3    H249688  -0.018   4.742  11.943  2.0062  0.1954 -0.1798
 9425TIP3   OH249689   2.614   4.533   1.364 -0.6196 -1.0272  0.6461
 9425TIP3    H149690   2.702   4.499   1.348  0.4384  1.2184  1.3221
 9425TIP3    H249691   2.589   4.497   1.449  0.6962  0.2150  1.6040
 9426TIP3   OH249692   2.387   1.327  14.046  0.1320  0.1274  0.0349
 9426TIP3    H149693   2.419   1.368  13.965 -1.0832  1.4918  0.2123
 9426TIP3    H249694   2.314   1.382  14.073 -0.8082 -1.5183  0.9433
 9427TIP3   OH249695   4.168   4.400  10.862 -0.0102 -0.3091  0.3870
 9427TIP3    H149696   4.096   4.418  10.802 -1.4744 -1.2613  1.7661
 9427TIP3    H249697   4.173   4.478  10.917  1.0382  0.3780 -0.6401
 9428TIP3   OH249698   3.794   6.778  10.841  0.0040 -0.2074  0.3257
 9428TIP3    H149699   3.787   6.830  10.921 -1.4417  0.1953 -0.0415
 9428TIP3    H249700   3.786   6.687  10.871  0.7454 -0.1380  0.7648
 9429TIP3   OH249701   5.332   0.815   1.832  0.1754  0.6542  0.4235
 9429TIP3    H149702   5.398   0.870   1.874  1.0574 -0.3971  0.4889
 9429TIP3    H249703   5.346   0.828   1.738 -1.3504  2.4899  0.3990
 9430TIP3   OH249704   5.885   6.023   2.062 -0.0365 -0.0827  0.0766
 9430TIP3    H149705   5.842   6.081   1.999  0.0109 -2.1929 -2.0404
 9430TIP3    H249706   5.979   6.035   2.045  0.0039 -0.1021  0.2863
 9431TIP3   OH249707   5.105   3.689   1.207 -0.5516  0.5512  0.0287
 9431TIP3    H149708   5.061   3.767   1.242  0.2345  1.1523 -0.3151
 9431TIP3    H249709   5.142   3.717   1.124  0.2763 -0.0229  0.1971
 9432TIP3   OH249710   4.148   4.214   2.354  0.1215 -0.0003 -0.4066
 9432TIP3    H149711   4.075   4.236   2.412 -0.5750 -0.4022 -1.1109
 9432TIP3    H249712   4.210   4.286   2.364  0.0655 -0.1036  0.8989
 9433TIP3   OH249713   4.170   4.227  17.059  0.4064  0.3405  0.0183
 9433TIP3    H149714   4.241   4.290  17.069  0.6966  0.0178  0.0391
 9433TIP3    H249715   4.111   4.245  17.132 -0.2969  1.5737 -0.8352
 9434TIP3   OH249716   3.797   0.908  13.218 -0.4334 -0.2996  0.0440
 9434TIP3    H149717   3.864   0.856  13.264 -1.0298 -1.8119 -0.7136
 9434TIP3    H249718   3.825   0.998  13.229  1.7556 -0.8819 -0.2384
 9435TIP3   OH249719   3.112   4.327   2.338  0.4913 -0.5605 -0.0201
 9435TIP3    H149720   3.093   4.261   2.404 -0.7945  0.4754  0.7006
 9435TIP3    H249721   3.047   4.313   2.270 -0.0563  0.1978  0.3317
 9436TIP3   OH249722   2.318   5.165   0.353 -0.5699  0.2294 -0.1384
 9436TIP3    H149723   2.319   5.081   0.397 -2.3060  0.4082  0.3383
 9436TIP3    H249724   2.320   5.230   0.424  2.3090  0.6904 -0.5213
 9437TIP3   OH249725   5.176   0.685   2.002  0.3011 -0.6511 -0.0245
 9437TIP3    H149726   5.224   0.748   1.948  0.1938 -0.7785 -0.2712
 9437TIP3    H249727   5.089   0.680   1.962  0.6068 -1.6890 -0.6002
 9438TIP3   OH249728   4.520   6.660  10.747  0.1383 -0.4921  0.6027
 9438TIP3    H149729   4.584   6.721  10.784 -0.3099 -0.3205  1.1212
 9438TIP3    H249730   4.492   6.701  10.665 -1.0082  0.6128  1.4901
 9439TIP3   OH249731   0.022   5.874   1.340 -0.4707  0.6117 -0.2081
 9439TIP3    H149732   0.050   5.947   1.285 -0.8106  0.4024 -0.6575
 9439TIP3    H249733   0.022   5.910   1.429  1.2746  0.6158 -0.1727
 9440TIP3   OH249734   5.187   6.629  10.467  0.8929  0.2762  0.3614
 9440TIP3    H149735   5.199   6.682  10.388 -0.2719  1.3271  0.8613
 9440TIP3    H249736   5.153   6.691  10.532  0.9049 -0.7852  1.4017
 9441TIP3   OH249737   4.697   5.211   1.740 -0.7956  0.0611 -0.3455
 9441TIP3    H149738   4.662   5.123   1.752 -0.9106  0.1225 -0.2299
 9441TIP3    H249739   4.792   5.202   1.754 -0.8689  0.0486  0.1528
 9442TIP3   OH249740   6.700   5.298  15.951 -0.3590  0.4356  0.3782
 9442TIP3    H149741   6.686   5.289  16.045 -0.2914 -1.7164  0.2239
 9442TIP3    H249742   6.786   5.261  15.935 -0.4310  0.6364 -0.5543
 9443TIP3   OH249743   2.812   2.622   5.932 -0.2095  1.0617  0.5074
 9443TIP3    H149744   2.863   2.542   5.924 -0.8848  0.7425 -0.8687
 9443TIP3    H249745   2.745   2.602   5.998  1.3045  1.4542  2.2603
 9444TIP3   OH249746   3.033   4.926   1.697 -0.4320  0.3040 -0.0736
 9444TIP3    H149747   2.987   4.956   1.776 -0.5932 -0.6062  0.1934
 9444TIP3    H249748   2.966   4.927   1.629 -0.9498 -1.2661  0.3725
 9445TIP3   OH249749   5.744   4.589   3.546 -0.6747  0.6634 -0.4276
 9445TIP3    H149750   5.811   4.590   3.478 -0.6191  0.8830 -0.3711
 9445TIP3    H249751   5.793   4.592   3.628 -0.7665  2.0221 -0.3964
 9446TIP3   OH249752   4.694   4.359   2.369 -0.4095 -0.9584  0.1063
 9446TIP3    H149753   4.716   4.442   2.411  1.2994 -1.5542  0.4756
 9446TIP3    H249754   4.779   4.316   2.356 -1.0906 -1.8182 -1.8239
 9447TIP3   OH249755   4.948   2.505  15.783 -0.1048  0.2066 -0.1604
 9447TIP3    H149756   5.002   2.583  15.780  0.9865 -0.5219 -0.1510
 9447TIP3    H249757   4.874   2.524  15.725  0.7734  0.7753 -1.1122
 9448TIP3   OH249758   0.672   3.257   5.029  0.0213  0.0109 -0.4535
 9448TIP3    H149759   0.635   3.241   4.942  0.2607 -1.1398 -0.3621
 9448TIP3    H249760   0.631   3.338   5.058  0.4083  0.7740 -1.8973
 9449TIP3   OH249761   6.625   6.552  12.426 -0.6533 -0.5792 -0.6848
 9449TIP3    H149762   6.677   6.537  12.347 -0.7344  1.1248 -1.1012
 9449TIP3    H249763   6.599   6.465  12.455  0.6277 -1.3269 -1.6912
 9450TIP3   OH249764   6.570   0.579  16.262  0.0734  0.0011 -0.6552
 9450TIP3    H149765   6.662   0.568  16.282  0.1265  1.6719  0.0776
 9450TIP3    H249766   6.524   0.542  16.337  0.2138  1.8035  0.3633
 9451TIP3   OH249767   5.167   5.348  11.665  0.1158  0.5230  0.6831
 9451TIP3    H149768   5.079   5.312  11.656  0.4816 -0.4264  0.7919
 9451TIP3    H249769   5.217   5.308  11.594  0.2020  1.9193 -0.0734
 9452TIP3   OH249770   4.142   3.777  16.117  0.7888  0.0565 -0.1077
 9452TIP3    H149771   4.091   3.753  16.194  0.4191  0.2124 -0.3036
 9452TIP3    H249772   4.129   3.871  16.107  2.1485  0.3414  0.5955
 9453TIP3   OH249773   1.482   1.208   1.707  0.0370  0.5776 -0.1945
 9453TIP3    H149774   1.449   1.139   1.649 -2.0331  2.2755 -1.1564
 9453TIP3    H249775   1.576   1.191   1.713 -0.4786 -2.7422  0.2406
 9454TIP3   OH249776   2.360   2.642  16.751 -0.4385  0.1874  0.1873
 9454TIP3    H149777   2.415   2.658  16.827 -0.4918  1.2252  0.0167
 9454TIP3    H249778   2.355   2.726  16.706 -0.5446 -0.3706 -0.8807
 9455TIP3   OH249779   2.890   0.912   1.726 -0.1409  0.0847  0.2701
 9455TIP3    H149780   2.886   0.859   1.646  0.5531 -2.4666  1.7929
 9455TIP3    H249781   2.868   1.000   1.697 -1.2837 -0.9695 -2.4861
 9456TIP3   OH249782   4.329   5.960  12.981  0.4521 -0.2351  0.1703
 9456TIP3    H149783   4.294   5.929  12.898  2.1064  1.5800 -1.2891
 9456TIP3    H249784   4.266   6.026  13.010 -0.0006 -0.6993  0.2695
 9457TIP3   OH249785   4.509   6.200   1.482 -0.0927 -0.1191 -0.2138
 9457TIP3    H149786   4.444   6.225   1.547 -0.1252  1.4897 -0.8343
 9457TIP3    H249787   4.459   6.150   1.417 -0.1007 -1.5311  0.8155
 9458TIP3   OH249788   4.425   6.217  13.252  0.7094 -0.0304 -0.4941
 9458TIP3    H149789   4.383   6.196  13.169  1.2603 -2.2309 -0.2930
 9458TIP3    H249790   4.519   6.208  13.235  0.8105 -1.1530  0.4668
 9459TIP3   OH249791   2.065   3.997  15.352 -0.1111 -0.5386  0.2054
 9459TIP3    H149792   2.086   3.999  15.445  0.9940 -1.8126  0.0145
 9459TIP3    H249793   2.019   4.080  15.335  1.1870  0.4913  1.5141
 9460TIP3   OH249794   3.989   0.275  15.740 -0.4773  0.0215  0.3040
 9460TIP3    H149795   3.923   0.222  15.785 -2.3645  0.8682 -1.2921
 9460TIP3    H249796   3.940   0.322  15.672  1.8708  0.3551 -1.2845
 9461TIP3   OH249797   5.023   3.206   0.099 -0.3393  1.0830  0.0427
 9461TIP3    H149798   5.114   3.202   0.128  0.0375  3.4202 -0.6469
 9461TIP3    H249799   4.977   3.249   0.170 -0.9426 -0.0811  0.3834
 9462TIP3   OH249800   1.055   4.970  12.057 -0.0004 -0.1308  0.4604
 9462TIP3    H149801   0.980   4.910  12.047 -1.0518  1.4294 -1.9940
 9462TIP3    H249802   1.024   5.037  12.119  1.0773 -1.8096  2.9850
 9463TIP3   OH249803   4.675   5.794  14.295  0.5636  0.1604  0.1797
 9463TIP3    H149804   4.607   5.830  14.352 -0.1487  0.6407 -0.9354
 9463TIP3    H249805   4.733   5.746  14.354  0.6891  1.8610  1.5276
 9464TIP3   OH249806   4.067   6.092  11.725 -0.0739 -0.4109  0.2291
 9464TIP3    H149807   4.016   6.171  11.742 -1.6797 -1.4035  0.2985
 9464TIP3    H249808   4.127   6.117  11.655  0.1146  1.1144  0.9012
 9465TIP3   OH249809   1.897   6.254   5.414 -0.3318 -0.1610 -0.5364
 9465TIP3    H149810   1.814   6.221   5.451 -0.5612 -0.6265 -1.4374
 9465TIP3    H249811   1.872   6.295   5.332  0.4470 -1.1752 -1.3038
 9466TIP3   OH249812   3.514   3.110  12.935 -0.0077 -0.0392 -0.1296
 9466TIP3    H149813   3.447   3.083  12.872  0.4510 -1.3168 -0.1008
 9466TIP3    H249814   3.596   3.108  12.885  0.3882 -1.2522  0.5188
 9467TIP3   OH249815   2.103   1.384   4.104 -0.5670 -0.0683 -0.1101
 9467TIP3    H149816   2.164   1.311   4.116 -1.9819 -1.2427  0.2559
 9467TIP3    H249817   2.019   1.352   4.139 -1.1735  1.8483  0.3427
 9468TIP3   OH249818   6.106   3.853  15.909  0.2613  0.2816 -0.6961
 9468TIP3    H149819   6.066   3.779  15.955 -1.9987  1.1033 -1.2473
 9468TIP3    H249820   6.161   3.895  15.976 -1.3799  0.2833  0.7163
 9469TIP3   OH249821   4.626   2.407   2.545 -0.2540 -0.3704  0.1243
 9469TIP3    H149822   4.546   2.354   2.541 -0.5806  0.1214  0.0331
 9469TIP3    H249823   4.629   2.451   2.460 -0.1896  0.0434  0.3381
 9470TIP3   OH249824   0.808   2.249   4.857 -0.1231  0.5401 -0.1344
 9470TIP3    H149825   0.743   2.241   4.788 -1.8267  1.0015  1.3476
 9470TIP3    H249826   0.818   2.343   4.871  0.5639  0.4651 -0.0530
 9471TIP3   OH249827   1.391   5.544   5.226 -0.7857  0.1881  0.2466
 9471TIP3    H149828   1.429   5.533   5.313 -0.7298  1.5217  0.4161
 9471TIP3    H249829   1.384   5.639   5.215  0.5795  0.0976 -1.8095
 9472TIP3   OH249830   0.741   3.112   1.829 -0.7727 -0.0787 -0.2935
 9472TIP3    H149831   0.662   3.075   1.869 -1.3694  0.8912 -0.5427
 9472TIP3    H249832   0.725   3.206   1.826 -0.6720 -0.0833 -2.6060
 9473TIP3   OH249833   6.316   4.727  13.962 -0.0145  0.7053  0.4434
 9473TIP3    H149834   6.370   4.751  14.037  2.2098  0.3668 -0.9816
 9473TIP3    H249835   6.297   4.811  13.919  0.6986  0.6872  0.0888
 9474TIP3   OH249836   1.321   1.123   2.186 -0.2845  0.4418 -0.3962
 9474TIP3    H149837   1.381   1.069   2.237 -0.1393  1.8327  0.9979
 9474TIP3    H249838   1.234   1.084   2.200 -0.2894  0.9808  1.2188
 9475TIP3   OH249839   5.971   0.001   3.489  0.1713  0.0418 -0.2396
 9475TIP3    H149840   5.920   0.067   3.443 -0.9323  0.2395  1.2117
 9475TIP3    H249841   6.029   0.052   3.546  2.8217 -0.1240 -2.5439
 9476TIP3   OH249842   2.012   5.671  15.082 -0.1011  0.0358 -0.1617
 9476TIP3    H149843   1.937   5.663  15.023 -0.2824 -0.5198  0.1375
 9476TIP3    H249844   2.088   5.645  15.029 -0.1429  0.4019 -0.4044
 9477TIP3   OH249845   1.317   0.860   3.463  0.9306 -0.3431  0.1303
 9477TIP3    H149846   1.405   0.846   3.498  1.6303  2.0095 -0.4930
 9477TIP3    H249847   1.331   0.901   3.378 -0.7890 -1.9593 -0.9964
 9478TIP3   OH249848   1.969   1.806  16.830 -0.5567 -0.2656  0.0866
 9478TIP3    H149849   2.037   1.851  16.879 -0.5357  0.4095 -0.5472
 9478TIP3    H249850   1.889   1.856  16.846 -1.2818 -1.9447  2.0926
 9479TIP3   OH249851   0.099   1.589   1.137 -0.4290 -0.1320 -0.2685
 9479TIP3    H149852   0.044   1.531   1.189  0.3867  0.7828  1.7059
 9479TIP3    H249853   0.042   1.661   1.112 -0.7732 -0.4674 -0.4546
 9480TIP3   OH249854   4.545   6.000   1.967  0.1850  0.1777  0.1994
 9480TIP3    H149855   4.587   6.058   1.904 -1.3345  2.6011  1.2875
 9480TIP3    H249856   4.517   5.925   1.914  1.9350  0.5076 -1.3201
 9481TIP3   OH249857   6.707   3.878  11.478  0.0055 -0.4526 -0.1260
 9481TIP3    H149858   6.729   3.948  11.416 -0.1281  0.2151  0.5622
 9481TIP3    H249859   6.614   3.892  11.498  0.1191 -0.4675  0.4475
 9482TIP3   OH249860   0.572   0.085   5.220 -0.6681 -0.1814  0.0926
 9482TIP3    H149861   0.661   0.118   5.204  0.4646 -2.5246  1.1172
 9482TIP3    H249862   0.535   0.147   5.283 -0.2451  1.4979 -1.2397
 9483TIP3   OH249863   4.728   4.640  11.189  0.1673 -0.5581 -0.2198
 9483TIP3    H149864   4.782   4.666  11.115  0.3083 -3.8889 -1.4736
 9483TIP3    H249865   4.790   4.626  11.260  0.5743 -1.2602 -0.7044
 9484TIP3   OH249866   1.993   5.466   1.366  0.0502  0.0180  0.0791
 9484TIP3    H149867   1.911   5.505   1.395 -1.9061 -2.1445 -2.0781
 9484TIP3    H249868   1.997   5.488   1.272  2.9620  1.6498  0.4843
 9485TIP3   OH249869   2.171   3.521  10.312  0.2268  0.1191 -0.1694
 9485TIP3    H149870   2.187   3.615  10.318 -0.1320  0.2071 -0.5729
 9485TIP3    H249871   2.142   3.496  10.400 -0.2980  0.5026 -0.2283
 9486TIP3   OH249872   0.390   5.238  10.365 -0.1947 -0.2828  0.1396
 9486TIP3    H149873   0.341   5.162  10.396  1.4727 -1.6630 -0.4545
 9486TIP3    H249874   0.455   5.254  10.433 -1.1027  1.2171  0.6901
 9487TIP3   OH249875   0.325   4.516  13.107 -0.1606  0.6077 -0.0342
 9487TIP3    H149876   0.409   4.525  13.062  0.8823 -0.9477  1.4665
 9487TIP3    H249877   0.349   4.499  13.198 -2.1622  3.4300  1.1723
 9488TIP3   OH249878   3.254   1.074  14.102 -0.1692 -0.5331 -0.2539
 9488TIP3    H149879   3.264   1.001  14.042  1.1294 -0.2425 -0.4312
 9488TIP3    H249880   3.339   1.080  14.146 -0.7548 -0.0750  0.8398
 9489TIP3   OH249881   4.852   4.231   4.242  0.0464  0.0568  0.1186
 9489TIP3    H149882   4.851   4.136   4.252 -0.6040  0.0638  0.1973
 9489TIP3    H249883   4.932   4.259   4.286  0.8356 -0.5481 -0.9110
 9490TIP3   OH249884   0.627   2.748   1.519 -0.2089  0.4305 -0.0216
 9490TIP3    H149885   0.566   2.700   1.576 -0.7444  0.3045 -0.6901
 9490TIP3    H249886   0.704   2.692   1.514 -1.1405 -0.8059 -1.4732
 9491TIP3   OH249887   5.938   0.832   4.245 -0.5436 -0.8799  0.7446
 9491TIP3    H149888   5.938   0.874   4.331  0.1139  1.7658 -0.4477
 9491TIP3    H249889   5.865   0.872   4.199  0.2876 -0.8207 -0.5539
 9492TIP3   OH249890   6.149   5.864   5.351  0.1685 -0.1807 -0.0529
 9492TIP3    H149891   6.060   5.890   5.376  0.4160  0.5732  0.0661
 9492TIP3    H249892   6.206   5.911   5.411  0.6529 -0.6838 -0.1089
 9493TIP3   OH249893   2.690   0.455  10.535 -0.7976 -0.0903 -0.3855
 9493TIP3    H149894   2.719   0.424  10.621  0.3454 -0.9322 -1.0489
 9493TIP3    H249895   2.707   0.549  10.536  0.3227 -0.2875 -0.1091
 9494TIP3   OH249896   3.947   3.010   1.218  0.3054  0.0126  0.4713
 9494TIP3    H149897   3.885   3.065   1.265 -0.9598 -1.2930  0.4239
 9494TIP3    H249898   3.996   2.964   1.286 -0.0486 -0.3054  0.5115
 9495TIP3   OH249899   0.575   2.267   3.223  0.0266  0.1061 -0.2598
 9495TIP3    H149900   0.516   2.245   3.295 -1.4047 -0.6415 -1.5978
 9495TIP3    H249901   0.657   2.225   3.246 -0.4449 -0.2348  0.8747
 9496TIP3   OH249902   5.661   1.456  12.408  0.3374 -0.7054  0.2104
 9496TIP3    H149903   5.683   1.389  12.343 -0.8181 -1.1160  0.2168
 9496TIP3    H249904   5.566   1.466  12.401 -0.1774 -2.3149  3.2777
 9497TIP3   OH249905   4.778   3.537  15.985 -0.1553 -0.2104 -0.2552
 9497TIP3    H149906   4.686   3.561  15.993 -0.2916 -0.3946 -1.1252
 9497TIP3    H249907   4.793   3.475  16.056 -0.2748  1.0165  0.8772
 9498TIP3   OH249908   5.862   3.707  16.253 -0.2062  0.2046 -0.3087
 9498TIP3    H149909   5.926   3.652  16.298  0.0131 -0.2665 -1.1867
 9498TIP3    H249910   5.879   3.694  16.160 -0.0810  1.8448 -0.5518
 9499TIP3   OH249911   2.027   4.964   0.196  0.4402 -0.0822  0.6843
 9499TIP3    H149912   2.084   4.894   0.228 -0.9273 -1.5592  0.0342
 9499TIP3    H249913   1.982   4.926   0.120 -0.5491  1.4167  0.4676
 9500TIP3   OH249914   1.153   1.339   0.030 -0.8633  0.3035 -0.5684
 9500TIP3    H149915   1.214   1.410   0.009 -1.2014  0.9474  0.5466
 9500TIP3    H249916   1.174   1.316   0.121 -0.9062 -0.8863 -0.8396
 9501TIP3   OH249917   3.544   2.382   5.671 -0.3149  0.6364  0.1238
 9501TIP3    H149918   3.506   2.331   5.743 -0.8249 -0.0549 -0.6247
 9501TIP3    H249919   3.469   2.409   5.618  0.2110 -1.1746 -1.6546
 9502TIP3   OH249920   4.385   0.522   3.249  0.0045  0.0938 -0.6659
 9502TIP3    H149921   4.315   0.572   3.291  0.2485 -1.7904  2.3255
 9502TIP3    H249922   4.450   0.587   3.223 -0.6054  1.5338  1.1772
 9503TIP3   OH249923   4.176   3.494  16.448 -0.9292 -0.8064  0.7134
 9503TIP3    H149924   4.142   3.583  16.437  0.2983 -0.6388 -2.8902
 9503TIP3    H249925   4.112   3.438  16.405 -1.2627 -1.6277  2.2144
 9504TIP3   OH249926   3.484   3.242   4.444 -0.2570  0.1598  0.0318
 9504TIP3    H149927   3.561   3.188   4.459 -0.7589 -0.5680  0.0273
 9504TIP3    H249928   3.417   3.206   4.502 -0.8533  0.2160 -0.6070
 9505TIP3   OH249929   3.428   1.156  11.702  0.1341 -0.5206 -0.6205
 9505TIP3    H149930   3.375   1.226  11.740  0.9964 -0.2039  0.0471
 9505TIP3    H249931   3.506   1.201  11.670  0.3093 -1.0682 -0.9752
 9506TIP3   OH249932   3.423   0.475  11.179  0.1853  0.7501 -0.3402
 9506TIP3    H149933   3.348   0.417  11.194  1.0576 -0.7213 -1.3700
 9506TIP3    H249934   3.442   0.466  11.086  1.9290  0.6886 -0.0222
 9507TIP3   OH249935   6.031   6.355   2.671 -0.4529 -0.1153 -0.2032
 9507TIP3    H149936   5.963   6.301   2.712  0.4417 -1.4251 -0.3735
 9507TIP3    H249937   5.991   6.441   2.662 -1.4911 -0.4132  1.2545
 9508TIP3   OH249938   0.064   5.139   4.864 -0.1582  0.2944 -0.1215
 9508TIP3    H149939   0.086   5.127   4.956 -1.0967  3.3460  0.5943
 9508TIP3    H249940   0.140   5.183   4.827 -0.9829  1.8650 -0.0157
 9509TIP3   OH249941   4.203   2.329   3.800 -0.2046  0.3861 -0.5690
 9509TIP3    H149942   4.193   2.413   3.845  2.0856 -0.0532  0.9098
 9509TIP3    H249943   4.283   2.339   3.748  0.1099 -0.8618 -0.3578
 9510TIP3   OH249944   1.629   2.632   2.257  0.8065  0.1299 -0.1045
 9510TIP3    H149945   1.708   2.684   2.243  0.0038  1.4968  0.2262
 9510TIP3    H249946   1.560   2.697   2.275 -0.1802 -1.0627  0.6117
 9511TIP3   OH249947   1.079   4.105   2.288  0.0091 -0.1670 -0.3021
 9511TIP3    H149948   1.135   4.178   2.260  0.2759 -0.4441 -0.4957
 9511TIP3    H249949   1.023   4.142   2.356  1.2740 -0.2106  0.7867
 9512TIP3   OH249950   3.308   4.009  11.805 -0.2636  0.2828 -0.3375
 9512TIP3    H149951   3.299   4.043  11.894  0.1262  2.1442 -0.9559
 9512TIP3    H249952   3.379   3.945  11.810 -0.1510  0.4716  0.6608
 9513TIP3   OH249953   5.999   6.698  13.835  0.4486 -0.1128 -0.3651
 9513TIP3    H149954   5.948   6.625  13.799  0.5135 -1.0295  1.2708
 9513TIP3    H249955   6.053   6.728  13.762 -0.6068 -0.7787 -1.4578
 9514TIP3   OH249956   0.125   2.900   4.802 -0.1735 -0.4269  0.2489
 9514TIP3    H149957   0.208   2.923   4.760 -0.5098 -0.2581 -0.3388
 9514TIP3    H249958   0.097   2.820   4.757 -0.2568 -0.5649  0.5436
 9515TIP3   OH249959   1.838   0.526   1.755 -0.4951 -0.3721  0.4875
 9515TIP3    H149960   1.881   0.443   1.771 -0.3303 -0.2913  0.4620
 9515TIP3    H249961   1.909   0.590   1.747 -0.5533 -0.4292 -0.7378
 9516TIP3   OH249962   3.434   2.809  17.119 -0.1457 -0.5186  0.2520
 9516TIP3    H149963   3.461   2.771  17.035 -2.4632 -1.3238 -0.2331
 9516TIP3    H249964   3.375   2.881  17.095  0.6673  0.4970  1.2059
 9517TIP3   OH249965   2.445   3.852  13.067 -0.0193 -0.4499  0.3314
 9517TIP3    H149966   2.505   3.778  13.075 -0.4350 -0.6946  1.4648
 9517TIP3    H249967   2.498   3.929  13.084  0.4295 -0.4560 -0.9121
 9518TIP3   OH249968   2.412   4.029  14.805  0.4342 -0.5351  0.0161
 9518TIP3    H149969   2.420   3.940  14.771 -0.9304 -0.2137 -1.2283
 9518TIP3    H249970   2.499   4.067  14.794  0.2127 -0.6580 -2.6154
 9519TIP3   OH249971   4.119   2.292   4.703  0.0699  0.0383 -0.6977
 9519TIP3    H149972   4.082   2.332   4.623 -3.1353 -0.2051  0.5034
 9519TIP3    H249973   4.096   2.199   4.696  0.8231 -0.2090 -0.0190
 9520TIP3   OH249974   2.987   4.634   6.295  0.0631  0.2023 -0.1834
 9520TIP3    H149975   3.057   4.641   6.360 -1.0972  0.9761  1.0293
 9520TIP3    H249976   2.943   4.552   6.315 -2.9285  2.3110  2.8672
 9521TIP3   OH249977   6.178   3.924  16.645  0.3601  0.7600 -0.6046
 9521TIP3    H149978   6.273   3.937  16.646  0.4330  0.3580 -1.5404
 9521TIP3    H249979   6.148   3.960  16.728  1.2939  1.1958 -0.4479
 9522TIP3   OH249980   5.028   1.897   2.950 -0.1919 -0.5219 -0.0261
 9522TIP3    H149981   4.946   1.904   2.999  0.0267 -0.8552  0.3963
 9522TIP3    H249982   5.009   1.937   2.865 -1.2475 -1.9882 -0.5210
 9523TIP3   OH249983   0.888   4.872  13.366 -0.0345 -0.0097 -0.2664
 9523TIP3    H149984   0.851   4.949  13.410  2.2169  0.0500  1.7521
 9523TIP3    H249985   0.932   4.907  13.289  0.2575  0.6389  0.1842
 9524TIP3   OH249986   4.902   3.769  14.875  0.6604  0.1604  0.2988
 9524TIP3    H149987   4.864   3.855  14.858 -2.0032 -1.5051 -3.6821
 9524TIP3    H249988   4.962   3.754  14.803  0.0126 -1.8009  0.1044
 9525TIP3   OH249989   2.855   1.038  16.244 -0.3441  0.2665  0.3627
 9525TIP3    H149990   2.796   0.963  16.244 -1.5235  1.1465  0.1502
 9525TIP3    H249991   2.857   1.066  16.336  0.0607  0.0065  0.4354
 9526TIP3   OH249992   6.412   1.348   1.221  0.4838  0.0953  0.2898
 9526TIP3    H149993   6.387   1.429   1.176  1.0181  0.1557  0.0930
 9526TIP3    H249994   6.335   1.325   1.273  0.1337  0.4376 -0.0677
 9527TIP3   OH249995   1.536   2.716  14.817 -0.1509 -0.6849 -0.6923
 9527TIP3    H149996   1.631   2.732  14.812 -0.0785 -0.9149 -0.1073
 9527TIP3    H249997   1.526   2.627  14.781  0.2269 -1.8528  1.8786
 9528TIP3   OH249998   1.605   3.560  13.620 -0.0539 -0.3445 -0.0451
 9528TIP3    H149999   1.577   3.502  13.690 -1.7553  0.2692 -0.1700
 9528TIP3    H250000   1.618   3.645  13.662  0.0204 -0.2433 -0.2679
 9529TIP3   OH250001   1.638   3.972   2.500  0.1663  0.4701  0.9327
 9529TIP3    H150002   1.625   3.880   2.478  2.6077  0.2704 -0.0143
 9529TIP3    H250003   1.550   4.009   2.501 -0.8543 -1.7975  1.0803
 9530TIP3   OH250004   2.398   0.927   2.538  0.1866  0.1330  0.1237
 9530TIP3    H150005   2.418   0.962   2.451  0.5655 -0.9978 -0.2653
 9530TIP3    H250006   2.371   0.837   2.522  1.1214 -0.3829  1.2455
 9531TIP3   OH250007   1.558   0.085   5.096 -0.3222 -0.3949  0.7416
 9531TIP3    H150008   1.558   0.072   5.001 -0.6223  0.4493  0.6115
 9531TIP3    H250009   1.521   0.005   5.132 -0.3766 -0.6484  0.1346
 9532TIP3   OH250010   1.363   3.183   2.436  0.1312  0.1380 -0.9226
 9532TIP3    H150011   1.356   3.256   2.497  0.9882  0.7686 -1.5609
 9532TIP3    H250012   1.451   3.190   2.400 -0.2680 -0.3752 -2.0333
 9533TIP3   OH250013   1.193   0.370   0.060  0.2212  0.1275 -0.2645
 9533TIP3    H150014   1.263   0.428   0.029  1.1985  0.3465  2.1008
 9533TIP3    H250015   1.138   0.355  -0.017  1.5532  1.8599 -1.6479
 9534TIP3   OH250016   4.367   3.845  15.399  0.4765 -0.0805  0.3630
 9534TIP3    H150017   4.352   3.760  15.358  0.0477 -0.0241  0.3985
 9534TIP3    H250018   4.461   3.859  15.390  0.2334  0.4997 -1.6974
 9535TIP3   OH250019   5.949   5.465   2.952 -0.0218 -0.0516 -0.4705
 9535TIP3    H150020   5.931   5.518   3.029 -0.2626  0.7823 -1.0905
 9535TIP3    H250021   5.875   5.405   2.946 -0.3735  0.3777 -0.4730
 9536TIP3   OH250022   2.934   5.364  10.903 -0.2636  0.0589 -0.6085
 9536TIP3    H150023   2.853   5.319  10.927  1.4598 -1.3275  3.4613
 9536TIP3    H250024   2.978   5.304  10.844 -1.5201  0.2268 -1.7767
 9537TIP3   OH250025   4.051   1.642  11.826  0.0710  0.2472  0.2660
 9537TIP3    H150026   4.031   1.553  11.797  0.9503 -0.0819  0.6314
 9537TIP3    H250027   4.088   1.631  11.914  2.5721  0.7121 -0.6407
 9538TIP3   OH250028   6.551   3.527   2.139  1.0323  0.4011 -0.1849
 9538TIP3    H150029   6.530   3.434   2.138 -0.3964  0.7007 -1.3208
 9538TIP3    H250030   6.630   3.533   2.192  0.5956 -1.3280  0.7304
 9539TIP3   OH250031   6.288   6.136   0.197 -0.5336  0.1824  0.1445
 9539TIP3    H150032   6.369   6.085   0.206 -0.3601  0.5558  0.7259
 9539TIP3    H250033   6.219   6.069   0.190 -0.0059 -0.2102 -2.6103
 9540TIP3   OH250034   2.636   6.515  13.976  0.2427  0.2464  0.0438
 9540TIP3    H150035   2.686   6.513  14.058  2.2634 -0.3542 -1.1317
 9540TIP3    H250036   2.650   6.603  13.941  0.7608 -0.0285 -0.4494
 9541TIP3   OH250037   3.239   3.790  11.639 -0.2114 -0.1746 -0.9462
 9541TIP3    H150038   3.170   3.727  11.619 -2.2551  1.6615 -0.0866
 9541TIP3    H250039   3.232   3.805  11.733 -3.2735  4.8620 -1.6016
 9542TIP3   OH250040   4.728   4.918   1.789 -0.0623 -0.2511  0.5398
 9542TIP3    H150041   4.644   4.906   1.835 -0.4453  2.5912  0.7214
 9542TIP3    H250042   4.784   4.848   1.823 -1.4216 -0.3645  2.7188
 9543TIP3   OH250043   0.698   4.093  15.366 -0.6257 -0.1368 -0.1865
 9543TIP3    H150044   0.752   4.054  15.297 -0.7544 -2.0259  0.6929
 9543TIP3    H250045   0.648   4.019  15.400 -0.6775  0.7759  1.8169
 9544TIP3   OH250046   1.246   6.761   5.048  0.3872 -0.4151 -0.3440
 9544TIP3    H150047   1.206   6.777   4.962  1.0443  1.8943 -0.2606
 9544TIP3    H250048   1.255   6.847   5.088 -0.8819 -1.4861  2.5542
 9545TIP3   OH250049   2.705   6.567  14.736  0.7462  0.1945 -0.4170
 9545TIP3    H150050   2.640   6.636  14.750  1.3707  0.2067  3.4265
 9545TIP3    H250051   2.654   6.491  14.707 -0.7143  0.7726  0.5282
 9546TIP3   OH250052   2.278   6.165  14.739  0.0766 -0.1782  0.3113
 9546TIP3    H150053   2.202   6.150  14.795  0.0757 -1.3782  0.0159
 9546TIP3    H250054   2.242   6.198  14.656 -0.0932 -0.4593  0.2757
 9547TIP3   OH250055   4.121   5.399   3.424  0.1200  0.0474  0.6025
 9547TIP3    H150056   4.166   5.414   3.507 -1.7619  0.2678  1.6321
 9547TIP3    H250057   4.143   5.475   3.370  0.7670  0.2686  1.1726
 9548TIP3   OH250058   2.963   4.019  14.112  0.6507  0.2431 -0.3554
 9548TIP3    H150059   2.899   4.053  14.050  1.4759  1.1461 -0.7239
 9548TIP3    H250060   3.014   3.956  14.062  1.2810  0.9313 -0.5919
 9549TIP3   OH250061   6.188   1.913   0.697 -0.6777  0.5469 -0.3191
 9549TIP3    H150062   6.192   1.822   0.726 -0.0884  0.1974 -1.4226
 9549TIP3    H250063   6.221   1.963   0.771  1.1825 -0.3491 -0.4726
 9550TIP3   OH250064   1.364   4.921   0.977 -0.9535  0.4559 -0.0198
 9550TIP3    H150065   1.389   4.845   0.925  0.0804  0.3494  0.6040
 9550TIP3    H250066   1.310   4.885   1.048 -2.1350  0.5700 -0.8289
 9551TIP3   OH250067   0.697   0.157  15.031 -0.2298 -0.0148  0.3410
 9551TIP3    H150068   0.765   0.123  15.089  0.9160 -0.6907 -1.3047
 9551TIP3    H250069   0.706   0.252  15.036 -0.7902 -0.0284  1.9585
 9552TIP3   OH250070   6.037   6.490  10.597  0.2057 -0.2040 -0.0086
 9552TIP3    H150071   5.958   6.507  10.545  0.4939 -0.1199 -0.4151
 9552TIP3    H250072   6.088   6.428  10.544  1.1450  0.9261 -0.4655
 9553TIP3   OH250073   1.768   6.776   0.324  0.0265 -0.0052 -0.0875
 9553TIP3    H150074   1.725   6.735   0.249 -3.0825  1.2550  0.8264
 9553TIP3    H250075   1.764   6.709   0.393  0.3558 -0.2086 -0.2654
 9554TIP3   OH250076   4.484   6.581  11.167 -0.1600  0.2572 -0.4462
 9554TIP3    H150077   4.498   6.639  11.242 -1.5004 -0.6911  0.5958
 9554TIP3    H250078   4.497   6.637  11.091  1.4232  1.2152  0.4590
 9555TIP3   OH250079   5.303   0.416   1.678  0.4128 -0.8305 -0.1144
 9555TIP3    H150080   5.371   0.483   1.666 -0.3263 -0.2021 -0.9936
 9555TIP3    H250081   5.343   0.351   1.735  1.5359 -0.1680 -0.1109
 9556TIP3   OH250082   1.633   4.090   5.068 -0.0533  0.2990  0.5301
 9556TIP3    H150083   1.652   4.086   5.162  0.6240 -2.2170  0.3455
 9556TIP3    H250084   1.547   4.051   5.059 -0.3753  1.0789  0.1342
 9557TIP3   OH250085   5.740   1.373  13.124  0.3977 -0.0529  0.7556
 9557TIP3    H150086   5.763   1.371  13.216  0.6482  0.0504  0.6963
 9557TIP3    H250087   5.654   1.330  13.119 -0.4467  1.4982  1.2785
 9558TIP3   OH250088   1.745   0.164  11.776  0.3315 -0.3887  0.5226
 9558TIP3    H150089   1.826   0.139  11.731  1.3665  0.7901  1.6818
 9558TIP3    H250090   1.747   0.114  11.857 -0.2728 -0.5864  0.4201
 9559TIP3   OH250091   5.283   6.222   0.756 -0.7663 -0.0581  0.0414
 9559TIP3    H150092   5.348   6.228   0.687  0.1057 -1.2529  0.7152
 9559TIP3    H250093   5.290   6.305   0.804 -0.3088  0.1404 -0.3658
 9560TIP3   OH250094   4.235   0.348   2.762  0.4560  0.1624 -0.0058
 9560TIP3    H150095   4.205   0.279   2.704  1.3193  1.5016 -2.1480
 9560TIP3    H250096   4.293   0.304   2.824  1.5705 -0.9452 -1.7802
 9561TIP3   OH250097   4.529   1.793  13.582  0.1553  0.0260 -0.0181
 9561TIP3    H150098   4.624   1.791  13.590  0.1371  0.3364  0.3356
 9561TIP3    H250099   4.513   1.800  13.488  0.5007  0.6413 -0.0389
 9562TIP3   OH250100   1.749   2.039  11.591 -0.3382  0.2519 -0.1999
 9562TIP3    H150101   1.698   2.026  11.511 -0.6291  2.2559 -0.3764
 9562TIP3    H250102   1.788   1.953  11.608 -1.2179 -0.5199 -1.8204
 9563TIP3   OH250103   5.951   6.629   4.090 -0.1592  0.1073 -0.3679
 9563TIP3    H150104   5.907   6.687   4.152  0.9742  0.3456  0.2304
 9563TIP3    H250105   5.927   6.541   4.119 -0.0497  0.2308  0.1066
 9564TIP3   OH250106   0.272   5.408   5.486 -0.1394  0.2252  0.3250
 9564TIP3    H150107   0.245   5.349   5.416 -0.0307  0.5636 -0.0034
 9564TIP3    H250108   0.193   5.420   5.539 -0.1094 -0.3775  0.5206
 9565TIP3   OH250109   2.429   2.785  14.107 -0.1827  0.0392 -0.0212
 9565TIP3    H150110   2.479   2.727  14.049  1.1880 -0.4302  1.5540
 9565TIP3    H250111   2.495   2.829  14.160 -1.3336  1.3716  0.3653
 9566TIP3   OH250112   0.262   3.449   5.843  0.2173  0.1481 -0.1595
 9566TIP3    H150113   0.221   3.505   5.909  2.9782  0.9700  0.9917
 9566TIP3    H250114   0.299   3.376   5.892  0.0039 -0.6738 -1.1722
 9567TIP3   OH250115   0.078   3.514   6.052  0.2184 -0.2459 -0.5684
 9567TIP3    H150116   0.006   3.470   6.096 -0.4563  1.6659  0.3336
 9567TIP3    H250117   0.157   3.485   6.098 -0.1015 -1.2231 -0.6261
 9568TIP3   OH250118   3.447   5.197  13.851 -0.0456 -0.5438  0.4976
 9568TIP3    H150119   3.446   5.230  13.761  1.9613 -2.0093 -0.1241
 9568TIP3    H250120   3.454   5.276  13.905  0.8973  0.2550 -0.7478
 9569TIP3   OH250121   5.459   4.093  16.583  0.6955  0.4051  0.0120
 9569TIP3    H150122   5.477   4.150  16.508 -0.6477 -0.2795 -0.8601
 9569TIP3    H250123   5.369   4.064  16.570  0.9327 -0.9187  1.1120
 9570TIP3   OH250124   0.831   2.327  16.706 -0.2433 -0.0293 -0.4901
 9570TIP3    H150125   0.874   2.367  16.630 -1.5354  0.0531 -1.2115
 9570TIP3    H250126   0.882   2.249  16.724  0.6668  0.4699 -0.8197
 9571TIP3   OH250127   0.608   0.666   4.287 -0.1338  0.3878 -0.5713
 9571TIP3    H150128   0.517   0.681   4.313 -0.0797 -1.6220  0.9922
 9571TIP3    H250129   0.658   0.730   4.336 -0.6893  1.8414 -1.8124
 9572TIP3   OH250130   1.870   6.086  15.632  0.8704 -0.5564 -0.2267
 9572TIP3    H150131   1.839   6.048  15.550 -0.3472 -1.3984  0.5950
 9572TIP3    H250132   1.831   6.032  15.700 -0.3152  1.7135  0.9909
 9573TIP3   OH250133   1.451   1.093  15.530 -0.4959 -0.1833  0.1379
 9573TIP3    H150134   1.546   1.100  15.516 -0.5722 -0.2529 -0.4517
 9573TIP3    H250135   1.420   1.041  15.456 -1.2151  1.1180 -0.4981
 9574TIP3   OH250136   3.792   6.371   3.247  0.2447  0.1107 -0.1846
 9574TIP3    H150137   3.836   6.414   3.321  0.6147 -0.5212 -0.0321
 9574TIP3    H250138   3.795   6.278   3.268  0.8924 -0.1347 -1.2679
 9575TIP3   OH250139   3.304   1.848   2.067  0.1776  0.3323 -0.0959
 9575TIP3    H150140   3.295   1.880   2.157  0.5678  1.9523 -0.5977
 9575TIP3    H250141   3.343   1.761   2.077 -0.2183  0.2791  1.3091
 9576TIP3   OH250142   2.511   1.256  14.614  0.0326 -0.6279 -0.1213
 9576TIP3    H150143   2.490   1.264  14.521  1.0579  0.8062 -0.2753
 9576TIP3    H250144   2.583   1.193  14.617  2.6906  2.1192 -0.8429
 9577TIP3   OH250145   6.721   0.077  15.918 -0.0068 -0.0412 -0.3176
 9577TIP3    H150146   6.651   0.132  15.882 -0.4011  0.8605  1.6962
 9577TIP3    H250147   6.694  -0.012  15.897 -1.3569  0.3394 -0.2927
 9578TIP3   OH250148   6.601   1.801   2.178 -0.2775 -0.0611 -0.4350
 9578TIP3    H150149   6.603   1.807   2.083  2.0301 -1.8886 -0.5845
 9578TIP3    H250150   6.615   1.708   2.197 -1.9381  0.0541  1.6954
 9579TIP3   OH250151   0.735   1.874   3.162 -1.0160  0.3024  0.5281
 9579TIP3    H150152   0.821   1.880   3.203 -0.2886 -0.6366 -0.7772
 9579TIP3    H250153   0.675   1.852   3.233  0.0200 -0.2025  1.2628
 9580TIP3   OH250154   2.217   1.968  11.919 -0.1709 -0.0414 -0.4076
 9580TIP3    H150155   2.297   2.012  11.946 -0.3781  0.9137 -1.2841
 9580TIP3    H250156   2.182   1.931  12.000  1.9011 -1.7910 -0.2257
 9581TIP3   OH250157   2.906   6.022   2.428 -0.0084  0.7256 -0.6142
 9581TIP3    H150158   2.857   5.943   2.405  0.6449  0.6855 -2.0169
 9581TIP3    H250159   2.852   6.066   2.494 -0.3850 -0.8772  0.2024
 9582TIP3   OH250160   2.335   6.076  12.918  0.0679 -0.1788 -0.4219
 9582TIP3    H150161   2.241   6.058  12.921  0.1071 -0.5736 -1.1927
 9582TIP3    H250162   2.361   6.085  13.010 -0.6866 -0.2646 -0.1945
 9583TIP3   OH250163   1.283   4.673  10.786 -0.0287  0.2943  0.0065
 9583TIP3    H150164   1.226   4.740  10.747 -2.3092 -0.6717  1.4191
 9583TIP3    H250165   1.250   4.590  10.751  1.0284 -0.2685  0.3029
 9584TIP3   OH250166   6.088   4.054   2.027 -0.0859 -0.0399 -0.1314
 9584TIP3    H150167   6.109   3.963   2.007  0.8662  0.6313 -2.5583
 9584TIP3    H250168   6.166   4.103   2.000 -1.0388  1.6072 -0.0671
 9585TIP3   OH250169   5.417   0.895   3.472 -0.0439 -0.2753  0.5101
 9585TIP3    H150170   5.380   0.814   3.435 -0.1530  0.2400 -0.5618
 9585TIP3    H250171   5.468   0.866   3.547 -0.6639 -1.2635  0.5699
 9586TIP3   OH250172   0.153   4.930  14.549 -0.4126 -0.1155 -0.0256
 9586TIP3    H150173   0.084   4.939  14.483 -0.6679  3.0743  0.4987
 9586TIP3    H250174   0.231   4.907  14.499 -1.0405  0.1320 -1.1486
 9587TIP3   OH250175   5.860   4.483  16.570 -0.5959 -0.4583  0.2724
 9587TIP3    H150176   5.882   4.558  16.514 -0.2468 -1.3295 -0.8070
 9587TIP3    H250177   5.940   4.465  16.619 -0.5968 -0.2894  0.3345
 9588TIP3   OH250178   5.447   6.624   4.509 -0.7004 -0.3843 -0.5557
 9588TIP3    H150179   5.459   6.529   4.509 -0.4454 -0.3890  1.0053
 9588TIP3    H250180   5.536   6.659   4.501 -0.5739 -0.3229  0.8399
 9589TIP3   OH250181   1.035   4.491   2.645  0.2265 -1.1779 -0.1762
 9589TIP3    H150182   0.989   4.408   2.654 -0.0034 -1.0422 -0.0782
 9589TIP3    H250183   1.006   4.526   2.561 -0.3137 -0.8149  0.1511
 9590TIP3   OH250184   5.005   1.180  11.339 -0.1865  0.5308 -0.1938
 9590TIP3    H150185   4.989   1.222  11.424  1.5743 -0.7160  0.8121
 9590TIP3    H250186   5.087   1.218  11.309  0.0811 -0.2756 -0.5083
 9591TIP3   OH250187   1.140   2.180   6.335  0.0790  0.1138 -0.1471
 9591TIP3    H150188   1.225   2.164   6.375 -0.0178 -0.7757 -0.2764
 9591TIP3    H250189   1.086   2.106   6.362  0.1339 -0.7757 -2.2410
 9592TIP3   OH250190   4.031   2.593  11.271  0.0943 -0.2998 -0.1406
 9592TIP3    H150191   4.062   2.622  11.356  1.4154 -1.8056 -0.0608
 9592TIP3    H250192   3.973   2.520  11.290 -0.1855 -0.1724 -0.4956
 9593TIP3   OH250193   0.509   4.569  15.150  0.0862  0.0368 -0.0092
 9593TIP3    H150194   0.443   4.545  15.215 -2.1886  0.4384 -1.9970
 9593TIP3    H250195   0.567   4.631  15.195 -0.3627 -0.9575  2.0602
 9594TIP3   OH250196   5.042   3.867  15.600  0.6702  0.3226 -0.1691
 9594TIP3    H150197   5.073   3.833  15.516  0.0500  0.9492 -0.6588
 9594TIP3    H250198   4.999   3.949  15.578 -0.5496 -0.0837  0.6025
 9595TIP3   OH250199   5.978   4.089  16.829 -0.3014  0.1295 -0.3686
 9595TIP3    H150200   5.957   4.106  16.737  1.9322 -0.8196 -1.1083
 9595TIP3    H250201   5.917   4.020  16.855 -0.1454 -0.4616 -1.5146
 9596TIP3   OH250202   0.761   5.345   2.950  0.1639  0.7722  0.0917
 9596TIP3    H150203   0.672   5.345   2.983 -0.0891  0.2602 -0.5747
 9596TIP3    H250204   0.807   5.279   3.003  0.4003  1.6683  1.0496
 9597TIP3   OH250205   4.981   3.279  13.353 -0.0003 -0.4920 -0.0644
 9597TIP3    H150206   5.014   3.209  13.409  1.1143 -0.5322 -0.7413
 9597TIP3    H250207   5.039   3.279  13.277 -1.1973 -0.1561 -1.0319
 9598TIP3   OH250208   4.921   3.960   4.246 -0.1225  0.4257  0.1482
 9598TIP3    H150209   5.000   3.912   4.271 -0.1791 -0.0907 -0.6425
 9598TIP3    H250210   4.849   3.901   4.267 -0.1853  0.0911 -0.9383
 9599TIP3   OH250211   0.716   0.211   0.402  0.4418  0.0543  0.5910
 9599TIP3    H150212   0.621   0.222   0.403  0.7256  3.5662  0.9224
 9599TIP3    H250213   0.741   0.228   0.311  0.7376 -2.1248  0.2044
 9600TIP3   OH250214   6.374   1.042  16.846 -0.1357  0.0211  0.5493
 9600TIP3    H150215   6.403   0.962  16.801 -2.7920 -1.4118  1.1891
 9600TIP3    H250216   6.451   1.099  16.844  0.9034 -1.2139 -2.8832
 9601TIP3   OH250217   3.228   3.010   2.355  0.1473 -0.2178 -0.1646
 9601TIP3    H150218   3.309   2.992   2.403  1.3848 -0.0124 -2.0455
 9601TIP3    H250219   3.189   2.924   2.341 -0.4224 -0.2505  1.4575
 9602TIP3   OH250220   1.363   6.519  14.966 -0.1956 -0.3900  0.6589
 9602TIP3    H150221   1.402   6.468  14.895 -1.0576 -1.3401  0.8528
 9602TIP3    H250222   1.271   6.494  14.967 -1.0715  2.3889 -0.2878
 9603TIP3   OH250223   1.346   1.548   1.622 -0.2493 -0.7123 -0.1744
 9603TIP3    H150224   1.276   1.490   1.592 -0.7200 -0.6954  0.8479
 9603TIP3    H250225   1.306   1.601   1.691  1.0474 -1.4940  1.2401
 9604TIP3   OH250226   0.514   1.488  13.393 -0.3606 -0.0098 -0.1591
 9604TIP3    H150227   0.423   1.482  13.422 -0.6443 -3.2115 -1.2800
 9604TIP3    H250228   0.509   1.490  13.297  0.7710  1.9269 -0.2401
 9605TIP3   OH250229   2.898   5.135  11.068  0.1381 -0.3065  0.3693
 9605TIP3    H150230   2.991   5.121  11.052  0.4094  0.8323  0.9113
 9605TIP3    H250231   2.856   5.109  10.986  0.7656 -2.3485  0.6394
 9606TIP3   OH250232   5.457   3.430  12.780 -0.0055  0.1001  0.0979
 9606TIP3    H150233   5.430   3.498  12.719  2.0982  0.2281 -0.7687
 9606TIP3    H250234   5.462   3.351  12.727  3.6313  0.5577 -0.5062
 9607TIP3   OH250235   6.340   2.929  16.554  0.5679 -0.0174 -0.0933
 9607TIP3    H150236   6.311   3.006  16.603  0.0096 -0.7733  0.7950
 9607TIP3    H250237   6.423   2.905  16.594  0.2281 -0.4950  0.3313
 9608TIP3   OH250238   2.630   3.737  16.054 -0.3468 -0.5676 -0.2824
 9608TIP3    H150239   2.586   3.734  16.139  1.6923  0.2171  0.8710
 9608TIP3    H250240   2.714   3.694  16.069 -0.0152 -0.5745 -1.9772
 9609TIP3   OH250241   6.715   0.367   5.316  0.2099 -0.0713  0.1276
 9609TIP3    H150242   6.707   0.273   5.335 -3.1885  0.0085 -0.3613
 9609TIP3    H250243   6.708   0.410   5.401 -0.0283 -0.2156  0.1826
 9610TIP3   OH250244   6.507   4.224   3.166 -0.7104 -0.7599  0.3594
 9610TIP3    H150245   6.465   4.310   3.165 -1.7281 -1.2277 -2.2857
 9610TIP3    H250246   6.436   4.163   3.186 -0.0449 -1.0703  1.9329
 9611TIP3   OH250247   6.025   2.442  13.414  0.1546  0.8187 -0.0630
 9611TIP3    H150248   5.961   2.512  13.396  1.6930  2.3631  0.2508
 9611TIP3    H250249   6.078   2.437  13.334  0.6022  0.6073  0.2469
 9612TIP3   OH250250   1.219   4.639  15.901 -0.0509  0.6951 -0.0817
 9612TIP3    H150251   1.182   4.592  15.826  0.7299  1.1189 -0.7401
 9612TIP3    H250252   1.299   4.679  15.867  1.4242 -0.7993  1.4928
 9613TIP3   OH250253   5.107   0.562   5.427 -0.6900 -0.1761  0.3168
 9613TIP3    H150254   5.190   0.590   5.467  1.1225 -1.8177 -2.0220
 9613TIP3    H250255   5.047   0.634   5.445  1.4270  1.4305  1.4786
 9614TIP3   OH250256   6.785   6.565  10.569 -0.0937 -0.3635  0.0707
 9614TIP3    H150257   6.877   6.558  10.595  0.6185  1.9435 -1.5745
 9614TIP3    H250258   6.756   6.474  10.560  1.9458 -1.1461  0.7873
 9615TIP3   OH250259   5.147   3.018  11.112  0.7185  0.3105 -0.0675
 9615TIP3    H150260   5.180   3.032  11.201  1.1499  0.9011 -0.3146
 9615TIP3    H250261   5.220   3.043  11.056  0.5407 -0.3166 -0.5866
 9616TIP3   OH250262   0.185   5.072  11.281 -0.4849  0.3854 -0.1585
 9616TIP3    H150263   0.138   5.084  11.364  2.5782 -0.2293  1.8187
 9616TIP3    H250264   0.228   5.157  11.266  0.3565 -0.0266 -0.1462
 9617TIP3   OH250265   5.214   2.134   1.685  0.4492 -0.4515  0.3541
 9617TIP3    H150266   5.240   2.130   1.778 -1.9356  1.2188  1.1829
 9617TIP3    H250267   5.257   2.059   1.645  0.3965 -2.0952  3.1221
 9618TIP3   OH250268   0.628   5.174  12.192 -0.2776 -0.0089 -0.1254
 9618TIP3    H150269   0.576   5.186  12.272 -0.5869  1.5242 -0.5271
 9618TIP3    H250270   0.579   5.220  12.124 -0.2344 -1.6465 -1.3182
 9619TIP3   OH250271   4.377   3.655   4.534  0.5130 -0.4939 -0.3164
 9619TIP3    H150272   4.431   3.663   4.456  0.0167 -2.2800 -0.8916
 9619TIP3    H250273   4.415   3.718   4.596  0.9337  0.9390 -1.9542
 9620TIP3   OH250274   5.029   1.463  17.109 -0.2450 -0.0975  0.3170
 9620TIP3    H150275   4.995   1.491  17.024  0.5273 -1.6716 -0.5480
 9620TIP3    H250276   5.031   1.543  17.161 -0.8879  0.8779 -1.0813
 9621TIP3   OH250277   2.829   0.969   1.342 -0.1224  0.2896 -0.4364
 9621TIP3    H150278   2.776   1.048   1.329 -1.2133 -0.6037 -1.7670
 9621TIP3    H250279   2.790   0.927   1.419 -0.9199  0.0217 -0.9637
 9622TIP3   OH250280   5.341   0.594  12.623 -0.1634  0.2473  0.3162
 9622TIP3    H150281   5.296   0.637  12.551  0.4122  2.9434  1.4526
 9622TIP3    H250282   5.431   0.581  12.593 -0.4769 -0.8078 -0.2377
 9623TIP3   OH250283   4.490   3.282   2.626 -0.7057 -0.0650  0.3336
 9623TIP3    H150284   4.516   3.363   2.583 -1.5655 -0.1643 -0.4130
 9623TIP3    H250285   4.408   3.303   2.670 -0.8151 -0.4658  0.3294
 9624TIP3   OH250286   6.500   1.637   5.967 -0.1088 -0.1275  0.6920
 9624TIP3    H150287   6.404   1.631   5.972 -0.3466 -0.4518 -2.3040
 9624TIP3    H250288   6.519   1.730   5.971 -0.4535 -0.0912  1.9546
 9625TIP3   OH250289   6.316   2.413  11.936 -0.4561  0.7521 -0.3694
 9625TIP3    H150290   6.411   2.404  11.927 -0.4839  1.1834 -1.1368
 9625TIP3    H250291   6.302   2.422  12.030  0.1446 -0.6230 -0.1215
 9626TIP3   OH250292   5.045   3.511  11.724  0.6278 -0.0654  0.2116
 9626TIP3    H150293   5.043   3.457  11.803  2.1742  2.5665  2.2333
 9626TIP3    H250294   5.127   3.485  11.680  0.1264 -1.0245 -0.1972
 9627TIP3   OH250295   0.862   2.536  16.495 -0.2266 -0.4909 -0.2699
 9627TIP3    H150296   0.796   2.601  16.471 -1.1673 -2.4350 -3.8224
 9627TIP3    H250297   0.945   2.577  16.474 -0.3445  1.1611  2.0906
 9628TIP3   OH250298   1.796   5.010   0.321 -0.0166  0.2266 -0.4414
 9628TIP3    H150299   1.887   4.998   0.293 -0.0667  0.8717 -0.9007
 9628TIP3    H250300   1.803   5.035   0.413  0.4213  2.2922 -0.9658
 9629TIP3   OH250301   5.778   4.310  12.258 -0.4173  0.4684  0.3616
 9629TIP3    H150302   5.774   4.242  12.325 -2.7767 -0.1467 -0.3150
 9629TIP3    H250303   5.696   4.302  12.210  0.8255  1.4228 -2.1175
 9630TIP3   OH250304   0.103   0.101  16.787 -0.5880  0.5928 -0.0283
 9630TIP3    H150305   0.192   0.131  16.767 -0.3164  1.1587  1.8151
 9630TIP3    H250306   0.114   0.010  16.815 -0.5055  0.8435  0.7599
 9631TIP3   OH250307   6.509   4.909  10.823  0.1519  0.0454  0.1658
 9631TIP3    H150308   6.431   4.864  10.854  1.4485 -1.8289  0.8822
 9631TIP3    H250309   6.538   4.961  10.898  1.5191 -2.0369  1.1779
 9632TIP3   OH250310   5.395   4.752   6.269 -0.5223 -0.1124 -0.4837
 9632TIP3    H150311   5.321   4.810   6.285 -1.5035 -1.4523 -0.0814
 9632TIP3    H250312   5.448   4.758   6.349 -0.8334 -0.0886 -0.2804
 9633TIP3   OH250313   4.410   4.481  12.995  0.5719 -0.4087  0.2915
 9633TIP3    H150314   4.363   4.497  13.077 -0.3480  1.4048 -0.5410
 9633TIP3    H250315   4.392   4.389  12.975 -1.7240 -0.0828  0.6037
 9634TIP3   OH250316   6.448   6.390  12.780 -0.3681 -0.3761 -0.2595
 9634TIP3    H150317   6.484   6.344  12.704 -0.5760  0.5804 -0.9648
 9634TIP3    H250318   6.377   6.333  12.812  1.5196 -2.1564  0.9935
 9635TIP3   OH250319   6.144   6.633  14.686 -0.2124 -0.3690  0.0793
 9635TIP3    H150320   6.080   6.678  14.631 -0.0156  0.2818  0.3814
 9635TIP3    H250321   6.118   6.541  14.682 -0.8361 -0.1834 -0.2490
 9636TIP3   OH250322   0.629   4.029  15.843  0.2202  0.0526  0.2842
 9636TIP3    H150323   0.605   3.948  15.888  1.3797  0.1145  1.0557
 9636TIP3    H250324   0.555   4.088  15.858 -0.2431 -0.5757  0.4764
 9637TIP3   OH250325   1.890   1.560   3.603  0.4091 -0.3516 -0.4223
 9637TIP3    H150326   1.904   1.650   3.574  0.9211  0.4145  2.0142
 9637TIP3    H250327   1.825   1.567   3.672 -1.7610 -2.2685 -2.1113
 9638TIP3   OH250328   0.327   3.567  11.130  0.2163 -0.1023 -0.0746
 9638TIP3    H150329   0.410   3.565  11.082  0.2319 -2.5013 -0.0441
 9638TIP3    H250330   0.261   3.542  11.065 -0.1988 -0.2465  0.3921
 9639TIP3   OH250331   3.659   2.283  14.854 -0.1624  0.5493 -0.3167
 9639TIP3    H150332   3.702   2.214  14.905  0.1683  0.7956 -0.2595
 9639TIP3    H250333   3.729   2.343  14.831  0.0535 -0.4526 -2.5970
 9640TIP3   OH250334   2.651   0.323   1.968 -0.0244  0.0945 -0.3314
 9640TIP3    H150335   2.713   0.253   1.948  0.3752 -0.7469  3.1799
 9640TIP3    H250336   2.691   0.369   2.042 -2.8662  0.4672  1.0868
 9641TIP3   OH250337   1.571   3.590   1.435  0.3485  0.4411  0.2450
 9641TIP3    H150338   1.623   3.548   1.366  1.6073  1.0237  0.8165
 9641TIP3    H250339   1.483   3.552   1.425  0.1615  1.3254 -2.4098
 9642TIP3   OH250340   0.452   2.564   1.650  0.0384  0.0768 -1.0182
 9642TIP3    H150341   0.391   2.549   1.723 -1.7119  1.4736 -2.1233
 9642TIP3    H250342   0.527   2.507   1.670 -0.7894 -0.3025  1.3601
 9643TIP3   OH250343   1.178   5.657   1.453  0.2171  0.5376 -0.2710
 9643TIP3    H150344   1.178   5.709   1.373  0.3994  0.5886 -0.2385
 9643TIP3    H250345   1.086   5.642   1.473  0.1728 -0.3552 -1.0662
 9644TIP3   OH250346   5.937   3.369  13.693  0.3244  0.2735 -0.1427
 9644TIP3    H150347   5.954   3.394  13.784 -2.4191  0.8110  0.2983
 9644TIP3    H250348   5.873   3.433  13.662 -0.4342 -1.1710 -1.7472
 9645TIP3   OH250349   6.334   5.540  14.056 -0.3534 -0.1436 -0.0477
 9645TIP3    H150350   6.249   5.561  14.017 -1.1777 -1.2598  1.0739
 9645TIP3    H250351   6.358   5.620  14.104 -1.2573 -0.1501  0.4402
 9646TIP3   OH250352   4.172   3.440  14.358 -0.1759 -0.6539  0.3599
 9646TIP3    H150353   4.132   3.398  14.434 -1.1082 -0.8452 -0.2255
 9646TIP3    H250354   4.159   3.534  14.372  0.6802 -0.6146  0.9876
 9647TIP3   OH250355   6.281   1.130  13.719 -0.5274  0.1808 -0.0302
 9647TIP3    H150356   6.342   1.110  13.789  1.8359 -0.9207 -2.2134
 9647TIP3    H250357   6.195   1.117  13.757  0.5911  0.6141  2.8750
 9648TIP3   OH250358   2.006   6.504   3.880  0.0061  0.5114  0.0589
 9648TIP3    H150359   2.081   6.457   3.915  0.8243  2.2311  0.7434
 9648TIP3    H250360   1.930   6.461   3.920  0.6592 -0.7154  0.0064
 9649TIP3   OH250361   3.706   5.688  17.022  0.6372 -0.3321 -0.2193
 9649TIP3    H150362   3.716   5.619  17.088  0.8039  1.2927  1.5283
 9649TIP3    H250363   3.662   5.759  17.067  3.5473  2.1116 -0.8583
 9650TIP3   OH250364   5.140   4.292   1.167  0.1666  0.6559 -0.4704
 9650TIP3    H150365   5.106   4.205   1.150 -2.0064  1.7952 -2.5492
 9650TIP3    H250366   5.170   4.289   1.258 -2.5121 -1.4549  0.4841
 9651TIP3   OH250367   4.447   4.521   3.066 -0.2881 -0.0896 -0.1068
 9651TIP3    H150368   4.364   4.568   3.080 -0.3414  0.1551 -1.1192
 9651TIP3    H250369   4.444   4.448   3.127 -1.4784 -0.3593 -0.4565
 9652TIP3   OH250370   3.232   5.202  11.448  0.0833  0.0188  0.1375
 9652TIP3    H150371   3.220   5.108  11.431  0.2971  0.0146  0.0031
 9652TIP3    H250372   3.320   5.221  11.416  1.2490 -0.3608  2.8264
 9653TIP3   OH250373   6.574   1.303  15.985 -0.3323  0.3917 -0.8615
 9653TIP3    H150374   6.629   1.310  16.063 -3.9755  1.7915  1.8141
 9653TIP3    H250375   6.529   1.219  15.994  0.0056  0.0478 -2.1075
 9654TIP3   OH250376   6.170   5.475  11.183 -0.4056 -0.2542 -0.4662
 9654TIP3    H150377   6.119   5.555  11.193  0.7091  0.4788 -0.5191
 9654TIP3    H250378   6.214   5.465  11.267 -0.7842 -1.0053 -0.3472
 9655TIP3   OH250379   5.760   1.917   2.297  0.5138 -0.4306  0.4812
 9655TIP3    H150380   5.789   1.964   2.375  0.3591 -0.7203  0.7134
 9655TIP3    H250381   5.811   1.957   2.225 -1.3740  1.8171  0.2765
 9656TIP3   OH250382   3.020   3.522   2.181 -0.1648 -0.0886 -0.2970
 9656TIP3    H150383   3.104   3.476   2.169 -0.2983 -0.6007  0.5559
 9656TIP3    H250384   2.993   3.547   2.093  0.0709 -1.4012 -0.7734
 9657TIP3   OH250385   0.470   1.821   2.668 -0.1153  0.2893  0.1409
 9657TIP3    H150386   0.519   1.782   2.596  0.4515  1.4005 -0.1004
 9657TIP3    H250387   0.537   1.860   2.724 -0.6601  0.9460  0.3466
 9658TIP3   OH250388   1.318   3.787   0.619  0.5373  0.0972  0.0943
 9658TIP3    H150389   1.412   3.796   0.602  0.3085  0.5471 -1.0491
 9658TIP3    H250390   1.276   3.841   0.552 -0.6378 -2.3110 -1.2522
 9659TIP3   OH250391   2.017   2.453   4.581 -0.1284 -0.7083 -0.1211
 9659TIP3    H150392   2.046   2.505   4.506 -1.0878 -1.9963 -1.4468
 9659TIP3    H250393   1.931   2.489   4.603  0.2586 -0.1728  0.5305
 9660TIP3   OH250394   5.240   4.605   0.439 -0.1997  0.3063  0.3768
 9660TIP3    H150395   5.188   4.684   0.425  0.2178  0.8428  1.6706
 9660TIP3    H250396   5.264   4.608   0.532  0.5649 -0.8931  0.2469
 9661TIP3   OH250397   1.909   1.041  15.201  0.1680  0.7082  0.5059
 9661TIP3    H150398   1.949   1.088  15.274 -1.2817  0.5920  1.4304
 9661TIP3    H250399   1.922   0.948  15.223  1.1300  0.6597 -0.2169
 9662TIP3   OH250400   3.528   2.684   1.971  0.4238 -0.5300 -0.1094
 9662TIP3    H150401   3.448   2.633   1.983 -0.5922  0.9463 -0.3261
 9662TIP3    H250402   3.540   2.730   2.054  2.7411 -2.9209  1.0250
 9663TIP3   OH250403   2.622   2.139   3.680 -0.2371 -0.1683 -0.2393
 9663TIP3    H150404   2.560   2.077   3.719 -2.0310  0.1737 -2.3599
 9663TIP3    H250405   2.577   2.173   3.603  2.0733  1.1792 -1.0990
 9664TIP3   OH250406   6.542   2.715   1.590  0.6180 -0.0678  0.0622
 9664TIP3    H150407   6.635   2.691   1.587  0.3733 -1.1819  0.6395
 9664TIP3    H250408   6.537   2.786   1.654  1.3417  1.4683 -1.5113
 9665TIP3   OH250409   6.224   3.827  17.086 -1.1164 -0.1235 -0.6727
 9665TIP3    H150410   6.276   3.837  17.166  0.1655 -3.4665 -0.9605
 9665TIP3    H250411   6.283   3.854  17.016 -1.4199  0.5156 -0.6920
 9666TIP3   OH250412   4.903   6.063  10.230  0.5380  0.1350 -0.3044
 9666TIP3    H150413   4.863   6.104  10.307  0.2234  1.6365 -1.2271
 9666TIP3    H250414   4.928   5.975  10.260  1.5631  1.0887  1.8504
 9667TIP3   OH250415   2.552   5.979  13.541  0.0139  0.1622 -0.5442
 9667TIP3    H150416   2.592   5.996  13.627  0.7767 -0.7429 -0.7078
 9667TIP3    H250417   2.622   5.996  13.478 -0.1216 -0.5493 -0.8956
 9668TIP3   OH250418   1.726   1.353  13.451 -0.2530  0.0602 -0.0938
 9668TIP3    H150419   1.637   1.326  13.470 -0.0650  0.6241  1.7763
 9668TIP3    H250420   1.755   1.401  13.529  1.4755  0.4229 -0.8868
 9669TIP3   OH250421   3.419   6.397   6.702 -0.2119  0.3436  0.1809
 9669TIP3    H150422   3.326   6.414   6.717 -0.1252  0.0682  1.0968
 9669TIP3    H250423   3.460   6.416   6.786  0.7625  1.7688 -0.5814
 9670TIP3   OH250424   2.846   1.835  13.918  0.2350  0.0772  0.5340
 9670TIP3    H150425   2.863   1.825  14.012  2.5189 -0.1892  0.1315
 9670TIP3    H250426   2.897   1.767  13.876  0.8553  1.4244 -1.0311
 9671TIP3   OH250427   0.659   0.194  17.178 -0.0590 -0.6328  0.6612
 9671TIP3    H150428   0.735   0.221  17.229  0.2604 -1.4332  0.6202
 9671TIP3    H250429   0.619   0.276  17.150  0.5649 -0.1996  1.0043
 9672TIP3   OH250430   5.489   6.114  14.049  0.2951 -0.0624 -0.1838
 9672TIP3    H150431   5.462   6.180  13.985 -0.2374  1.5461  1.6237
 9672TIP3    H250432   5.425   6.121  14.120  3.4149  1.5773  2.7436
 9673TIP3   OH250433   3.460   5.411  10.543  0.1732  0.2526  0.2485
 9673TIP3    H150434   3.405   5.462  10.603  1.0150  0.2296  1.0629
 9673TIP3    H250435   3.542   5.398  10.591  0.8482  0.1848 -0.8934
 9674TIP3   OH250436   2.862   5.121  17.155  0.3208  0.7287 -0.1258
 9674TIP3    H150437   2.937   5.152  17.206  0.3866  0.9607 -0.3631
 9674TIP3    H250438   2.901   5.079  17.079  0.2044  1.2050 -0.4548
 9675TIP3   OH250439   3.817   0.235   1.543 -0.4765  0.5240  0.2926
 9675TIP3    H150440   3.859   0.159   1.502  0.8676  0.9473  0.8515
 9675TIP3    H250441   3.733   0.201   1.574 -1.2014 -0.0156 -2.0211
 9676TIP3   OH250442   6.620   6.138   5.483 -0.1373  0.3336 -0.2045
 9676TIP3    H150443   6.552   6.173   5.540  0.0900  0.1608  0.1742
 9676TIP3    H250444   6.700   6.142   5.535 -0.2152 -1.3275  0.0767
 9677TIP3   OH250445   0.022   0.293  13.919 -0.1880 -0.0452  0.5806
 9677TIP3    H150446  -0.071   0.319  13.920  0.0450  1.0321 -1.0014
 9677TIP3    H250447   0.057   0.334  13.840  1.7455 -0.1064  1.3506
 9678TIP3   OH250448   0.534   5.949   4.628  0.4159 -1.0700 -0.4954
 9678TIP3    H150449   0.442   5.942   4.604  0.4441 -2.0201 -0.3597
 9678TIP3    H250450   0.535   5.943   4.724  0.5864 -0.6256 -0.4648
 9679TIP3   OH250451   4.475   5.394  14.793  0.4989 -0.0883 -0.2898
 9679TIP3    H150452   4.448   5.486  14.791 -1.3413 -0.6045 -1.2511
 9679TIP3    H250453   4.480   5.372  14.886  1.5757  1.1269 -0.0373
 9680TIP3   OH250454   5.697   5.860   3.242  0.6468  0.1307  0.2597
 9680TIP3    H150455   5.619   5.808   3.226  0.2168  1.1004 -0.9707
 9680TIP3    H250456   5.745   5.858   3.159  0.7724  1.4208  0.2791
 9681TIP3   OH250457   6.435   2.381  11.421 -0.1689  0.0137  0.4692
 9681TIP3    H150458   6.522   2.396  11.382 -0.7968  0.7173 -0.7217
 9681TIP3    H250459   6.443   2.414  11.510  0.3028  1.7935 -0.1821
 9682TIP3   OH250460   1.427   0.643   0.396 -0.2114  0.5281  0.0425
 9682TIP3    H150461   1.494   0.674   0.456 -0.4410 -0.4837  0.8428
 9682TIP3    H250462   1.473   0.587   0.334 -0.3416 -0.4564  0.8059
 9683TIP3   OH250463   1.671   5.390  12.467  0.2881  0.2864  0.2101
 9683TIP3    H150464   1.613   5.410  12.393 -0.5413  3.3874  1.5397
 9683TIP3    H250465   1.686   5.295  12.460 -0.2400  0.3149 -3.5136
 9684TIP3   OH250466   0.807   4.278   5.867  0.1321 -0.1051  0.2843
 9684TIP3    H150467   0.863   4.312   5.936 -0.6666 -1.3488  1.6038
 9684TIP3    H250468   0.724   4.257   5.911  0.1206 -2.4409 -0.6651
 9685TIP3   OH250469   5.903   2.282  12.410  0.4292  0.0420 -0.3510
 9685TIP3    H150470   5.922   2.202  12.361  2.2223  0.6992 -0.8209
 9685TIP3    H250471   5.876   2.252  12.497 -0.1376 -1.0796 -0.9059
 9686TIP3   OH250472   3.948   4.683   1.555 -0.6598 -0.1696 -0.0934
 9686TIP3    H150473   3.953   4.758   1.614  2.5839 -0.8451  0.6702
 9686TIP3    H250474   3.974   4.718   1.470  2.8268 -0.6041  0.6396
 9687TIP3   OH250475   0.070   1.088  12.310  0.2980  0.7173  0.2423
 9687TIP3    H150476   0.013   1.164  12.296  0.7939  0.8303 -1.5193
 9687TIP3    H250477   0.158   1.121  12.291  0.7008  0.0463  0.9061
 9688TIP3   OH250478   3.870   6.150   2.649 -1.4100  0.1382  0.6633
 9688TIP3    H150479   3.866   6.081   2.583 -0.7175 -0.5870  1.3509
 9688TIP3    H250480   3.780   6.158   2.682 -1.9212  1.0450 -0.8759
 9689TIP3   OH250481   2.891   3.033  14.389  0.5064 -0.0099 -0.0610
 9689TIP3    H150482   2.931   3.043  14.303 -0.8950 -0.7311 -0.8337
 9689TIP3    H250483   2.830   2.960  14.379 -0.7186  0.7953  1.1475
 9690TIP3   OH250484   0.676   1.107  11.918 -0.4889  1.2424  0.2578
 9690TIP3    H150485   0.760   1.104  11.872 -0.4592 -1.1935  0.3707
 9690TIP3    H250486   0.695   1.151  12.000  0.9115 -0.0763  0.6713
 9691TIP3   OH250487   6.285   0.378   1.763 -0.6883  0.0113 -0.9546
 9691TIP3    H150488   6.232   0.319   1.710  0.1215 -0.4951 -1.2156
 9691TIP3    H250489   6.273   0.347   1.853 -1.3478  0.3128 -0.9297
 9692TIP3   OH250490   4.884   1.096  13.005  0.3597  0.2522 -0.5270
 9692TIP3    H150491   4.944   1.110  12.932  0.0566  1.6318 -0.5450
 9692TIP3    H250492   4.808   1.052  12.965  1.1953 -1.2103 -0.5587
 9693TIP3   OH250493   1.375   1.365   3.363  0.4094 -0.1248  0.1562
 9693TIP3    H150494   1.292   1.364   3.316  0.2177 -0.2945  0.4978
 9693TIP3    H250495   1.426   1.293   3.323  1.4555  1.6425 -1.9271
 9694TIP3   OH250496   4.994   5.845  16.001  0.0719  0.1059 -0.2599
 9694TIP3    H150497   5.002   5.882  15.913  0.4326  2.4305  0.6805
 9694TIP3    H250498   5.059   5.892  16.053 -1.8417  0.6374  1.8183
 9695TIP3   OH250499   6.102   1.677   1.319 -0.3162 -0.2306  0.4682
 9695TIP3    H150500   6.168   1.690   1.388  0.4592  1.7116 -0.5742
 9695TIP3    H250501   6.043   1.752   1.327  0.0111  0.2540 -1.1769
 9696TIP3   OH250502   2.142   3.287  14.209  0.5294  0.0247 -0.2326
 9696TIP3    H150503   2.134   3.287  14.113  2.8790  1.1557 -0.5013
 9696TIP3    H250504   2.098   3.368  14.236  0.1509 -0.1313 -0.3674
 9697TIP3   OH250505   6.364   4.847   1.295 -0.1916  0.1992 -0.3867
 9697TIP3    H150506   6.324   4.922   1.340  1.3356  0.9451 -0.2334
 9697TIP3    H250507   6.295   4.780   1.296 -1.0332  1.0340  0.8963
 9698TIP3   OH250508   2.430   3.986   0.860 -1.0673 -0.5437  0.1993
 9698TIP3    H150509   2.424   3.922   0.789 -0.7130  0.6063 -0.8927
 9698TIP3    H250510   2.408   4.069   0.819  0.3898  0.3417  1.1499
 9699TIP3   OH250511   2.934   5.315  14.986 -0.4966 -0.0440 -0.3523
 9699TIP3    H150512   2.937   5.308  14.890  1.8355  0.0428 -0.3361
 9699TIP3    H250513   2.964   5.230  15.017 -3.1676 -0.8169  0.4195
 9700TIP3   OH250514   5.440   5.307  15.319 -0.1713 -0.2520  0.7227
 9700TIP3    H150515   5.487   5.380  15.278 -0.6274 -0.6102 -0.4882
 9700TIP3    H250516   5.347   5.328  15.306 -0.3271 -0.3861  1.5735
 9701TIP3   OH250517   1.297   1.705  16.505  0.1129 -0.3071 -0.0931
 9701TIP3    H150518   1.260   1.689  16.418  1.1328  0.5770 -0.7133
 9701TIP3    H250519   1.225   1.686  16.566 -0.5693 -1.0859 -1.1127
 9702TIP3   OH250520   4.131   4.089  11.868  0.5254  0.3542 -0.2384
 9702TIP3    H150521   4.095   4.002  11.856 -0.0441  0.5522  0.0038
 9702TIP3    H250522   4.067   4.148  11.828  0.6378  0.6982  0.0726
 9703TIP3   OH250523   1.477   0.130   1.916 -0.9185  0.0627  0.4080
 9703TIP3    H150524   1.433   0.175   1.844 -0.2663  0.2877  0.1429
 9703TIP3    H250525   1.436   0.044   1.920 -1.2857  0.2202  0.0809
 9704TIP3   OH250526   4.045   6.051  16.907 -0.0994 -0.3879 -0.3939
 9704TIP3    H150527   4.087   5.994  16.842 -0.4940 -1.2307  0.0681
 9704TIP3    H250528   3.973   6.092  16.860 -0.7035 -1.3915 -0.3801
 9705TIP3   OH250529   6.621   3.247  12.348  0.1819  0.1103 -0.6154
 9705TIP3    H150530   6.630   3.342  12.348 -1.2822  0.2705 -0.3951
 9705TIP3    H250531   6.631   3.221  12.256 -4.2575  1.0608 -1.5989
 9706TIP3   OH250532   0.633   4.466  16.237 -0.4894 -0.1924 -0.7063
 9706TIP3    H150533   0.672   4.509  16.312  0.1410  0.6026 -1.4619
 9706TIP3    H250534   0.593   4.387  16.272  2.7414 -1.6807 -0.0306
 9707TIP3   OH250535   3.392   4.287  11.214 -0.2729  0.2598  0.3389
 9707TIP3    H150536   3.315   4.294  11.271 -1.3420 -0.3156 -0.9916
 9707TIP3    H250537   3.383   4.360  11.152 -0.3690 -0.4978 -0.5502
 9708TIP3   OH250538   1.051   3.399   0.237 -0.0730 -0.2580 -0.4417
 9708TIP3    H150539   1.130   3.348   0.218  0.0853 -0.6447  1.1213
 9708TIP3    H250540   1.074   3.489   0.215  0.5971 -0.4590 -0.5657
 9709TIP3   OH250541   3.366   3.060  16.374 -0.0726  0.0025 -0.1840
 9709TIP3    H150542   3.320   3.144  16.372  3.1359  1.9027 -0.1375
 9709TIP3    H250543   3.346   3.019  16.289 -2.2185  0.4291  0.0652
 9710TIP3   OH250544   1.273   5.416   5.566  0.1315 -0.3939  0.0052
 9710TIP3    H150545   1.238   5.438   5.653  1.3660  0.1143  0.4035
 9710TIP3    H250546   1.211   5.455   5.505  0.5460  1.4901  0.6857
 9711TIP3   OH250547   3.495   3.606  11.184  0.2635  0.1384  0.2219
 9711TIP3    H150548   3.404   3.588  11.161  0.6605  0.5645 -1.8838
 9711TIP3    H250549   3.530   3.521  11.209 -0.3709 -0.2736 -0.2426
 9712TIP3   OH250550   4.819   4.188  14.405  0.5314  0.0516 -0.0823
 9712TIP3    H150551   4.766   4.162  14.329  0.2498 -0.1043  0.1675
 9712TIP3    H250552   4.762   4.173  14.480  0.0078  2.2255  0.0350
 9713TIP3   OH250553   3.890   6.776   3.378 -0.4693  0.4655  0.2022
 9713TIP3    H150554   3.820   6.820   3.427  3.0282  3.5088  2.9782
 9713TIP3    H250555   3.928   6.844   3.324 -0.0685 -1.3430 -1.9336
 9714TIP3   OH250556   1.534   2.835   2.603 -0.1100 -0.4242  0.0856
 9714TIP3    H150557   1.613   2.886   2.583 -0.2940 -0.0880  0.2267
 9714TIP3    H250558   1.559   2.782   2.679  0.7411 -2.0344 -1.2398
 9715TIP3   OH250559   3.250   1.273   2.948 -0.1446 -0.5736 -0.2017
 9715TIP3    H150560   3.326   1.241   2.996 -0.6228 -1.3153  0.0788
 9715TIP3    H250561   3.234   1.207   2.881  0.1607  0.1607 -1.0174
 9716TIP3   OH250562   1.551   4.130  14.734 -0.2144  0.1262  0.3549
 9716TIP3    H150563   1.597   4.081  14.665  1.7614  1.2792  0.7686
 9716TIP3    H250564   1.573   4.084  14.815  1.8092  1.6838  0.7686
 9717TIP3   OH250565   2.423   2.455   1.708  0.2579 -0.1307  0.2227
 9717TIP3    H150566   2.429   2.410   1.792 -0.9419  1.0981  1.0137
 9717TIP3    H250567   2.514   2.464   1.679  0.6475 -1.1176  1.0658
 9718TIP3   OH250568   0.856   6.285  12.571  1.0442  0.4264  0.3221
 9718TIP3    H150569   0.843   6.276  12.477  1.0983 -0.2052  0.3698
 9718TIP3    H250570   0.951   6.293  12.583  0.9809  1.3752  0.2599
 9719TIP3   OH250571   6.300   0.715   2.112  0.4486 -0.0878  0.0174
 9719TIP3    H150572   6.222   0.762   2.141 -0.3616 -0.3909 -1.5961
 9719TIP3    H250573   6.282   0.623   2.132  0.0929 -0.2389 -0.9771
 9720TIP3   OH250574   4.266   6.487   5.645 -0.5336 -0.2191 -0.0259
 9720TIP3    H150575   4.208   6.413   5.665 -0.2458 -0.3539  0.3304
 9720TIP3    H250576   4.224   6.562   5.687 -0.8143 -0.1840 -0.3688
 9721TIP3   OH250577   4.136   3.056  15.094 -0.5470  0.0177  0.0090
 9721TIP3    H150578   4.090   2.979  15.060  1.0848 -1.7737  1.6461
 9721TIP3    H250579   4.201   3.076  15.027 -1.5605  0.5857 -0.8392
 9722TIP3   OH250580   3.466   5.781   5.315  0.4580  0.4585 -0.5020
 9722TIP3    H150581   3.406   5.796   5.242  0.7618  1.3111 -0.5868
 9722TIP3    H250582   3.419   5.721   5.373 -0.3094  0.8014 -0.7662
 9723TIP3   OH250583   5.753   2.309  16.968  0.2779  0.0475  0.4223
 9723TIP3    H150584   5.697   2.234  16.987 -0.1494  0.3825  0.5070
 9723TIP3    H250585   5.703   2.385  16.998  0.6775  0.3747  0.2825
 9724TIP3   OH250586   0.828   4.141   1.662 -0.3300 -0.0442 -0.0604
 9724TIP3    H150587   0.889   4.089   1.715  1.6355 -0.1466 -2.2761
 9724TIP3    H250588   0.748   4.088   1.660  1.0406 -2.2484 -0.8623
 9725TIP3   OH250589   2.331   1.766   5.143 -0.3126 -0.0853 -0.1952
 9725TIP3    H150590   2.425   1.751   5.153 -0.0366  2.4441  2.0489
 9725TIP3    H250591   2.291   1.710   5.209 -0.2215  0.2321  0.1320
 9726TIP3   OH250592   1.513   6.097  15.714 -0.4583  0.5740 -0.5540
 9726TIP3    H150593   1.430   6.060  15.745 -0.9591  0.5738 -1.8472
 9726TIP3    H250594   1.487   6.164  15.651  0.5006  1.5812  0.0796
 9727TIP3   OH250595   3.431   2.746  11.421  0.0679 -0.1143  0.2258
 9727TIP3    H150596   3.474   2.680  11.476 -0.2274  0.4606  1.1707
 9727TIP3    H250597   3.346   2.759  11.462 -0.0361  0.5613 -0.1905
 9728TIP3   OH250598   0.536   1.419   3.139 -0.4656 -0.1729 -0.3786
 9728TIP3    H150599   0.508   1.401   3.050  1.2951  0.9055 -1.1939
 9728TIP3    H250600   0.460   1.460   3.180 -1.5613 -1.4017 -1.1137
 9729TIP3   OH250601   2.577   4.174  14.601  0.2493 -0.6699  0.0751
 9729TIP3    H150602   2.588   4.098  14.545 -0.9279 -0.4537 -0.4726
 9729TIP3    H250603   2.641   4.238  14.569  0.8364 -1.1988  0.1672
 9730TIP3   OH250604   4.816   0.210   1.202  0.6394  0.1585 -1.1282
 9730TIP3    H150605   4.881   0.202   1.132  0.6268 -0.3971 -1.0814
 9730TIP3    H250606   4.741   0.160   1.171  0.7620 -0.3898 -0.5692
 9731TIP3   OH250607   5.458   1.031  14.148  0.1070  0.6203 -0.2606
 9731TIP3    H150608   5.533   1.014  14.205  1.5347  2.4367 -1.5059
 9731TIP3    H250609   5.390   1.064  14.207  0.2750 -0.9273  0.8674
 9732TIP3   OH250610   6.341   3.446  12.492  0.4646 -0.0816  0.0134
 9732TIP3    H150611   6.295   3.520  12.455  1.7604 -0.1142 -1.7851
 9732TIP3    H250612   6.429   3.479  12.511  0.8556 -0.9648 -0.1861
 9733TIP3   OH250613   5.048   5.600  16.479  0.4412  0.6813 -0.1316
 9733TIP3    H150614   5.066   5.676  16.533  2.8705 -0.4250  0.7413
 9733TIP3    H250615   5.116   5.600  16.412  0.4148 -0.6359 -0.1945
 9734TIP3   OH250616   3.776   1.118   1.911 -0.3033 -0.9589  0.3091
 9734TIP3    H150617   3.811   1.206   1.898  1.4008 -1.8486 -1.6423
 9734TIP3    H250618   3.778   1.106   2.006 -2.3713  1.7283  0.8074
 9735TIP3   OH250619   2.333   4.165  11.674 -0.3979 -0.4665  0.2260
 9735TIP3    H150620   2.259   4.107  11.685 -0.8204 -0.2469 -1.2244
 9735TIP3    H250621   2.300   4.252  11.699 -0.6986 -0.3336 -0.6203
 9736TIP3   OH250622   4.732   0.034   2.497 -0.1801 -0.2018  0.2685
 9736TIP3    H150623   4.709  -0.030   2.564 -0.4271  0.1871  0.5569
 9736TIP3    H250624   4.826   0.047   2.506  0.0293 -1.1794 -0.3717
 9737TIP3   OH250625   0.756   2.782  16.431 -0.5241 -0.2068  0.3121
 9737TIP3    H150626   0.831   2.758  16.376 -0.7767 -0.0254 -0.1141
 9737TIP3    H250627   0.786   2.860  16.479 -0.8018  0.5251 -0.6600
 9738TIP3   OH250628   0.153   2.788  11.398 -0.2819  0.2343 -0.1897
 9738TIP3    H150629   0.177   2.761  11.309 -1.9300 -0.8048 -0.3594
 9738TIP3    H250630   0.206   2.732  11.455  0.1671  0.3230 -0.5152
 9739TIP3   OH250631   5.722   6.290  12.164  0.6448  0.2860 -0.0982
 9739TIP3    H150632   5.718   6.253  12.076  0.6722  3.1599 -1.4194
 9739TIP3    H250633   5.803   6.256  12.200  0.1966 -1.6652 -0.7686
 9740TIP3   OH250634   0.157   5.145  13.742  0.4181  0.4518 -0.2017
 9740TIP3    H150635   0.201   5.183  13.667  1.0788 -0.2373 -0.1762
 9740TIP3    H250636   0.144   5.053  13.718 -2.1904  0.8905 -0.7536
 9741TIP3   OH250637   0.555   2.771  12.051  0.4923 -0.2548 -0.5152
 9741TIP3    H150638   0.487   2.707  12.073 -1.3276  1.8870  0.5665
 9741TIP3    H250639   0.569   2.821  12.132  0.7503  1.6248 -1.6460
 9742TIP3   OH250640   2.869   4.107   0.119 -0.2385 -0.2366 -0.0835
 9742TIP3    H150641   2.893   4.170   0.187  1.1523 -0.2263 -0.5577
 9742TIP3    H250642   2.931   4.123   0.048 -0.9636 -0.9932 -0.9094
 9743TIP3   OH250643   5.057   4.807  10.713 -0.4099  0.3230  0.1912
 9743TIP3    H150644   5.139   4.855  10.725  1.3270 -1.5887 -2.5119
 9743TIP3    H250645   4.989   4.874  10.707  1.6448  2.4149 -1.9216
 9744TIP3   OH250646   0.233   3.555  11.540 -0.1354 -0.1493 -0.4820
 9744TIP3    H150647   0.256   3.620  11.474 -1.3562  0.9956  0.1522
 9744TIP3    H250648   0.163   3.504  11.500 -0.9467  0.6113 -0.0691
 9745TIP3   OH250649   6.084   5.393  13.564 -0.2756 -0.7719 -0.0142
 9745TIP3    H150650   6.027   5.371  13.638  0.5634 -0.6181  0.7007
 9745TIP3    H250651   6.171   5.403  13.603  0.0838 -0.1326 -0.9378
 9746TIP3   OH250652   1.803   0.781   5.128  0.4433  0.1169 -0.0184
 9746TIP3    H150653   1.719   0.783   5.174  1.2981 -0.5624  1.6702
 9746TIP3    H250654   1.817   0.689   5.108  1.0514  0.1430  0.2616
 9747TIP3   OH250655   4.769   3.276   2.000 -0.1415 -0.0683 -0.4616
 9747TIP3    H150656   4.722   3.209   2.051  2.0847 -1.6889 -0.3866
 9747TIP3    H250657   4.716   3.287   1.921 -0.5822 -1.9722 -0.4873
 9748TIP3   OH250658   2.688   0.824   1.505 -0.7539  0.3005 -0.5457
 9748TIP3    H150659   2.691   0.728   1.498  1.1930  0.1563  1.3644
 9748TIP3    H250660   2.638   0.840   1.585 -1.5265  0.9236 -1.1419
 9749TIP3   OH250661   4.497   4.299   0.389 -0.0028 -0.3127  0.2555
 9749TIP3    H150662   4.401   4.306   0.393  0.1313  1.6078  1.2150
 9749TIP3    H250663   4.513   4.208   0.366 -2.0572 -0.7567  0.3670
 9750TIP3   OH250664   5.210   3.839   0.984 -0.1363 -0.5652  0.1797
 9750TIP3    H150665   5.276   3.885   0.933 -0.4024 -0.6701 -0.2600
 9750TIP3    H250666   5.238   3.747   0.982 -1.9260 -1.1670 -2.6563
 9751TIP3   OH250667   5.914   0.108   1.762  0.5925  0.4180 -0.4320
 9751TIP3    H150668   5.839   0.167   1.765  0.2931  0.0059  0.7053
 9751TIP3    H250669   5.883   0.029   1.806  1.7835  0.3493  0.3043
 9752TIP3   OH250670   2.983   5.179   6.439  0.4660  0.2689  0.2905
 9752TIP3    H150671   2.986   5.255   6.498  2.1588  0.5126 -0.0573
 9752TIP3    H250672   2.977   5.216   6.352 -2.8488 -0.1010  0.2378
 9753TIP3   OH250673   0.746   4.906  15.522 -0.4694  0.1796 -0.4984
 9753TIP3    H150674   0.729   4.998  15.541  1.7234  0.8046 -1.2036
 9753TIP3    H250675   0.841   4.901  15.513 -0.6567 -1.8563 -2.0026
 9754TIP3   OH250676   4.313   0.625   2.884 -0.6798  0.4971 -0.0790
 9754TIP3    H150677   4.230   0.589   2.853 -0.6382 -0.0899  0.4693
 9754TIP3    H250678   4.378   0.557   2.863 -0.5853  0.2797  0.8879
 9755TIP3   OH250679   5.986   0.117  14.487 -0.2100 -0.3353  0.3841
 9755TIP3    H150680   6.016   0.172  14.414  0.2217  0.3957  1.0842
 9755TIP3    H250681   5.921   0.059  14.448  0.2583 -0.1997 -0.6511
 9756TIP3   OH250682   2.446   5.777   0.403  0.6100  0.4462 -0.1205
 9756TIP3    H150683   2.477   5.836   0.471  0.5322  0.0241  0.2858
 9756TIP3    H250684   2.429   5.834   0.327 -0.2584  1.0688  0.5195
 9757TIP3   OH250685   2.112   3.427  12.666  0.6740  0.2355 -0.5049
 9757TIP3    H150686   2.122   3.449  12.759  0.3563 -0.0388 -0.4044
 9757TIP3    H250687   2.032   3.472  12.639 -0.2083 -1.0906 -0.1951
 9758TIP3   OH250688   6.251   0.654   1.808  0.1290 -0.4046 -0.0675
 9758TIP3    H150689   6.312   0.677   1.877  0.3003  1.5212 -0.8035
 9758TIP3    H250690   6.260   0.559   1.799  1.3116 -0.4679  1.3938
 9759TIP3   OH250691   6.675   1.636  14.645 -0.7311  0.3756  0.3440
 9759TIP3    H150692   6.626   1.583  14.707 -3.3636  0.5391 -1.4634
 9759TIP3    H250693   6.760   1.592  14.638 -0.7278 -0.2709  3.1337
 9760TIP3   OH250694   3.504   6.278  16.415  0.1481 -0.0835 -0.2807
 9760TIP3    H150695   3.481   6.358  16.367 -1.7892  1.2832  2.6201
 9760TIP3    H250696   3.452   6.209  16.373 -0.9714  0.9207 -0.5923
 9761TIP3   OH250697   5.063   2.292   0.845 -0.0329  0.1021 -0.7273
 9761TIP3    H150698   5.070   2.318   0.937 -0.0412  0.6546 -0.8805
 9761TIP3    H250699   5.091   2.369   0.796  0.3176 -0.3090 -1.1825
 9762TIP3   OH250700   6.123   3.650  10.705 -1.2563  0.7235  0.4661
 9762TIP3    H150701   6.078   3.628  10.623  0.3896  2.7291 -1.0957
 9762TIP3    H250702   6.149   3.741  10.695  1.4136  0.2687  2.0541
 9763TIP3   OH250703   1.988   6.701  16.174  0.0574 -0.7161  0.3716
 9763TIP3    H150704   1.961   6.676  16.263 -1.1038 -1.0183 -0.0435
 9763TIP3    H250705   2.030   6.622  16.139  0.8036 -0.4971  0.7492
 9764TIP3   OH250706   3.897   0.332  12.929 -0.7627 -0.4309  0.0041
 9764TIP3    H150707   3.855   0.255  12.968 -1.5314  0.6384  1.4072
 9764TIP3    H250708   3.880   0.402  12.992 -1.8655  1.3791 -2.1868
 9765TIP3   OH250709   5.872   1.051  16.493 -0.3454 -0.1769  0.5264
 9765TIP3    H150710   5.838   1.132  16.530  1.4554  0.0438  1.8153
 9765TIP3    H250711   5.864   0.987  16.563 -0.2516 -0.7160  0.0549
 9766TIP3   OH250712   5.891   5.157  12.343 -0.0045 -0.0556 -0.5347
 9766TIP3    H150713   5.923   5.126  12.428 -1.0351 -1.0445 -0.4893
 9766TIP3    H250714   5.970   5.187  12.297  0.3804  2.1153  1.3858
 9767TIP3   OH250715   3.037   3.843  14.710  0.3219 -0.1928 -0.3572
 9767TIP3    H150716   2.996   3.922  14.744  0.1190 -0.5791  0.3125
 9767TIP3    H250717   3.081   3.804  14.785 -0.6717 -1.3954 -0.3740
 9768TIP3   OH250718   3.640   1.794  14.523 -0.1993 -0.1505 -0.0181
 9768TIP3    H150719   3.595   1.828  14.446 -0.9594 -0.6084  0.2137
 9768TIP3    H250720   3.591   1.829  14.598  0.3167  0.0001  0.2582
 9769TIP3   OH250721   6.751   2.395   1.862  0.3441  0.0577  0.4394
 9769TIP3    H150722   6.791   2.414   1.947  0.3475  1.5138  0.1372
 9769TIP3    H250723   6.711   2.309   1.873  2.7675 -1.0791  1.0235
 9770TIP3   OH250724   4.125   6.261   5.686 -0.1838 -0.7701 -0.1544
 9770TIP3    H150725   4.170   6.177   5.683  0.0469 -0.7141  1.1153
 9770TIP3    H250726   4.109   6.276   5.779 -1.0823  0.1379 -0.4403
 9771TIP3   OH250727   3.518   3.710  16.525 -0.0759 -0.6941 -0.2452
 9771TIP3    H150728   3.449   3.644  16.527 -0.0897 -0.6806 -0.2824
 9771TIP3    H250729   3.515   3.750  16.612 -0.7537 -0.0337 -0.5646
 9772TIP3   OH250730   5.430   0.885  15.198  0.0022 -0.3746  0.2866
 9772TIP3    H150731   5.435   0.801  15.244  2.3919 -0.7557 -0.5187
 9772TIP3    H250732   5.402   0.947  15.265  1.7278 -1.1959  1.8613
 9773TIP3   OH250733   1.400   5.810  11.655  0.2912 -0.6074 -0.0698
 9773TIP3    H150734   1.344   5.762  11.593 -0.6020  1.0679 -0.6411
 9773TIP3    H250735   1.351   5.890  11.674  2.4607  0.9384 -0.5546
 9774TIP3   OH250736   3.139   3.851   5.478 -0.5544  0.0248 -0.0059
 9774TIP3    H150737   3.181   3.838   5.393  0.1638 -1.3830  0.5262
 9774TIP3    H250738   3.083   3.775   5.488 -0.6444  0.1883  0.7729
 9775TIP3   OH250739   1.846   4.078   4.385 -0.1168  0.2084 -0.2136
 9775TIP3    H150740   1.863   4.044   4.473  0.5735  1.4526  0.1609
 9775TIP3    H250741   1.780   4.019   4.349 -0.4855 -0.2682  1.1731
 9776TIP3   OH250742   0.519   4.446   2.247  0.1129  0.4271 -0.0281
 9776TIP3    H150743   0.459   4.379   2.214  1.0455 -1.4848  1.8883
 9776TIP3    H250744   0.462   4.506   2.295 -0.4713 -0.5921  0.6083
 9777TIP3   OH250745   4.884   1.246   5.498 -0.4258 -0.4716  0.3483
 9777TIP3    H150746   4.892   1.200   5.582 -0.8560 -2.4672 -0.6287
 9777TIP3    H250747   4.919   1.184   5.434 -0.7090  0.7439 -1.0390
 9778TIP3   OH250748   5.316   2.597  14.691 -0.2145 -0.9000  0.1759
 9778TIP3    H150749   5.304   2.692  14.693  1.5436 -0.6491  0.3945
 9778TIP3    H250750   5.228   2.562  14.703 -1.3023  0.6792 -2.2193
 9779TIP3   OH250751   6.417   2.100  13.203  0.3091  0.2147 -0.2263
 9779TIP3    H150752   6.387   2.153  13.129 -1.2560  1.3968  1.1938
 9779TIP3    H250753   6.468   2.161  13.256 -1.0508  0.2074  1.1493
 9780TIP3   OH250754   6.703   5.650   1.023 -0.3449 -0.4163 -0.2215
 9780TIP3    H150755   6.626   5.608   1.061  1.5122 -2.2416  1.7744
 9780TIP3    H250756   6.752   5.684   1.098  2.0939 -1.6967 -1.1321
 9781TIP3   OH250757   1.907   5.926  16.609  0.1993 -0.3420  0.0165
 9781TIP3    H150758   1.911   5.978  16.689 -0.9197  0.0279 -0.1600
 9781TIP3    H250759   1.994   5.886  16.602  1.1010  1.4842  0.1737
 9782TIP3   OH250760   6.729   4.445  11.550 -0.4516 -0.8135  0.2989
 9782TIP3    H150761   6.713   4.445  11.644  2.1325  1.3289  0.8766
 9782TIP3    H250762   6.655   4.494  11.513 -0.2267  0.5548  1.5693
 9783TIP3   OH250763   5.597   6.699  14.019 -0.8127 -0.4655 -0.1345
 9783TIP3    H150764   5.623   6.734  14.104  0.4702 -0.9191 -0.3068
 9783TIP3    H250765   5.547   6.770  13.977 -0.7497  0.0577  0.6647
 9784TIP3   OH250766   6.417   2.780  14.891 -0.1887  0.6018  0.2282
 9784TIP3    H150767   6.374   2.761  14.975 -0.7168  1.6207  0.1953
 9784TIP3    H250768   6.349   2.764  14.826  0.1916 -0.0878 -0.0153
 9785TIP3   OH250769   6.212   1.126  16.155  0.8898 -0.2630 -0.0486
 9785TIP3    H150770   6.260   1.172  16.224  2.9486 -1.5952 -0.5216
 9785TIP3    H250771   6.121   1.130  16.183  1.6220 -0.4504  2.5835
 9786TIP3   OH250772   6.258   4.092   1.567 -0.5868 -0.2746 -0.2735
 9786TIP3    H150773   6.174   4.047   1.577 -0.8197  0.4935  1.6177
 9786TIP3    H250774   6.317   4.024   1.534 -1.5757 -1.2614 -0.0864
 9787TIP3   OH250775   0.709   4.692  13.292 -0.5658 -0.1997  0.0295
 9787TIP3    H150776   0.747   4.652  13.370 -2.4407  1.6582  2.0162
 9787TIP3    H250777   0.755   4.775  13.282 -0.2062 -0.5007 -1.0136
 9788TIP3   OH250778   5.594   3.433  12.057  0.5383  0.2339 -0.0385
 9788TIP3    H150779   5.573   3.370  12.126  0.3394 -0.6607 -0.8904
 9788TIP3    H250780   5.577   3.518  12.097 -1.0226 -0.3170  0.5550
 9789TIP3   OH250781   6.647   2.535   0.738 -0.0730  0.3778 -0.0071
 9789TIP3    H150782   6.610   2.494   0.660 -0.1907 -0.1234  0.3021
 9789TIP3    H250783   6.655   2.627   0.716  0.3610  0.1559 -0.7844
 9790TIP3   OH250784   5.887   0.264  15.716  0.1912  0.4010  0.6353
 9790TIP3    H150785   5.973   0.306  15.711 -0.4323  1.9164  1.9559
 9790TIP3    H250786   5.824   0.334  15.703 -0.9223 -0.9033 -1.7465
 9791TIP3   OH250787   2.672   4.902   4.232  0.2902  0.2029 -0.0213
 9791TIP3    H150788   2.681   4.894   4.137  0.3334 -0.5052  0.0439
 9791TIP3    H250789   2.584   4.869   4.252 -0.2311  1.5316  0.0512
 9792TIP3   OH250790   4.293   4.953  13.987  0.1440 -0.1476  0.0756
 9792TIP3    H150791   4.287   4.962  14.083 -1.3566 -0.6588  0.0599
 9792TIP3    H250792   4.370   4.898  13.973  1.6626  1.6593  0.8492
 9793TIP3   OH250793   0.953   6.255  13.727  0.2997 -0.1198 -0.1301
 9793TIP3    H150794   0.884   6.316  13.756  0.5227  0.0273  0.0917
 9793TIP3    H250795   0.912   6.169  13.735  0.3114 -0.0762  0.5162
 9794TIP3   OH250796   6.392   5.652  13.266  0.0627  0.7850 -0.0263
 9794TIP3    H150797   6.467   5.604  13.301  0.4178 -0.3259 -2.0831
 9794TIP3    H250798   6.428   5.702  13.192 -1.0561  0.9120 -0.5065
 9795TIP3   OH250799   5.221   3.993   4.991 -0.4169  0.5924 -0.0761
 9795TIP3    H150800   5.206   4.029   4.903  1.0585  0.6248 -0.3386
 9795TIP3    H250801   5.187   4.060   5.050 -0.0190  1.2824 -0.6076
 9796TIP3   OH250802   0.220   1.954   2.897  0.0699  0.3223  0.5283
 9796TIP3    H150803   0.214   1.887   2.966  1.1641 -0.6182 -0.2483
 9796TIP3    H250804   0.293   2.009   2.924 -0.2663  0.6731  0.7218
 9797TIP3   OH250805   5.111   6.010  13.303  0.1478  0.0530  0.6552
 9797TIP3    H150806   5.129   6.022  13.396  1.4766  0.1683  0.4047
 9797TIP3    H250807   5.089   6.097  13.271  0.8068  0.2130  0.6373
 9798TIP3   OH250808   2.529   6.343  14.615 -0.3320 -0.3106  0.5115
 9798TIP3    H150809   2.447   6.369  14.574 -0.4678  2.0727  2.0425
 9798TIP3    H250810   2.580   6.302  14.545 -1.7675  0.6212 -1.1553
 9799TIP3   OH250811   3.140   4.130  14.523 -0.2413 -0.0905  0.3153
 9799TIP3    H150812   3.234   4.114  14.525 -0.0243  0.9948 -0.1908
 9799TIP3    H250813   3.100   4.043  14.523  0.7790 -0.5691 -0.2474
 9800TIP3   OH250814   0.932   4.047   1.266  0.6583  0.4083 -0.6080
 9800TIP3    H150815   0.842   4.035   1.237 -0.1916  0.8744  1.5965
 9800TIP3    H250816   0.973   3.961   1.253 -0.6838 -0.3757  0.1011
 9801TIP3   OH250817   5.732   1.553   1.423  0.4562 -0.2502  0.1820
 9801TIP3    H150818   5.655   1.537   1.368  0.2117 -0.6843  0.6510
 9801TIP3    H250819   5.771   1.467   1.435  1.3639  0.0407 -0.5490
 9802TIP3   OH250820   3.637   4.682   5.803  0.4661 -0.2885 -0.4729
 9802TIP3    H150821   3.651   4.587   5.802 -1.2629 -0.5898  0.0233
 9802TIP3    H250822   3.713   4.718   5.848  0.9634 -1.4836 -0.3381
 9803TIP3   OH250823   5.950   6.253   0.252  0.3703 -0.0852 -0.3709
 9803TIP3    H150824   6.013   6.279   0.319 -1.4526  1.9455  0.6681
 9803TIP3    H250825   5.896   6.186   0.295 -0.7698  1.1847  0.2701
 9804TIP3   OH250826   5.068   3.772   4.396 -0.2351 -0.6275  0.0263
 9804TIP3    H150827   5.082   3.767   4.490  1.0786 -1.8943 -0.2053
 9804TIP3    H250828   5.133   3.713   4.358  0.5207  1.2180 -1.8038
 9805TIP3   OH250829   6.505   3.333   2.808 -0.4824 -0.6369  0.3497
 9805TIP3    H150830   6.433   3.384   2.845  0.1842 -0.7276  1.8837
 9805TIP3    H250831   6.568   3.398   2.778 -1.1748 -0.5579 -0.9807
 9806TIP3   OH250832   2.302   3.890   5.786  0.2925 -0.6012  0.2109
 9806TIP3    H150833   2.264   3.847   5.862 -0.5244 -1.1028 -0.4605
 9806TIP3    H250834   2.384   3.928   5.818 -1.7421  2.4758  2.2864
 9807TIP3   OH250835   2.990   4.162   2.556  0.2789  0.7865 -0.5341
 9807TIP3    H150836   2.941   4.212   2.622  0.3273  1.3626 -0.9268
 9807TIP3    H250837   2.923   4.124   2.500  0.1382 -1.3674  0.9887
 9808TIP3   OH250838   1.694   1.167  15.888  0.2364  0.6106  0.5642
 9808TIP3    H150839   1.777   1.126  15.908  1.0551  1.9306  0.0232
 9808TIP3    H250840   1.644   1.163  15.970 -1.2811 -4.6465 -0.2782
 9809TIP3   OH250841   3.837   0.063  13.032  0.7305 -0.5914  0.2329
 9809TIP3    H150842   3.868   0.008  13.104 -0.1483 -0.4175  0.7610
 9809TIP3    H250843   3.747   0.033  13.016  0.2161  0.7131  0.5658
 9810TIP3   OH250844   6.546   0.748  10.208  0.3922  0.0680 -0.2619
 9810TIP3    H150845   6.586   0.693  10.276  2.8559 -1.2693 -2.5942
 9810TIP3    H250846   6.505   0.685  10.149  0.7975  0.9447 -1.5026
 9811TIP3   OH250847   4.688   0.242  15.957  0.0323  0.3652 -0.0266
 9811TIP3    H150848   4.691   0.146  15.953  1.7872  0.3551  0.8310
 9811TIP3    H250849   4.703   0.270  15.867 -0.4405 -0.1627 -0.2744
 9812TIP3   OH250850   1.087   6.478   3.777  0.1343  0.1483 -0.7261
 9812TIP3    H150851   1.134   6.399   3.751 -0.3898  0.0795 -1.4925
 9812TIP3    H250852   1.147   6.549   3.757  0.5862 -0.0353 -0.0847
 9813TIP3   OH250853   0.296   3.752   4.682  0.8212  0.3658 -0.0565
 9813TIP3    H150854   0.248   3.832   4.657 -0.3734 -0.2055  0.3214
 9813TIP3    H250855   0.361   3.782   4.745 -1.2057  0.7779  1.9986
 9814TIP3   OH250856   5.542   2.597  15.514  0.8738 -0.0480 -0.1816
 9814TIP3    H150857   5.623   2.595  15.462  0.5066  1.2225 -0.8460
 9814TIP3    H250858   5.488   2.664  15.472  0.1225  0.2654  1.2143
 9815TIP3   OH250859   6.319   0.166  15.545 -0.0347  0.4509 -0.1500
 9815TIP3    H150860   6.372   0.097  15.505  2.6769  2.7923 -0.9120
 9815TIP3    H250861   6.348   0.169  15.636  0.8720  1.4233 -0.4516
 9816TIP3   OH250862   3.198   4.793  13.235 -0.7145  0.0529  0.1380
 9816TIP3    H150863   3.171   4.795  13.143 -1.8744  0.9140  0.4742
 9816TIP3    H250864   3.166   4.709  13.268 -0.5064 -0.1534 -0.1872
 9817TIP3   OH250865   3.257   5.267  15.172 -1.0296 -0.2245  0.1674
 9817TIP3    H150866   3.345   5.258  15.135 -0.7737 -2.7478  1.2207
 9817TIP3    H250867   3.255   5.355  15.209  1.2767 -0.3121  0.6280
 9818TIP3   OH250868   4.496   4.215   2.572 -0.0366 -0.3297 -0.1835
 9818TIP3    H150869   4.578   4.256   2.597 -0.1431  0.2258 -0.7438
 9818TIP3    H250870   4.452   4.279   2.517 -0.6968 -0.7542 -0.1669
 9819TIP3   OH250871   3.530   6.551  14.200 -0.2662  0.2413  0.0678
 9819TIP3    H150872   3.476   6.621  14.238  0.2830  0.0913  1.1802
 9819TIP3    H250873   3.490   6.532  14.116 -1.7714  0.3382  0.7358
 9820TIP3   OH250874   2.230   1.027  11.267 -1.0231 -0.1887 -0.3508
 9820TIP3    H150875   2.253   0.956  11.326 -1.1201 -0.2705 -0.4117
 9820TIP3    H250876   2.134   1.024  11.262 -0.9792 -0.5167 -0.9337
 9821TIP3   OH250877   6.131   2.609   0.340 -0.2972 -0.2304 -1.0609
 9821TIP3    H150878   6.117   2.637   0.249 -4.4245  0.0939 -0.4771
 9821TIP3    H250879   6.045   2.582   0.371  0.9363 -0.3034  2.8119
 9822TIP3   OH250880   2.857   5.922   3.200  0.2421 -0.1149 -0.3936
 9822TIP3    H150881   2.921   5.992   3.215 -0.6155  0.2712  1.9098
 9822TIP3    H250882   2.777   5.968   3.175 -0.0967 -0.2878  0.3232
 9823TIP3   OH250883   4.380   2.964   1.977  0.1633  0.2367 -0.1208
 9823TIP3    H150884   4.339   2.968   2.063 -1.0030 -2.4293 -0.4548
 9823TIP3    H250885   4.349   2.881   1.939  3.9835 -0.8238 -1.3904
 9824TIP3   OH250886   3.595   1.097   2.108 -0.2488  0.3761  0.3294
 9824TIP3    H150887   3.608   1.095   2.013 -2.6253  0.9692 -0.0520
 9824TIP3    H250888   3.503   1.078   2.120  0.4241 -1.8722  2.6893
 9825TIP3   OH250889   3.340   1.076  15.674 -0.6073 -0.0495 -0.0150
 9825TIP3    H150890   3.258   1.069  15.722 -1.3604  1.0571 -1.0899
 9825TIP3    H250891   3.407   1.082  15.741 -1.4950 -0.0601  0.8865
 9826TIP3   OH250892   2.066   4.625  10.967 -0.4968  0.2345  0.1906
 9826TIP3    H150893   1.995   4.676  11.006 -2.2683 -1.7194 -0.3068
 9826TIP3    H250894   2.105   4.684  10.902 -1.8260  1.2950  0.3117
 9827TIP3   OH250895   3.570   4.442  11.958  0.2004 -0.4625  0.2787
 9827TIP3    H150896   3.522   4.433  11.876  1.0720 -0.8379 -0.2029
 9827TIP3    H250897   3.502   4.445  12.025 -0.5211 -0.2063 -0.4488
 9828TIP3   OH250898   3.594   3.356   5.560  0.0221  0.1095  0.5927
 9828TIP3    H150899   3.618   3.393   5.645  1.1186 -0.8530  0.7306
 9828TIP3    H250900   3.653   3.282   5.549 -0.9983 -0.5880 -0.4168
 9829TIP3   OH250901   5.485   2.847   2.168  0.4225 -0.6168 -0.1019
 9829TIP3    H150902   5.461   2.769   2.118 -1.9246 -0.6313  0.9361
 9829TIP3    H250903   5.455   2.920   2.113  0.3948 -0.5317  0.0260
 9830TIP3   OH250904   3.067   5.612   3.867 -0.6311  0.1594  0.1802
 9830TIP3    H150905   3.160   5.598   3.887 -0.1826  2.0572 -0.4083
 9830TIP3    H250906   3.035   5.525   3.842  0.5262 -0.8760  2.0970
 9831TIP3   OH250907   1.976   6.680   5.011  0.0239  0.2382 -0.4021
 9831TIP3    H150908   1.984   6.598   4.962  2.1252 -0.2644  0.6656
 9831TIP3    H250909   2.049   6.679   5.072 -0.6719  2.3192  0.5712
 9832TIP3   OH250910   4.055   2.077  14.067 -0.2649  0.5288 -0.1324
 9832TIP3    H150911   4.036   2.170  14.057 -1.8127  0.3795  1.0712
 9832TIP3    H250912   4.009   2.036  13.994  1.8948  0.7949 -1.7529
 9833TIP3   OH250913   1.554   6.698  11.236 -0.0742 -0.0450  0.4530
 9833TIP3    H150914   1.595   6.752  11.169  0.3426  1.5498  1.9109
 9833TIP3    H250915   1.464   6.684  11.205  0.0068  0.9523 -0.2673
 9834TIP3   OH250916   2.107   5.797   5.984 -0.1401  0.2943  0.1472
 9834TIP3    H150917   2.061   5.780   6.066  0.8528  0.7800  0.8176
 9834TIP3    H250918   2.111   5.711   5.941 -1.2048  0.1496  0.3100
 9835TIP3   OH250919   2.774   5.224   4.970  0.2977 -0.2288 -0.5486
 9835TIP3    H150920   2.828   5.272   5.034 -0.8209 -0.9527  1.0077
 9835TIP3    H250921   2.686   5.226   5.007 -0.1208 -1.8929 -1.3557
 9836TIP3   OH250922   2.224   2.432  16.088  0.4247 -0.0463 -0.2877
 9836TIP3    H150923   2.181   2.460  16.007 -0.3203 -1.3014 -0.3430
 9836TIP3    H250924   2.312   2.405  16.060  0.5345  0.5171 -0.5029
 9837TIP3   OH250925   2.235   1.022  14.576 -0.1172 -0.1749 -0.4766
 9837TIP3    H150926   2.246   1.007  14.669 -1.8811  0.0829 -0.1801
 9837TIP3    H250927   2.205   0.938  14.541 -0.8633  0.0983 -0.5235
 9838TIP3   OH250928   3.079   5.868   2.235  0.1611 -0.2068  0.5272
 9838TIP3    H150929   3.129   5.896   2.312  0.7741  2.1659 -0.6277
 9838TIP3    H250930   3.054   5.950   2.192 -1.2203 -1.4408 -1.1569
 9839TIP3   OH250931   4.499   1.862   2.381  0.2443  0.4473 -0.1318
 9839TIP3    H150932   4.512   1.890   2.290 -0.4145  0.4909 -0.2239
 9839TIP3    H250933   4.550   1.782   2.390  0.6256  0.6577 -0.4282
 9840TIP3   OH250934   1.431   3.149  17.003 -0.1841 -0.3704 -0.7107
 9840TIP3    H150935   1.389   3.194  16.930 -1.7116  0.2527  0.5050
 9840TIP3    H250936   1.365   3.087  17.034  0.4238 -0.5927  0.1602
 9841TIP3   OH250937   4.422   6.319   2.070  1.0969 -0.1958  0.4875
 9841TIP3    H150938   4.450   6.365   1.991  1.2939  0.0932  0.7241
 9841TIP3    H250939   4.336   6.283   2.048  1.2128 -0.2368  0.0952
 9842TIP3   OH250940   6.751   3.023  11.776  0.0758  0.4543 -0.7641
 9842TIP3    H150941   6.766   3.017  11.681 -0.0539 -0.1022 -0.7570
 9842TIP3    H250942   6.815   3.086  11.807 -0.5067  1.3623 -1.3572
 9843TIP3   OH250943   2.703   6.467   2.946 -0.7926  0.5524  0.4888
 9843TIP3    H150944   2.743   6.532   2.889 -1.6846  0.7186  0.0207
 9843TIP3    H250945   2.673   6.398   2.886  0.0146 -0.2213  0.9657
 9844TIP3   OH250946   4.109   6.277  14.554  0.5654  0.1683  0.6232
 9844TIP3    H150947   4.131   6.232  14.635  0.6428 -0.9340  0.0141
 9844TIP3    H250948   4.013   6.276  14.551  0.5635 -1.6697 -0.2682
 9845TIP3   OH250949   3.300   5.487  13.387  0.6597 -0.0311 -0.3887
 9845TIP3    H150950   3.245   5.563  13.369  0.7457  0.6066  1.7939
 9845TIP3    H250951   3.266   5.451  13.469  1.1350 -1.8884 -0.9642
 9846TIP3   OH250952   4.044   4.874   2.881  0.2180 -0.1346  0.0156
 9846TIP3    H150953   3.951   4.898   2.877  0.1898 -0.3954 -1.4055
 9846TIP3    H250954   4.044   4.779   2.875  0.5412 -0.2261  1.2164
 9847TIP3   OH250955   4.619   4.161  14.600 -0.6500 -0.6068 -0.4700
 9847TIP3    H150956   4.530   4.177  14.571 -0.3616 -0.2264 -1.1738
 9847TIP3    H250957   4.610   4.101  14.674 -1.5819  0.5593  0.4075
 9848TIP3   OH250958   5.932   0.868   1.626 -0.3955  0.0625 -0.6042
 9848TIP3    H150959   5.936   0.806   1.553 -0.7548 -0.3030 -0.3196
 9848TIP3    H250960   6.020   0.869   1.662 -0.7198 -1.4766  0.3538
 9849TIP3   OH250961   6.298   5.945   5.787  0.7069 -0.5652 -0.3238
 9849TIP3    H150962   6.260   5.974   5.705  1.9038 -1.5111 -1.2470
 9849TIP3    H250963   6.340   6.023   5.824  1.4301 -0.4426 -1.3549
 9850TIP3   OH250964   3.107   4.911   2.908  0.0646  0.6139  0.0163
 9850TIP3    H150965   3.147   4.921   2.822 -0.7353 -2.0997 -0.7611
 9850TIP3    H250966   3.174   4.867   2.960  0.6010  2.3743  0.8911
 9851TIP3   OH250967   2.440   2.908  10.767  0.5371 -0.6668 -0.0847
 9851TIP3    H150968   2.381   2.964  10.717  0.5899 -0.6538 -0.1323
 9851TIP3    H250969   2.383   2.863  10.830  0.6684  0.3082  0.7450
 9852TIP3   OH250970   0.203   0.733  16.849  0.2564 -0.2795  0.0073
 9852TIP3    H150971   0.177   0.658  16.796 -0.6920  0.4208 -0.5536
 9852TIP3    H250972   0.132   0.744  16.912  0.7291 -0.2753  0.5531
 9853TIP3   OH250973   3.159   3.619   4.824 -0.4972  0.0007  0.0363
 9853TIP3    H150974   3.243   3.651   4.791 -0.6247  1.7099  1.2204
 9853TIP3    H250975   3.172   3.525   4.836  1.4854  0.3224  0.8214
 9854TIP3   OH250976   6.119   5.847   3.732  0.6383 -0.2067 -0.4135
 9854TIP3    H150977   6.110   5.783   3.802  0.5169  1.5907  1.2877
 9854TIP3    H250978   6.060   5.817   3.663  1.5686 -2.5990 -0.2467
 9855TIP3   OH250979   3.360   6.441   5.285  0.3084 -0.1013  0.8200
 9855TIP3    H150980   3.432   6.465   5.227  0.7314 -2.3589  0.3405
 9855TIP3    H250981   3.403   6.422   5.369  0.6537 -3.4729 -0.0033
 9856TIP3   OH250982   6.315   5.456   2.197  0.0450  0.0408  0.2587
 9856TIP3    H150983   6.376   5.383   2.199 -0.0684 -0.0481  0.5694
 9856TIP3    H250984   6.312   5.483   2.105  1.2037  0.6055  0.3757
 9857TIP3   OH250985   2.592   3.063  15.523 -0.5509  0.1561  0.2057
 9857TIP3    H150986   2.606   3.096  15.612 -0.5499  1.4335 -0.2452
 9857TIP3    H250987   2.680   3.058  15.485 -0.4805 -1.0567  0.4788
 9858TIP3   OH250988   3.338   6.755  15.056 -0.3917 -0.5322 -0.4801
 9858TIP3    H150989   3.284   6.831  15.079  0.8473  0.1579  0.2131
 9858TIP3    H250990   3.275   6.683  15.048 -1.3814  0.1686  0.6713
 9859TIP3   OH250991   2.718   1.413   2.468  0.0342  0.4277 -0.3288
 9859TIP3    H150992   2.637   1.361   2.466  0.0720  0.3192  0.4063
 9859TIP3    H250993   2.754   1.405   2.380 -0.2603 -0.3263 -0.3894
 9860TIP3   OH250994   4.905   2.103   1.950 -0.1620  0.2062 -0.5700
 9860TIP3    H150995   4.898   2.106   2.045 -0.5252 -1.4722 -0.5000
 9860TIP3    H250996   4.882   2.191   1.920  1.2384  1.1405  0.9416
 9861TIP3   OH250997   0.297   3.532   1.460 -0.2941 -0.0530  0.0448
 9861TIP3    H150998   0.221   3.488   1.422 -1.6405  1.8654  0.3558
 9861TIP3    H250999   0.318   3.601   1.397 -1.1284  1.7266  1.6123
 9862TIP3   OH251000   4.635   5.554   3.696 -0.6629  0.3015  0.4244
 9862TIP3    H151001   4.595   5.497   3.762 -0.2891 -1.6749 -0.9826
 9862TIP3    H251002   4.560   5.589   3.647 -0.9982  2.3608  2.2199
 9863TIP3   OH251003   0.818   5.296  15.387  0.2607  0.3051  0.1109
 9863TIP3    H151004   0.771   5.345  15.319  0.6840 -0.1049 -0.4846
 9863TIP3    H251005   0.759   5.225  15.411  0.2590  0.2381 -0.0901
 9864TIP3   OH251006   4.734   3.285  11.994  0.7849 -0.2054 -0.0069
 9864TIP3    H151007   4.740   3.205  11.943 -1.2231 -0.9510  0.8465
 9864TIP3    H251008   4.721   3.354  11.929  1.4879 -0.6960 -0.6796
 9865TIP3   OH251009   6.469   6.258   4.964  0.3862 -0.8199 -0.0269
 9865TIP3    H151010   6.387   6.291   4.999  0.7401 -0.4988  0.5002
 9865TIP3    H251011   6.471   6.289   4.873  1.1598  1.4943  0.7014
 9866TIP3   OH251012   0.483   2.132  14.843  0.0388  0.0625  0.2512
 9866TIP3    H151013   0.477   2.210  14.898 -1.3447 -0.6257  1.1397
 9866TIP3    H251014   0.424   2.070  14.884  0.1631 -1.0281 -1.1575
 9867TIP3   OH251015   1.353   5.328   0.439  0.1385  0.0068 -0.2031
 9867TIP3    H151016   1.437   5.282   0.447  1.8149  2.7692 -0.3302
 9867TIP3    H251017   1.350   5.356   0.348 -0.6043  0.4554 -0.0468
 9868TIP3   OH251018   5.202   0.547   2.797  0.1314  0.4520  0.6218
 9868TIP3    H151019   5.200   0.608   2.871  1.1045  1.9241 -0.5255
 9868TIP3    H251020   5.258   0.588   2.732 -2.2257  0.1590 -1.7814
 9869TIP3   OH251021   4.063   3.951  13.124 -0.3580 -0.1826  0.0570
 9869TIP3    H151022   4.087   3.907  13.205  0.5711 -0.8488 -0.5663
 9869TIP3    H251023   3.981   3.910  13.098  0.1725 -1.1004 -0.1814
 9870TIP3   OH251024   4.024   2.744  12.764  0.4027  0.6493 -0.3747
 9870TIP3    H151025   3.939   2.760  12.807  0.1150 -0.4303 -0.4935
 9870TIP3    H251026   4.085   2.729  12.836  0.2735  0.4537 -0.3046
 9871TIP3   OH251027   1.062   1.754   3.987 -0.7687 -0.5123  0.1378
 9871TIP3    H151028   1.069   1.839   3.944 -0.1009 -0.4055  0.4478
 9871TIP3    H251029   1.077   1.773   4.080  1.8993 -1.2900 -0.0648
 9872TIP3   OH251030   3.979   2.886   3.628  0.1902  0.4348 -0.3487
 9872TIP3    H151031   3.956   2.844   3.545  0.5940  0.0767 -0.2864
 9872TIP3    H251032   3.902   2.937   3.652 -1.1597 -1.8953  0.5993
 9873TIP3   OH251033   1.564   5.685  15.600  0.2825  0.1829 -0.6599
 9873TIP3    H151034   1.608   5.663  15.683 -1.0799 -1.7595 -0.3848
 9873TIP3    H251035   1.633   5.678  15.534  0.9437 -0.3045  0.0586
 9874TIP3   OH251036   1.600   5.246   3.501  0.2030 -0.3635  0.3258
 9874TIP3    H151037   1.618   5.215   3.589  0.0074  1.9728  1.2574
 9874TIP3    H251038   1.643   5.331   3.496 -0.2866 -0.1797 -1.6309
 9875TIP3   OH251039   2.200   5.327  13.101  0.3201 -0.6349  0.8832
 9875TIP3    H151040   2.207   5.371  13.016  0.6035  0.7381  1.5876
 9875TIP3    H251041   2.141   5.253  13.085  0.6147 -0.5852 -0.5672
 9876TIP3   OH251042   6.380   1.519   0.384 -0.2674  0.2687 -0.3120
 9876TIP3    H151043   6.400   1.528   0.291  0.0027 -1.3851 -0.4431
 9876TIP3    H251044   6.315   1.449   0.388 -0.2299  0.2859  0.7451
 9877TIP3   OH251045   6.220   4.739  15.736  0.1686  0.1242 -0.2226
 9877TIP3    H151046   6.169   4.665  15.770  0.5904 -0.4370 -0.7834
 9877TIP3    H251047   6.294   4.698  15.691  1.8220  0.9076  1.6195
 9878TIP3   OH251048   3.641   4.538  12.291  0.4000  0.2757 -0.1933
 9878TIP3    H151049   3.652   4.632  12.307 -0.2073  0.2841  0.2260
 9878TIP3    H251050   3.703   4.496  12.351 -0.4332  0.3732  0.7594
 9879TIP3   OH251051   2.794   0.704  10.634 -0.5232  0.6204  0.2881
 9879TIP3    H151052   2.868   0.717  10.575 -0.1623 -1.9645  0.0425
 9879TIP3    H251053   2.829   0.721  10.721 -0.1463  1.1923  0.0254
 9880TIP3   OH251054   3.799   5.302   1.900 -0.3141  0.4335 -0.5150
 9880TIP3    H151055   3.851   5.231   1.863 -1.7824 -1.2371  0.4941
 9880TIP3    H251056   3.715   5.296   1.855 -0.6186  1.2589 -0.0785
 9881TIP3   OH251057   5.510   6.022   2.237 -0.4226  0.2998  0.0084
 9881TIP3    H151058   5.589   6.075   2.230 -0.7130  0.7502  0.0915
 9881TIP3    H251059   5.439   6.086   2.242 -0.7553 -0.0911  0.3652
 9882TIP3   OH251060   4.870   5.538   3.539  0.3178 -0.2348 -0.1530
 9882TIP3    H151061   4.791   5.543   3.593  0.3931  0.2575 -0.0788
 9882TIP3    H251062   4.873   5.622   3.493  0.6331 -0.3719 -0.3890
 9883TIP3   OH251063   3.147   5.806  16.073  0.3949 -0.0707  0.1277
 9883TIP3    H151064   3.147   5.744  16.147 -0.8296 -1.4870 -0.9849
 9883TIP3    H251065   3.233   5.796  16.033  0.5609 -0.3244  0.5408
 9884TIP3   OH251066   5.966   6.473  13.462 -0.7749 -0.0924 -0.4944
 9884TIP3    H151067   5.964   6.484  13.557 -0.1704  3.1084 -0.7583
 9884TIP3    H251068   6.013   6.390  13.448 -1.0491 -0.7186  1.9604
 9885TIP3   OH251069   2.789   3.691  10.730  0.0882  0.1000 -0.0212
 9885TIP3    H151070   2.850   3.694  10.657  0.6954  1.3626  0.5130
 9885TIP3    H251071   2.801   3.775  10.775 -1.2073 -0.1135  0.7659
 9886TIP3   OH251072   1.128   6.652   0.169  0.2091 -0.0190  0.4874
 9886TIP3    H151073   1.044   6.696   0.185 -0.4750 -1.2793  0.4482
 9886TIP3    H251074   1.153   6.618   0.255  0.4577 -0.0400  0.4058
 9887TIP3   OH251075   2.071   6.010   1.889 -0.2626  0.1207 -0.0882
 9887TIP3    H151076   2.061   5.927   1.844  0.8847 -0.0541 -0.0630
 9887TIP3    H251077   2.064   5.989   1.982 -0.2638  0.0925 -0.0949
 9888TIP3   OH251078   0.847   5.750   0.599 -0.7261 -0.0469  0.1954
 9888TIP3    H151079   0.814   5.691   0.531  3.1026 -1.9087 -0.3541
 9888TIP3    H251080   0.849   5.696   0.678  1.4271 -0.2713  0.0421
 9889TIP3   OH251081   2.728   3.289   2.493 -0.5263  0.2643 -0.0068
 9889TIP3    H151082   2.821   3.298   2.512 -0.7841  2.7295  0.4782
 9889TIP3    H251083   2.724   3.284   2.397  0.0350  4.0239 -0.4001
 9890TIP3   OH251084   3.903   2.427   1.409  0.4483 -0.2646 -0.0531
 9890TIP3    H151085   3.869   2.406   1.496 -0.3267 -0.2124 -0.3404
 9890TIP3    H251086   3.908   2.523   1.408 -3.4522  0.0783 -1.4615
 9891TIP3   OH251087   5.210   2.250  14.634  0.7715  0.3098 -0.1242
 9891TIP3    H151088   5.125   2.286  14.611  1.2979  1.0946 -0.9468
 9891TIP3    H251089   5.210   2.161  14.597  0.6593  0.6575 -0.9912
 9892TIP3   OH251090   1.372   3.306   0.756 -0.1012  0.5992  0.3454
 9892TIP3    H151091   1.356   3.294   0.850  1.9095 -3.0353  0.4050
 9892TIP3    H251092   1.461   3.341   0.752 -0.2036  0.7996 -0.2476
 9893TIP3   OH251093   2.523   6.027  11.315  0.0648 -0.9019  0.3938
 9893TIP3    H151094   2.455   6.092  11.293  1.3030  0.8260  1.3996
 9893TIP3    H251095   2.508   5.955  11.254 -0.3965  1.0350 -1.9397
 9894TIP3   OH251096   1.838   4.878   1.771 -0.1622  0.3179  0.5706
 9894TIP3    H151097   1.819   4.867   1.678 -0.5746  0.0145  0.6874
 9894TIP3    H251098   1.931   4.856   1.779 -0.3770 -0.7095  0.3954
 9895TIP3   OH251099   5.443   5.184  15.606  0.7973 -0.2942 -0.5198
 9895TIP3    H151100   5.528   5.166  15.648 -0.1115  0.4145  1.8211
 9895TIP3    H251101   5.462   5.255  15.544  2.1788 -1.2366 -1.2405
 9896TIP3   OH251102   6.270   1.216   1.489  0.4292  0.1306 -0.3994
 9896TIP3    H151103   6.185   1.222   1.447 -0.7148 -2.2571  1.3490
 9896TIP3    H251104   6.290   1.122   1.491  1.2156  0.2407  2.6317
 9897TIP3   OH251105   4.472   3.391   5.245  0.8938 -0.3302 -0.5247
 9897TIP3    H151106   4.497   3.457   5.310  1.4901  0.8005 -1.8707
 9897TIP3    H251107   4.521   3.313   5.271  1.6939  0.3143 -0.0362
 9898TIP3   OH251108   6.532   5.313  14.214 -0.4606  0.3310  0.3066
 9898TIP3    H151109   6.483   5.369  14.153  0.7841  1.3116  0.1809
 9898TIP3    H251110   6.618   5.354  14.220 -0.5894  0.3854  2.8889
 9899TIP3   OH251111   6.064   1.375  12.648 -0.1852 -0.4154  0.3957
 9899TIP3    H151112   6.023   1.302  12.695 -1.8682  1.8126  2.7012
 9899TIP3    H251113   5.991   1.433  12.627  1.0107  0.3176 -2.0114
 9900TIP3   OH251114   2.165   5.310   3.130 -0.1958 -0.3765 -0.6557
 9900TIP3    H151115   2.227   5.239   3.147  1.8134  1.3816 -0.1887
 9900TIP3    H251116   2.131   5.292   3.043  1.1631 -1.2948 -1.0309
 9901TIP3   OH251117   5.378   0.707  16.700  0.1560  0.2181 -0.3801
 9901TIP3    H151118   5.425   0.694  16.618  0.1653 -0.6371 -0.2482
 9901TIP3    H251119   5.286   0.712  16.675  0.1749  0.1430 -0.4631
 9902TIP3   OH251120   5.760   2.019   3.533  0.2594  0.0360  0.1701
 9902TIP3    H151121   5.757   2.099   3.585  1.4194  0.0465  0.2461
 9902TIP3    H251122   5.798   2.046   3.449 -0.8309 -0.1387 -0.4043
 9903TIP3   OH251123   0.247   6.586   3.704 -0.2066  0.0652 -0.1224
 9903TIP3    H151124   0.294   6.665   3.678 -0.4217 -0.5431 -2.6039
 9903TIP3    H251125   0.170   6.618   3.752  0.5815  1.2389  0.4198
 9904TIP3   OH251126   3.397   2.244   4.028  0.0695 -0.2187  0.3722
 9904TIP3    H151127   3.465   2.284   4.082  0.5419 -0.2776 -0.1678
 9904TIP3    H251128   3.366   2.314   3.970  2.6556 -1.1049 -2.3412
 9905TIP3   OH251129   2.016   2.767   5.966  0.2623 -0.1802  0.3867
 9905TIP3    H151130   2.032   2.698   6.030  0.2755 -0.9756 -0.4512
 9905TIP3    H251131   2.073   2.839   5.993  0.3293 -0.5318  1.2090
 9906TIP3   OH251132   3.856   2.137  11.936  0.8300 -0.1882  0.1765
 9906TIP3    H151133   3.829   2.062  11.883  0.3208  1.0031 -1.3400
 9906TIP3    H251134   3.773   2.176  11.967  0.9008  1.2973 -1.3484
 9907TIP3   OH251135   0.644   6.377  14.625  0.5811  0.4063 -0.0004
 9907TIP3    H151136   0.651   6.421  14.710  1.0510  0.3804 -0.0187
 9907TIP3    H251137   0.659   6.446  14.561  0.3228  0.4075 -0.0599
 9908TIP3   OH251138   0.975   2.947   2.859  0.3152  0.3763 -0.0999
 9908TIP3    H151139   0.957   3.006   2.932  0.0464 -1.7254  1.6377
 9908TIP3    H251140   0.921   2.980   2.787  0.2086  2.2100  0.7604
 9909TIP3   OH251141   6.257   1.681   4.671  0.0392 -0.4841  0.0859
 9909TIP3    H151142   6.242   1.644   4.584 -2.0474  1.8875 -0.6954
 9909TIP3    H251143   6.321   1.751   4.657 -1.6277  1.1064  0.0133
 9910TIP3   OH251144   2.262   5.281  13.801  0.3788 -0.8044  0.2069
 9910TIP3    H151145   2.237   5.250  13.714 -0.0585 -0.1078  0.0761
 9910TIP3    H251146   2.323   5.353  13.785 -0.8307  0.3119  0.4151
 9911TIP3   OH251147   2.393   0.036  13.296  0.3244  0.0482  0.2545
 9911TIP3    H151148   2.427   0.122  13.322  1.5090 -0.6109  0.9883
 9911TIP3    H251149   2.411   0.030  13.203 -0.0153  0.6908  0.1358
 9912TIP3   OH251150   3.143   0.944   0.986  0.3099  0.0396  0.6712
 9912TIP3    H151151   3.143   0.972   0.894 -1.6556  0.8716  0.8830
 9912TIP3    H251152   3.159   1.024   1.035  3.4729 -0.6925  1.0977
 9913TIP3   OH251153   1.901   4.121   3.777  0.5045 -0.1005 -0.5977
 9913TIP3    H151154   1.836   4.175   3.821  2.0141  0.8312  0.5613
 9913TIP3    H251155   1.943   4.180   3.715  3.2580  0.6655  1.7763
 9914TIP3   OH251156   5.372   6.517  16.019  0.0355  0.2405  0.2556
 9914TIP3    H151157   5.409   6.545  15.935 -1.5358  0.9399 -0.2389
 9914TIP3    H251158   5.305   6.453  15.996  0.9261 -1.0788  1.1409
 9915TIP3   OH251159   4.936   6.192   1.995  0.2539  0.4925  0.3882
 9915TIP3    H151160   4.926   6.132   2.069  0.8907 -1.2592 -0.9075
 9915TIP3    H251161   5.030   6.196   1.979  0.0912  0.4212 -0.6546
 9916TIP3   OH251162   0.858   4.199  15.540  0.2459  0.2592 -0.2491
 9916TIP3    H151163   0.834   4.291  15.547 -1.2601 -0.1128 -0.2396
 9916TIP3    H251164   0.802   4.165  15.470  0.7790 -0.6480 -0.2433
 9917TIP3   OH251165   5.497   1.075   3.057  0.3087  0.2344 -0.0039
 9917TIP3    H151166   5.408   1.098   3.031 -0.3088 -1.3545  0.5714
 9917TIP3    H251167   5.519   0.998   3.004  1.1369  0.2908  0.2416
 9918TIP3   OH251168   0.807   2.758  13.371  0.2780  0.2901  0.2599
 9918TIP3    H151169   0.896   2.794  13.381 -0.2972  1.7207  0.5747
 9918TIP3    H251170   0.766   2.773  13.456  0.0137 -1.2182  0.4127
 9919TIP3   OH251171   1.090   0.116   3.580 -0.0999  0.2246 -0.3147
 9919TIP3    H151172   1.089   0.206   3.547  0.3907  0.0292 -0.8775
 9919TIP3    H251173   1.147   0.069   3.520 -1.6110 -0.8307 -0.9753
 9920TIP3   OH251174   2.847   1.025   0.074 -0.1971 -0.7121  0.7470
 9920TIP3    H151175   2.804   0.974   0.005 -1.3274 -0.1383  1.0075
 9920TIP3    H251176   2.881   1.102   0.029 -1.7761  0.1467  0.9453
 9921TIP3   OH251177   3.038   2.095  15.913 -0.1352  0.0666 -0.3584
 9921TIP3    H151178   2.992   2.141  15.982  0.3531  1.6543 -1.0415
 9921TIP3    H251179   3.104   2.043  15.958 -0.9849 -0.3325  0.4583
 9922TIP3   OH251180   4.949   3.868   5.862  0.1106 -0.3428  0.3323
 9922TIP3    H151181   4.855   3.857   5.846 -0.1126  0.5737  0.9331
 9922TIP3    H251182   4.984   3.900   5.779  0.0019 -1.2479 -0.0721
 9923TIP3   OH251183   6.259   6.181  12.867 -0.4993 -0.3561  0.1723
 9923TIP3    H151184   6.227   6.258  12.915  1.0311 -0.9622  2.3128
 9923TIP3    H251185   6.236   6.107  12.923 -0.2879 -1.2887 -0.9502
 9924TIP3   OH251186   0.230   6.592   1.794 -0.3856  0.3207  0.6810
 9924TIP3    H151187   0.187   6.530   1.853 -0.8845  0.1699  0.1684
 9924TIP3    H251188   0.313   6.550   1.772 -1.2429 -0.7486 -0.6243
 9925TIP3   OH251189   3.151   5.067  13.355  0.7224  0.2202 -0.1661
 9925TIP3    H151190   3.233   5.116  13.345  0.8912  0.1362  0.7752
 9925TIP3    H251191   3.168   4.983  13.312  0.6620  0.6997 -1.1729
 9926TIP3   OH251192   4.885   2.241  17.190  0.7317  0.0301  0.1188
 9926TIP3    H151193   4.958   2.198  17.146  0.0092 -0.3334 -0.7486
 9926TIP3    H251194   4.914   2.332  17.200  0.6172  0.3389 -1.8838
 9927TIP3   OH251195   6.591   2.259  17.142  0.0679  0.3829 -0.6462
 9927TIP3    H151196   6.534   2.336  17.145  0.6542  0.8628 -1.3583
 9927TIP3    H251197   6.542   2.196  17.088  0.3063  0.8815 -1.4560
 9928TIP3   OH251198   4.320   0.836   4.633 -0.6489 -0.2628 -0.7873
 9928TIP3    H151199   4.272   0.919   4.631 -3.8541 -1.9376 -1.6237
 9928TIP3    H251200   4.268   0.777   4.578  2.7124 -2.2846 -2.1256
 9929TIP3   OH251201   1.766   5.412  15.165 -0.3659 -0.4841 -0.0738
 9929TIP3    H151202   1.807   5.348  15.223  1.3139  0.8896  0.3249
 9929TIP3    H251203   1.674   5.386  15.162 -0.4117 -0.9909  2.7386
 9930TIP3   OH251204   6.674   4.922  16.256 -0.0504 -0.1336  0.3921
 9930TIP3    H151205   6.697   5.005  16.298  0.9134 -0.1676 -0.0433
 9930TIP3    H251206   6.674   4.941  16.162  2.5840 -1.1269  0.0974
 9931TIP3   OH251207   2.144   3.900   5.565  0.2543  0.1460 -0.1393
 9931TIP3    H151208   2.112   3.988   5.544 -0.2886 -0.0989 -0.3499
 9931TIP3    H251209   2.204   3.914   5.639 -0.5993  0.5874  0.4981
 9932TIP3   OH251210   3.607   5.370  16.376  0.2354 -0.1131  0.1124
 9932TIP3    H151211   3.664   5.392  16.449  0.0013 -0.6785  0.4711
 9932TIP3    H251212   3.644   5.289  16.340  1.4670  1.1254 -1.5898
 9933TIP3   OH251213   3.550   3.788   5.401  0.4750 -0.7113  0.0060
 9933TIP3    H151214   3.526   3.845   5.474 -0.3146 -0.6510 -0.2896
 9933TIP3    H251215   3.632   3.824   5.368  1.7635 -1.7147  1.8944
 9934TIP3   OH251216   3.019   6.464   0.323 -0.2209 -0.1574 -0.3470
 9934TIP3    H151217   2.948   6.487   0.263  0.4546 -0.5520 -1.3149
 9934TIP3    H251218   3.029   6.541   0.379 -0.1513  0.6473 -1.4404
 9935TIP3   OH251219   1.092   1.453   1.601  0.0643 -0.4776  0.0417
 9935TIP3    H151220   1.018   1.401   1.569 -2.2233  0.5196  3.1761
 9935TIP3    H251221   1.127   1.402   1.674 -0.4569  1.0384  1.4103
 9936TIP3   OH251222   4.220   4.637   2.280 -0.2869  0.0849  0.0000
 9936TIP3    H151223   4.182   4.708   2.227 -3.1214 -1.5286 -0.3363
 9936TIP3    H251224   4.166   4.636   2.359 -0.9754 -2.2773 -0.4395
 9937TIP3   OH251225   3.075   1.935  14.369 -0.0024  0.3951 -0.2875
 9937TIP3    H151226   3.099   1.954  14.279 -1.2787  1.4553 -0.4271
 9937TIP3    H251227   3.138   1.868  14.397  1.1357  0.8908 -1.5763
 9938TIP3   OH251228   6.784   2.191   5.333  0.3111 -0.2070  0.0745
 9938TIP3    H151229   6.840   2.119   5.304 -0.1132 -0.1966 -0.7664
 9938TIP3    H251230   6.710   2.149   5.376  1.1172 -0.2152  1.5251
 9939TIP3   OH251231   2.979   1.834   6.178  0.4087  0.2083  0.0406
 9939TIP3    H151232   2.982   1.905   6.242 -0.3399 -0.5887  1.0077
 9939TIP3    H251233   2.894   1.845   6.135  0.6813  0.4253 -0.4461
 9940TIP3   OH251234   3.104   2.398   3.127  0.2887 -0.0080  0.4769
 9940TIP3    H151235   3.198   2.403   3.109  0.4526  0.8891  1.4850
 9940TIP3    H251236   3.098   2.403   3.222 -0.7306 -1.1439  0.4958
 9941TIP3   OH251237   1.046   1.424  16.777  0.5154 -0.1068  0.1796
 9941TIP3    H151238   1.080   1.353  16.832  1.2142  0.2295  0.1974
 9941TIP3    H251239   1.112   1.434  16.709  0.4608  0.5794  0.2265
 9942TIP3   OH251240   2.225   0.182   5.299  0.1152  0.0033  0.3198
 9942TIP3    H151241   2.261   0.178   5.387  0.4608  0.5489  0.2099
 9942TIP3    H251242   2.140   0.139   5.305  0.4037 -0.5157  0.7778
 9943TIP3   OH251243   5.829   1.481   1.078  0.1018 -0.3182 -0.0306
 9943TIP3    H151244   5.920   1.510   1.081  0.3773 -1.0631 -0.7968
 9943TIP3    H251245   5.779   1.560   1.058  0.7230 -0.1545 -1.0099
 9944TIP3   OH251246   0.042   5.357  12.212  0.2705  0.3307 -0.6493
 9944TIP3    H151247   0.070   5.269  12.190 -0.2946 -0.3474  1.1670
 9944TIP3    H251248   0.122   5.410  12.209  0.9471 -0.6336  0.0807
 9945TIP3   OH251249   2.269   2.365   4.864 -0.2646 -0.0348 -0.1360
 9945TIP3    H151250   2.230   2.293   4.815 -2.0769 -0.0299  1.1717
 9945TIP3    H251251   2.323   2.323   4.930  0.1464 -0.1178 -0.5196
 9946TIP3   OH251252   2.300   4.551   0.987  0.2301 -0.6540 -0.0614
 9946TIP3    H151253   2.348   4.469   1.001  1.3155  0.0949  0.7728
 9946TIP3    H251254   2.208   4.526   0.990  0.4792 -1.5738  2.2516
 9947TIP3   OH251255   5.996   3.043  15.119 -0.5155 -0.2106 -0.5103
 9947TIP3    H151256   5.979   3.016  15.029 -0.4366 -1.4312 -0.1783
 9947TIP3    H251257   5.969   3.135  15.122 -0.3643 -0.1050 -1.8150
 9948TIP3   OH251258   0.497   6.346   0.557  1.0627 -0.3519 -0.2267
 9948TIP3    H151259   0.562   6.396   0.606  1.3776 -1.2865  0.3339
 9948TIP3    H251260   0.416   6.355   0.607  1.3519 -1.1942  0.4331
 9949TIP3   OH251261   4.614   3.269   4.696  0.3686  0.0949 -0.1388
 9949TIP3    H151262   4.625   3.216   4.775 -1.3634  2.5384  1.9275
 9949TIP3    H251263   4.643   3.212   4.625  3.4548 -1.7626  2.3112
 9950TIP3   OH251264   0.002   2.544   1.624  0.4142 -0.1541 -0.0561
 9950TIP3    H151265   0.058   2.584   1.691 -1.3453  1.3631  0.5978
 9950TIP3    H251266  -0.044   2.473   1.670 -1.1113  1.1599  0.5258
 9951TIP3   OH251267   3.277   6.553  14.496 -0.4245 -0.2105 -0.0290
 9951TIP3    H151268   3.190   6.547  14.459 -0.5021 -0.2948  0.1635
 9951TIP3    H251269   3.262   6.577  14.588 -0.2057  0.8299 -0.2560
 9952TIP3   OH251270   2.152   1.844  12.137 -0.2656 -1.2956  0.0617
 9952TIP3    H151271   2.065   1.804  12.126 -0.0234 -2.1580  1.0504
 9952TIP3    H251272   2.197   1.785  12.198  0.6133 -0.2451  0.4483
 9953TIP3   OH251273   2.053   0.938   2.673 -0.1925  0.5729 -0.0907
 9953TIP3    H151274   2.025   0.972   2.588 -0.1294  1.3075  0.1798
 9953TIP3    H251275   2.067   0.844   2.658 -3.1189  0.0718 -0.1484
 9954TIP3   OH251276   2.864   1.787  12.009 -0.6629 -0.3621  0.6872
 9954TIP3    H151277   2.843   1.876  12.039 -0.6709 -1.0421  2.8920
 9954TIP3    H251278   2.947   1.766  12.053  0.4848 -0.7010 -1.5017
 9955TIP3   OH251279   2.246   1.607  14.114 -0.3120  1.1413  0.0992
 9955TIP3    H151280   2.292   1.610  14.198  0.8655 -0.7213 -0.4345
 9955TIP3    H251281   2.179   1.540  14.127 -0.6837  1.4491 -0.2055
 9956TIP3   OH251282   5.223   6.325   1.352 -0.0013 -0.1376 -0.1677
 9956TIP3    H151283   5.138   6.301   1.388  0.4640 -0.3072  0.8417
 9956TIP3    H251284   5.202   6.376   1.274 -1.0217 -0.6614 -0.2548
 9957TIP3   OH251285   4.075   5.744   0.612 -0.0600  0.3049  0.2049
 9957TIP3    H151286   4.141   5.679   0.635 -0.6301 -0.3401  0.0642
 9957TIP3    H251287   4.106   5.781   0.530 -0.6937 -1.1984 -0.7599
 9958TIP3   OH251288   6.168   1.364   0.353  0.0891  0.3055  0.3158
 9958TIP3    H151289   6.124   1.336   0.433 -0.2275  0.3700  0.1655
 9958TIP3    H251290   6.153   1.293   0.291  2.1347 -0.7487  0.9309
 9959TIP3   OH251291   2.360   4.654   1.436  0.2362  0.1477  0.4010
 9959TIP3    H151292   2.341   4.733   1.386  2.4165  0.6640  0.2753
 9959TIP3    H251293   2.437   4.616   1.393 -0.3557 -1.7058  0.8622
 9960TIP3   OH251294   4.587   6.210  14.851  0.0397 -0.1397 -0.0246
 9960TIP3    H151295   4.616   6.122  14.875  3.6231  0.7547 -0.4413
 9960TIP3    H251296   4.585   6.259  14.933  1.6383  0.2313 -0.1764
 9961TIP3   OH251297   4.094   6.629   2.193 -0.3366  0.1240 -0.6343
 9961TIP3    H151298   4.085   6.720   2.163  0.5442  0.4849  0.1382
 9961TIP3    H251299   4.023   6.582   2.149  0.2851  0.8073 -2.4795
 9962TIP3   OH251300   4.912   3.132   4.679 -0.7031 -0.5758  0.2153
 9962TIP3    H151301   4.869   3.066   4.625 -0.0917 -1.4609  0.7907
 9962TIP3    H251302   4.998   3.096   4.698  0.5580  1.3879 -1.3526
 9963TIP3   OH251303   4.318   2.467  12.943 -0.1437 -0.2161  0.4004
 9963TIP3    H151304   4.356   2.451  13.029 -1.4529 -1.0069  0.8539
 9963TIP3    H251305   4.275   2.551  12.950  0.2675  0.0043  0.3227
 9964TIP3   OH251306   3.911   3.034  10.610 -0.4163  0.0819  0.2538
 9964TIP3    H151307   3.874   2.963  10.556 -0.2226  1.0228 -1.1695
 9964TIP3    H251308   3.835   3.075  10.651 -1.0703  1.9001 -2.5271
 9965TIP3   OH251309   4.946   4.053  16.739 -0.7683  0.6141  0.5872
 9965TIP3    H151310   4.882   4.004  16.791  0.2495 -0.5437  0.7828
 9965TIP3    H251311   4.924   4.030  16.648  0.0956 -0.7640  0.6958
 9966TIP3   OH251312   5.676   0.542   3.065 -0.3362  0.2200 -0.6995
 9966TIP3    H151313   5.656   0.607   3.132 -1.3394  1.8860 -2.4833
 9966TIP3    H251314   5.759   0.573   3.027 -0.3259 -0.0966 -0.9349
 9967TIP3   OH251315   4.307   1.897   4.991  0.1170  0.2481 -0.3361
 9967TIP3    H151316   4.362   1.933   5.061  0.2524 -1.0912  0.2802
 9967TIP3    H251317   4.266   1.974   4.951  0.4614  1.0880  0.8503
 9968TIP3   OH251318   1.962   2.365   3.359 -0.2569  0.6391 -0.4197
 9968TIP3    H151319   1.948   2.444   3.409 -2.1664  1.3480 -1.9393
 9968TIP3    H251320   1.890   2.363   3.295  1.0534 -1.0738 -1.9862
 9969TIP3   OH251321   2.795   4.589  13.735  0.3115  0.1060  0.6679
 9969TIP3    H151322   2.876   4.555  13.696 -0.5398 -1.6408  0.3453
 9969TIP3    H251323   2.825   4.655  13.797  1.9456 -0.0400  0.0986
 9970TIP3   OH251324   4.654   3.407   4.476  0.6200 -0.3502 -0.0795
 9970TIP3    H151325   4.602   3.404   4.556 -0.4150 -0.7133 -0.7422
 9970TIP3    H251326   4.592   3.386   4.406  1.0707  1.6515 -1.1748
 9971TIP3   OH251327   4.782   6.372   1.695  0.0546 -0.3227 -0.1937
 9971TIP3    H151328   4.784   6.442   1.630 -2.0129 -0.3467 -0.3542
 9971TIP3    H251329   4.703   6.389   1.746 -0.7263 -2.7247 -0.4781
 9972TIP3   OH251330   2.757   6.707   5.067 -0.5359 -0.4269  0.4361
 9972TIP3    H151331   2.705   6.778   5.031  0.8077  0.7928  0.8300
 9972TIP3    H251332   2.700   6.630   5.060 -1.8755  0.5930 -0.3420
 9973TIP3   OH251333   6.455   4.019   3.976  0.1262  0.0648  0.3136
 9973TIP3    H151334   6.376   3.968   3.995 -1.0075  1.3088 -0.7774
 9973TIP3    H251335   6.485   3.986   3.892  0.3065  0.1289  0.3531
 9974TIP3   OH251336   1.719   3.883   5.938 -0.2941  0.3293  0.4040
 9974TIP3    H151337   1.639   3.929   5.913  0.4551  1.7729  0.5202
 9974TIP3    H251338   1.781   3.953   5.960  0.7747 -0.7610  1.0263
 9975TIP3   OH251339   3.925   3.448   2.352 -0.1625 -0.2604  1.5789
 9975TIP3    H151340   3.910   3.370   2.406 -0.2000 -1.5591 -0.2293
 9975TIP3    H251341   3.863   3.440   2.280  1.5383  0.1012 -0.0022
 9976TIP3   OH251342   1.157   2.979   4.891  0.1891  0.2272 -0.8210
 9976TIP3    H151343   1.184   3.044   4.826 -0.3158  1.5778  0.2897
 9976TIP3    H251344   1.183   3.016   4.975  0.4830 -1.3170 -0.1888
 9977TIP3   OH251345   3.773   0.620   4.480 -0.3615 -0.3502 -0.4294
 9977TIP3    H151346   3.716   0.621   4.557  0.9639  1.0709  0.5942
 9977TIP3    H251347   3.713   0.626   4.406 -1.5725  1.8030  0.6099
 9978TIP3   OH251348   5.031   1.739  15.920 -0.5120 -0.6195  0.0927
 9978TIP3    H151349   4.966   1.806  15.899 -0.2838 -0.9892 -2.0659
 9978TIP3    H251350   5.083   1.777  15.990 -0.7438  1.2414 -0.6828
 9979TIP3   OH251351   4.708   5.259   0.674 -0.2899  0.5264 -0.2699
 9979TIP3    H151352   4.635   5.289   0.729 -1.2599  0.2453 -1.3711
 9979TIP3    H251353   4.784   5.259   0.733 -0.8261  2.3987  0.4868
 9980TIP3   OH251354   2.869   2.433  12.605  0.0391 -0.1839  0.0029
 9980TIP3    H151355   2.797   2.431  12.668  0.2712  1.0236  0.3291
 9980TIP3    H251356   2.856   2.515  12.557  1.1567  0.0175  0.0275
 9981TIP3   OH251357   0.588   2.739   4.133 -0.1188 -0.9284 -0.2899
 9981TIP3    H151358   0.649   2.792   4.185 -1.6949  0.8395 -0.1257
 9981TIP3    H251359   0.549   2.679   4.196 -0.6573 -0.0746  0.1990
 9982TIP3   OH251360   1.212   0.087  14.467  0.0802 -0.0939 -0.0181
 9982TIP3    H151361   1.291   0.140  14.459 -0.7121  1.2393  0.6982
 9982TIP3    H251362   1.206   0.040  14.384  1.1649  0.4194 -0.4047
 9983TIP3   OH251363   0.889   0.144   4.276  0.0572 -0.2671  0.1404
 9983TIP3    H151364   0.902   0.231   4.238  0.2784 -0.5186 -0.3682
 9983TIP3    H251365   0.967   0.095   4.250  1.3628  0.1920  2.8156
 9984TIP3   OH251366   4.836   1.750  14.411 -0.7946 -0.0137  0.1732
 9984TIP3    H151367   4.895   1.703  14.352  0.5701  0.6331  0.9824
 9984TIP3    H251368   4.803   1.824  14.359 -2.6303 -1.5291 -0.9723
 9985TIP3   OH251369   4.687   6.766  14.212  0.1745  0.0274  0.9310
 9985TIP3    H151370   4.665   6.687  14.163 -0.1328 -0.9176  2.4992
 9985TIP3    H251371   4.610   6.782  14.267 -0.2769  2.1567 -0.2081
 9986TIP3   OH251372   4.433   6.462   4.720  0.3188  0.4812  1.2031
 9986TIP3    H151373   4.404   6.500   4.637 -0.9365  2.0740  2.3193
 9986TIP3    H251374   4.433   6.368   4.704 -1.2834  0.6720 -0.2060
 9987TIP3   OH251375   3.092   6.038   3.350 -0.6107  0.0206 -0.5786
 9987TIP3    H151376   3.041   5.994   3.418  0.6365  1.1018  1.1447
 9987TIP3    H251377   3.148   5.969   3.313 -0.1131 -0.2746  0.6794
 9988TIP3   OH251378   4.274   6.758   2.924  0.4850  0.7149 -0.7599
 9988TIP3    H151379   4.271   6.678   2.871 -0.9085 -0.4320  0.9665
 9988TIP3    H251380   4.364   6.789   2.915  1.5240 -1.9180 -0.2396
 9989TIP3   OH251381   1.838   6.505   0.895  0.1171 -0.1913  0.0338
 9989TIP3    H151382   1.826   6.567   0.967  0.2574  1.4750 -1.2993
 9989TIP3    H251383   1.929   6.477   0.902 -0.1819 -0.9584  1.1576
 9990TIP3   OH251384   3.916   1.389  17.018 -0.5342  0.4077  0.1362
 9990TIP3    H151385   4.000   1.351  16.994 -0.3987  1.0096 -0.3785
 9990TIP3    H251386   3.906   1.370  17.111 -0.6206 -1.1412 -0.1633
 9991TIP3   OH251387   6.203   1.084  15.296 -0.4645 -0.1730 -1.0053
 9991TIP3    H151388   6.187   1.166  15.248  0.4673 -0.4049 -1.7240
 9991TIP3    H251389   6.140   1.022  15.259 -0.7300  0.0314 -0.9066
 9992TIP3   OH251390   5.133   3.094  13.470  0.2845 -0.6406  0.0895
 9992TIP3    H151391   5.212   3.057  13.509 -0.6584 -1.1920  1.5178
 9992TIP3    H251392   5.079   3.018  13.447 -0.7345 -0.2298  1.0599
 9993TIP3   OH251393   3.982   5.521   5.909  0.0013 -0.2149 -0.1601
 9993TIP3    H151394   3.951   5.465   5.838 -0.6979 -0.2037  0.1286
 9993TIP3    H251395   4.052   5.471   5.951 -1.2090 -1.2924  0.6599
 9994TIP3   OH251396   4.928   6.235  15.710  0.2489 -1.1441  0.1064
 9994TIP3    H151397   4.930   6.330  15.704 -2.0921 -1.0214  0.4784
 9994TIP3    H251398   4.892   6.206  15.626  0.7196 -1.7104  0.0892
 9995TIP3   OH251399   1.290   5.600   3.044  0.1587  0.0471 -0.3370
 9995TIP3    H151400   1.270   5.529   2.983 -1.8869 -0.5869  0.9698
 9995TIP3    H251401   1.269   5.564   3.130  0.9325  1.6143  0.5498
 9996TIP3   OH251402   4.908   0.012   0.066  0.1929  0.1486 -0.3562
 9996TIP3    H151403   4.946   0.078   0.124  0.1897 -1.0193  1.0344
 9996TIP3    H251404   4.893   0.058  -0.016  1.1579  1.5974  0.2402
 9997TIP3   OH251405   2.013   4.151   5.119  0.4763 -0.3622  0.4105
 9997TIP3    H151406   2.001   4.225   5.179 -1.7166 -0.2664 -0.0528
 9997TIP3    H251407   2.107   4.132   5.122  0.9897  1.9900  1.0592
 9998TIP3   OH251408   2.859   6.491   2.393  0.1925 -0.2993  0.9441
 9998TIP3    H151409   2.832   6.566   2.340 -3.3433 -1.6476  0.6059
 9998TIP3    H251410   2.893   6.428   2.329  1.7082  0.3506  1.0633
 9999TIP3   OH251411   1.406   4.680   0.818  0.7261 -0.1429 -0.5440
 9999TIP3    H151412   1.363   4.692   0.734  1.6094  0.4256 -0.9356
 9999TIP3    H251413   1.445   4.592   0.813  3.9185  1.2060 -2.2679
10000TIP3   OH251414   0.471   5.888  15.063  1.3386  0.4038 -0.5139
10000TIP3    H151415   0.475   5.946  14.987 -0.0613 -0.8027 -1.5562
10000TIP3    H251416   0.471   5.947  15.138 -0.5625  1.8100 -1.5390
10001TIP3   OH251417   1.590   1.095  12.298  0.1450  0.1421  0.1378
10001TIP3    H151418   1.624   1.130  12.381 -0.7312  2.0151 -0.2392
10001TIP3    H251419   1.495   1.099  12.308  0.0119 -1.5660 -0.2122
10002TIP3   OH251420   5.544   3.021   4.250  0.1320 -0.2905 -0.0945
10002TIP3    H151421   5.521   2.944   4.198  1.3227 -1.7389  1.3870
10002TIP3    H251422   5.506   3.003   4.336  1.6263  0.0845  0.6797
10003TIP3   OH251423   6.110   0.201   5.108 -0.0061  0.2806  0.0246
10003TIP3    H151424   6.074   0.196   5.019 -0.5294  2.5892  0.0223
10003TIP3    H251425   6.174   0.131   5.113 -2.5228 -2.2790 -0.9249
10004TIP3   OH251426   3.398   5.206   2.948 -0.8385 -0.3685 -0.0402
10004TIP3    H151427   3.384   5.208   3.042 -0.0589  0.5725  0.0669
10004TIP3    H251428   3.491   5.187   2.937 -0.6678  0.7117 -0.5874
10005TIP3   OH251429   4.157   1.091   1.933  0.1231  0.3451 -0.0017
10005TIP3    H151430   4.098   1.140   1.990  1.3287  1.9384 -0.0506
10005TIP3    H251431   4.167   1.006   1.976 -1.8413  0.1888  0.2170
10006TIP3   OH251432   2.854   0.635   2.083 -0.3506  0.3285  0.5479
10006TIP3    H151433   2.863   0.593   1.998 -0.6576 -1.1730  1.2235
10006TIP3    H251434   2.825   0.565   2.142  0.0652  1.2663  1.9362
10007TIP3   OH251435   6.715   0.226   0.437  0.4929 -0.0430 -0.2705
10007TIP3    H151436   6.661   0.147   0.443 -0.4515  0.4836 -1.3449
10007TIP3    H251437   6.695   0.274   0.518  0.2368 -0.3906 -0.1229
10008TIP3   OH251438   0.305   6.614   5.348  0.1041  0.4962 -0.0772
10008TIP3    H151439   0.349   6.607   5.264 -0.4560 -1.1892 -0.2710
10008TIP3    H251440   0.277   6.524   5.368  0.5014  0.7837  2.0547
10009TIP3   OH251441   3.187   4.815   5.737 -0.2103 -0.4452 -0.1432
10009TIP3    H151442   3.170   4.879   5.668 -1.3402 -1.6205 -1.0039
10009TIP3    H251443   3.155   4.857   5.817  2.8141  1.7128  0.1046
10010TIP3   OH251444   1.957   1.140   1.779 -0.6067 -0.0265 -0.1447
10010TIP3    H151445   1.998   1.184   1.854  1.4207  1.1088 -1.7897
10010TIP3    H251446   1.988   1.049   1.785  1.5636  0.6085 -0.8529
10011TIP3   OH251447   0.183   2.611   5.465 -0.3668 -0.4570  0.0417
10011TIP3    H151448   0.157   2.595   5.556 -2.4904 -0.2447 -0.4765
10011TIP3    H251449   0.214   2.702   5.464  0.4852 -0.7322  0.7025
10012TIP3   OH251450   0.751   6.301   3.720 -0.3298 -0.3091  0.0616
10012TIP3    H151451   0.670   6.256   3.698 -0.1541 -0.6650  0.1450
10012TIP3    H251452   0.728   6.394   3.718 -0.6599 -0.3967 -0.2318
10013TIP3   OH251453   6.678   5.428   2.909 -0.0100  0.2617  0.6628
10013TIP3    H151454   6.745   5.409   2.843  0.0115 -1.8141  1.2099
10013TIP3    H251455   6.718   5.496   2.964  1.6048 -0.7985  0.8752
10014TIP3   OH251456   1.889   6.198   1.266 -0.5571 -0.2596  0.3730
10014TIP3    H151457   1.883   6.290   1.291 -1.6627 -0.3294  0.4169
10014TIP3    H251458   1.962   6.194   1.205 -0.6202  0.6732  0.2248
10015TIP3   OH251459   0.353   1.940  16.901 -0.5326  0.3226 -0.0843
10015TIP3    H151460   0.278   1.883  16.886  1.6608 -2.6038 -0.8311
10015TIP3    H251461   0.351   1.959  16.995 -1.5905 -0.6087  0.1017
10016TIP3   OH251462   0.305   1.598   0.412  0.4325  0.1559 -0.1382
10016TIP3    H151463   0.259   1.542   0.475  0.1960  2.6829  2.1158
10016TIP3    H251464   0.395   1.566   0.413  0.0118 -1.0682 -0.0207
10017TIP3   OH251465   2.554   4.307   2.272 -0.2662  0.4235  0.4918
10017TIP3    H151466   2.466   4.339   2.252 -0.1909 -0.2224 -0.9905
10017TIP3    H251467   2.540   4.242   2.342 -0.9089  0.6507  0.5816
10018TIP3   OH251468   3.755   0.232  13.811 -0.1210 -0.0979  0.3997
10018TIP3    H151469   3.777   0.183  13.732 -1.6033  0.6505 -0.5126
10018TIP3    H251470   3.760   0.167  13.882 -0.8471 -1.2812 -0.6046
10019TIP3   OH251471   2.101   1.885  17.202 -0.0427 -0.4013 -0.5635
10019TIP3    H151472   2.111   1.893  17.297 -0.3198  1.2697 -0.6374
10019TIP3    H251473   2.068   1.971  17.175  0.3293 -0.7522 -2.2108
10020TIP3   OH251474   2.829   5.604   0.776  0.6950  0.0201 -0.4061
10020TIP3    H151475   2.816   5.509   0.775 -0.8145  0.2057 -0.5577
10020TIP3    H251476   2.910   5.616   0.824 -0.4555 -1.2166  2.0416
10021TIP3   OH251477   1.160   4.662   5.061 -0.5624  0.4370 -1.2493
10021TIP3    H151478   1.149   4.595   4.993  0.2258 -0.2159 -0.7628
10021TIP3    H251479   1.123   4.622   5.140 -0.9276  0.9457 -1.1618
10022TIP3   OH251480   0.105   3.343  14.830  0.2631 -0.0756 -0.0125
10022TIP3    H151481   0.101   3.346  14.735 -3.1268 -0.0577  0.0094
10022TIP3    H251482   0.035   3.283  14.855 -0.5008  1.6902  2.4976
10023TIP3   OH251483   2.248   5.892   2.481  0.4586 -0.2115  0.0238
10023TIP3    H151484   2.265   5.928   2.568  2.8389 -0.8707 -0.0996
10023TIP3    H251485   2.333   5.860   2.452 -0.4847 -0.8687 -2.1677
10024TIP3   OH251486   1.322   1.485   6.378 -0.3502 -0.1087  0.4999
10024TIP3    H151487   1.331   1.493   6.283 -0.8615  1.6513  0.5708
10024TIP3    H251488   1.232   1.454   6.391 -0.6282  0.6676  0.4403
10025TIP3   OH251489   6.681   3.594  15.120  0.1278  0.3994  0.0669
10025TIP3    H151490   6.682   3.622  15.211 -0.1183  2.0540 -0.3970
10025TIP3    H251491   6.761   3.632  15.082 -0.4149  0.8159 -0.6895
10026TIP3   OH251492   4.821   6.330  12.423  0.7606  0.5084 -0.3869
10026TIP3    H151493   4.838   6.262  12.489  2.1074  1.9266  0.8081
10026TIP3    H251494   4.779   6.283  12.351 -0.7731 -1.1159  1.4628
10027TIP3   OH251495   1.856   6.448  11.511  0.2795 -0.6058  0.4645
10027TIP3    H151496   1.906   6.447  11.429  1.0131  1.1099  0.8452
10027TIP3    H251497   1.765   6.461  11.483  0.4738 -0.4286 -0.1028
10028TIP3   OH251498   0.641   3.361   2.506 -0.6810  0.7239  0.3202
10028TIP3    H151499   0.637   3.427   2.437 -2.1457  1.1028  0.7165
10028TIP3    H251500   0.550   3.334   2.518 -0.2322 -0.6439  0.8708
10029TIP3   OH251501   3.672   4.020  15.082  0.0578 -0.0159  0.5260
10029TIP3    H151502   3.722   4.089  15.125 -1.3801  1.9975 -0.8204
10029TIP3    H251503   3.667   4.047  14.990 -0.0616 -2.2516 -0.2024
10030TIP3   OH251504   2.052   0.907   3.447  0.3051  0.0410 -0.3371
10030TIP3    H151505   2.121   0.890   3.510  0.1441  0.5132 -0.0263
10030TIP3    H251506   2.096   0.949   3.374  0.4542 -0.2904 -0.4395
10031TIP3   OH251507   0.823   4.141  13.694 -0.4228 -0.1702  0.3300
10031TIP3    H151508   0.759   4.112  13.628  0.8900 -0.4714 -0.8460
10031TIP3    H251509   0.897   4.081  13.684  0.3046  0.5410  1.2617
10032TIP3   OH251510   2.928   4.454   0.039 -0.5792 -0.2924  0.3967
10032TIP3    H151511   2.915   4.529  -0.019  0.1018 -0.7929 -0.4328
10032TIP3    H251512   2.969   4.388  -0.017 -1.0605 -1.2417  1.1421
10033TIP3   OH251513   5.683   6.492  15.337  0.3231 -0.4675 -0.6230
10033TIP3    H151514   5.707   6.550  15.264 -1.0496  0.8657 -0.0682
10033TIP3    H251515   5.588   6.482  15.328  0.0646  0.0859  1.2136
10034TIP3   OH251516   3.670   4.062   1.062  0.0845  0.8558 -0.3980
10034TIP3    H151517   3.630   3.979   1.090  0.0907  0.7844 -0.5982
10034TIP3    H251518   3.702   4.101   1.143 -1.4742  1.5003 -0.0627
10035TIP3   OH251519   5.802   5.690   0.320 -1.1288 -0.8155 -0.0187
10035TIP3    H151520   5.709   5.708   0.326 -0.5347  2.4402  1.5023
10035TIP3    H251521   5.821   5.636   0.397 -1.7634 -1.8022 -0.5349
10036TIP3   OH251522   6.789   4.769  11.664 -0.4721  0.1173 -0.0081
10036TIP3    H151523   6.790   4.861  11.639 -0.7799  0.1166 -0.0303
10036TIP3    H251524   6.696   4.749  11.677 -0.6231 -0.6988 -1.9155
10037TIP3   OH251525   3.364   4.463  12.191  0.5614  0.3620 -0.7099
10037TIP3    H151526   3.450   4.484  12.228 -0.2285  2.3464  0.1411
10037TIP3    H251527   3.303   4.472  12.264 -0.4930 -0.0725 -1.5088
10038TIP3   OH251528   1.333   6.582  12.305  0.0458  0.1761  0.0848
10038TIP3    H151529   1.356   6.656  12.361  1.4885  0.1468 -0.4439
10038TIP3    H251530   1.416   6.552  12.268 -0.7527 -0.4145 -1.3116
10039TIP3   OH251531   2.741   2.817  14.103 -0.1470 -0.1598 -0.3505
10039TIP3    H151532   2.732   2.753  14.174  0.5910  0.4241  0.2752
10039TIP3    H251533   2.824   2.861  14.120 -0.5771  0.8791 -0.8510
10040TIP3   OH251534   0.480   2.965   0.349 -0.2674 -0.2802  0.2601
10040TIP3    H151535   0.476   3.061   0.352  0.2224 -0.2117 -0.9333
10040TIP3    H251536   0.462   2.943   0.258  1.7157 -1.2084  0.0493
10041TIP3   OH251537   1.569   6.171  12.738 -0.2648 -0.0222  0.4368
10041TIP3    H151538   1.566   6.190  12.644 -0.0252 -0.4446  0.3411
10041TIP3    H251539   1.542   6.079  12.744  0.7885 -0.3256  0.6724
10042TIP3   OH251540   6.540   1.998  15.872  0.5360  0.3419  0.4983
10042TIP3    H151541   6.630   1.971  15.854  0.8537  0.8275  1.3077
10042TIP3    H251542   6.549   2.075  15.929 -0.3083  2.2215 -1.7462
10043TIP3   OH251543   5.971   6.722  14.109 -0.1645 -0.3659  0.6703
10043TIP3    H151544   5.986   6.711  14.015  0.6428  0.3433  0.7118
10043TIP3    H251545   5.875   6.721  14.117 -0.2377 -2.1301  0.0634
10044TIP3   OH251546   2.234   3.909  16.033 -0.1453 -0.1030  0.0025
10044TIP3    H151547   2.172   3.856  16.083  0.8612  0.6885  2.2029
10044TIP3    H251548   2.302   3.847  16.007  0.9936 -0.0111  2.5038
10045TIP3   OH251549   5.439   1.024  16.616  0.9800 -0.7732  0.1185
10045TIP3    H151550   5.346   1.041  16.630 -0.0302 -3.3428 -2.3507
10045TIP3    H251551   5.465   1.088  16.550  0.5186 -0.9830 -0.2755
10046TIP3   OH251552   5.502   1.741   3.606  0.5820 -0.2291  0.6004
10046TIP3    H151553   5.526   1.655   3.642 -1.4520 -1.1718 -0.1462
10046TIP3    H251554   5.440   1.777   3.669  0.5366  0.1878  0.3222
10047TIP3   OH251555   1.270   4.628  15.482 -0.0201 -0.1044 -0.1978
10047TIP3    H151556   1.339   4.655  15.421  2.0359  1.3763  2.5760
10047TIP3    H251557   1.216   4.706  15.493 -0.7253 -0.5371 -0.5113
10048TIP3   OH251558   5.911   0.171  11.617  0.1955  0.1575  0.1629
10048TIP3    H151559   5.916   0.231  11.544 -0.1860  0.1183  0.1026
10048TIP3    H251560   5.992   0.185  11.666 -0.8269  2.2922  1.3794
10049TIP3   OH251561   5.518   2.630   2.363 -0.2297  0.1269 -0.4559
10049TIP3    H151562   5.512   2.721   2.333 -1.0305  0.1124 -0.3715
10049TIP3    H251563   5.611   2.608   2.356 -0.0317  0.9468 -0.4967
10050TIP3   OH251564   4.195   4.926  17.186 -0.1073 -0.8287  0.5376
10050TIP3    H151565   4.284   4.961  17.182 -0.4569 -0.0571 -2.1088
10050TIP3    H251566   4.207   4.831  17.187  0.7412 -0.7261  0.7295
10051TIP3   OH251567   4.696   3.869  11.440 -0.2324 -0.1410  1.0116
10051TIP3    H151568   4.610   3.886  11.403  0.5689 -1.3179 -1.6531
10051TIP3    H251569   4.688   3.785  11.485 -0.5674 -0.0418  1.1373
10052TIP3   OH251570   6.179   0.453  13.921 -0.3565 -0.0685 -0.6327
10052TIP3    H151571   6.227   0.524  13.880  1.1576 -0.1139  0.9081
10052TIP3    H251572   6.211   0.452  14.012 -1.3006 -1.8629 -0.2643
10053TIP3   OH251573   4.664   2.000   1.864 -0.0639  0.5331  0.0697
10053TIP3    H151574   4.642   2.054   1.788  0.6823 -0.4058 -0.8424
10053TIP3    H251575   4.726   2.054   1.914 -0.5750  1.1669  0.0272
10054TIP3   OH251576   4.620   0.409  14.293 -0.0509 -0.1465 -0.3206
10054TIP3    H151577   4.591   0.351  14.364 -1.7252 -0.3855 -1.1379
10054TIP3    H251578   4.654   0.350  14.226  0.9879  0.0430  0.0163
10055TIP3   OH251579   5.434   5.484  11.463 -0.3067  0.3271 -0.0052
10055TIP3    H151580   5.384   5.408  11.432  0.8805 -0.7416  0.5769
10055TIP3    H251581   5.371   5.556  11.462 -2.1035 -1.1037  1.4262
10056TIP3   OH251582   1.421   0.315  13.286 -0.3199  0.7025 -0.8168
10056TIP3    H151583   1.326   0.319  13.298 -0.0691  1.6006  1.4871
10056TIP3    H251584   1.447   0.405  13.270  0.2499  0.6220 -0.3545
10057TIP3   OH251585   1.273   0.357   6.511  0.0492 -0.1067  0.0366
10057TIP3    H151586   1.326   0.297   6.563 -0.7542  1.0337  2.3366
10057TIP3    H251587   1.184   0.323   6.517 -0.2071  0.5779  0.2681
10058TIP3   OH251588   5.319   5.373  14.602  0.1930 -0.0104 -0.0677
10058TIP3    H151589   5.354   5.388  14.514  0.6924 -2.2404 -0.3060
10058TIP3    H251590   5.397   5.371  14.659  0.0470 -0.4331  0.1226
10059TIP3   OH251591   1.978   0.640   3.444 -0.3278 -0.2502  0.5274
10059TIP3    H151592   1.912   0.634   3.375 -0.6728  0.8998  0.7370
10059TIP3    H251593   2.002   0.732   3.447  1.3804 -0.6406  0.3983
10060TIP3   OH251594   4.924   4.343   0.785 -0.1459 -0.2539 -0.1844
10060TIP3    H151595   4.979   4.265   0.793  2.2116  1.4274  1.0107
10060TIP3    H251596   4.852   4.315   0.728  1.0879 -3.0185 -0.5637
10061TIP3   OH251597   5.381   6.728  16.597 -0.4739  0.3545 -0.1426
10061TIP3    H151598   5.445   6.746  16.528 -1.2519 -0.4003 -1.0858
10061TIP3    H251599   5.338   6.647  16.569  0.6078 -1.1505  2.2646
10062TIP3   OH251600   2.369   4.672   5.564  0.1260 -0.4001 -0.7228
10062TIP3    H151601   2.349   4.608   5.632 -0.3189  1.8268  1.3737
10062TIP3    H251602   2.288   4.678   5.513 -0.2988 -0.4913 -0.0697
10063TIP3   OH251603   5.665   5.087  15.300  0.4095  0.2222 -0.3913
10063TIP3    H151604   5.592   5.114  15.355  0.2246  1.5171 -1.2148
10063TIP3    H251605   5.624   5.046  15.224  0.4659  1.4428 -1.1184
10064TIP3   OH251606   4.040   1.166   5.991  0.0199 -0.1349  0.4372
10064TIP3    H151607   3.951   1.140   6.017 -0.3856 -2.2364 -2.5962
10064TIP3    H251608   4.026   1.237   5.928  0.2243 -1.9243 -1.7505
10065TIP3   OH251609   1.398   0.448   3.715  0.6979 -0.7073 -0.3284
10065TIP3    H151610   1.365   0.362   3.740  1.4887 -0.1339  3.3298
10065TIP3    H251611   1.328   0.508   3.741  1.0472 -0.1039 -0.7744
10066TIP3   OH251612   4.505   6.447   3.693 -0.2977  0.0660  0.1288
10066TIP3    H151613   4.490   6.505   3.768  0.7243  0.2627  0.1884
10066TIP3    H251614   4.419   6.439   3.652 -1.0092 -0.4722  1.6207
10067TIP3   OH251615   0.082   4.691  12.213  0.1855  0.1886 -0.5532
10067TIP3    H151616   0.001   4.641  12.216  1.3165 -1.7108  1.3790
10067TIP3    H251617   0.062   4.772  12.260 -0.8320  0.1532 -0.9042
10068TIP3   OH251618   1.434   3.054   1.985 -0.0407 -0.1259 -0.0901
10068TIP3    H151619   1.352   3.054   2.035  0.3163  0.8226  0.5288
10068TIP3    H251620   1.408   3.038   1.895 -0.9589  0.5704  0.0427
10069TIP3   OH251621   3.635   5.838   6.395  0.1881  0.1364 -0.5979
10069TIP3    H151622   3.583   5.765   6.362  0.5178 -0.0812 -0.6386
10069TIP3    H251623   3.616   5.840   6.489  0.6801 -0.4210 -0.4770
10070TIP3   OH251624   1.435   6.672   0.732 -0.2189  0.7134  0.1898
10070TIP3    H151625   1.468   6.586   0.760  1.8195  2.0216  2.2073
10070TIP3    H251626   1.376   6.699   0.802  0.1566  1.4717  0.2280
10071TIP3   OH251627   6.077   4.995   2.923 -0.0629  0.1933 -0.0908
10071TIP3    H151628   6.147   5.003   2.987  1.1169 -0.0158 -1.2966
10071TIP3    H251629   5.997   5.008   2.973  0.7667 -0.5871  1.5296
10072TIP3   OH251630   1.365   2.742   5.902 -0.7550 -0.1353  0.2134
10072TIP3    H151631   1.300   2.746   5.972 -0.6690 -0.3481  0.3064
10072TIP3    H251632   1.332   2.673   5.843 -0.4090 -0.5274  0.4721
10073TIP3   OH251633   1.162   4.880  14.495  0.4018 -0.8580  0.0427
10073TIP3    H151634   1.134   4.832  14.417 -1.6810  0.3259 -0.0056
10073TIP3    H251635   1.200   4.813  14.551  0.3194 -2.0349 -1.2409
10074TIP3   OH251636   1.121   4.655   3.658 -0.0109  0.2235  0.4258
10074TIP3    H151637   1.128   4.705   3.576  0.8143  1.1856  1.0576
10074TIP3    H251638   1.081   4.716   3.720  0.9096  0.0966  1.1781
10075TIP3   OH251639   0.869   4.296   0.326  0.1485 -0.3025 -0.1663
10075TIP3    H151640   0.936   4.261   0.267  0.2731  1.3987 -1.1026
10075TIP3    H251641   0.787   4.289   0.277  0.1442  0.4905 -0.2840
10076TIP3   OH251642   1.509   2.711   3.442  0.5893  0.0418 -0.1053
10076TIP3    H151643   1.497   2.801   3.474 -0.3816 -0.4285  0.9079
10076TIP3    H251644   1.529   2.721   3.349  1.6530  1.3652  0.2317
10077TIP3   OH251645   1.101   4.472  11.028  0.1274 -0.3288  0.3258
10077TIP3    H151646   1.161   4.506  10.963 -1.0095  0.6841 -0.2401
10077TIP3    H251647   1.104   4.377  11.016 -0.6968 -0.1430 -1.8494
10078TIP3   OH251648   1.929   1.033   0.588  0.1011  0.0249 -0.2744
10078TIP3    H151649   1.892   1.118   0.614  2.2549  0.5955  1.2091
10078TIP3    H251650   1.909   1.025   0.495  0.1022  2.3298 -0.5330
10079TIP3   OH251651   4.357   5.931   5.167  0.0510  0.6997  0.2577
10079TIP3    H151652   4.407   5.864   5.121 -1.4934 -0.5269  0.3104
10079TIP3    H251653   4.418   5.965   5.232  1.4887  0.7662 -1.0546
10080TIP3   OH251654   1.242   0.833   0.084  0.1966 -0.3252 -0.8418
10080TIP3    H151655   1.272   0.881   0.007 -0.5723  1.4672 -0.0848
10080TIP3    H251656   1.194   0.759   0.049 -2.2480  1.7386 -2.2271
10081TIP3   OH251657   4.879   0.456  10.943  0.0154  0.0643 -0.1186
10081TIP3    H151658   4.969   0.475  10.916 -0.4406  1.5369 -0.7072
10081TIP3    H251659   4.843   0.403  10.872  0.2511 -0.0587 -0.1462
10082TIP3   OH251660   1.654   3.708   0.165 -0.8383 -0.2361  0.1808
10082TIP3    H151661   1.635   3.802   0.163  0.7116  0.0977  0.0603
10082TIP3    H251662   1.679   3.687   0.075  0.0975 -0.4699  0.4890
10083TIP3   OH251663   0.807   4.571   4.629  0.3864  0.2476 -0.1627
10083TIP3    H151664   0.809   4.609   4.717 -0.1151  0.8825 -0.4212
10083TIP3    H251665   0.894   4.532   4.618  1.0552  1.6437 -0.0276
10084TIP3   OH251666   5.964   1.575   4.569  0.2386  0.1106 -0.4059
10084TIP3    H151667   6.041   1.523   4.594  0.5421  0.4935 -0.5251
10084TIP3    H251668   6.001   1.652   4.525 -0.1922  0.5187 -0.0623
10085TIP3   OH251669   3.084   5.253   1.488 -0.4243  1.1478 -0.0110
10085TIP3    H151670   3.097   5.313   1.415 -1.9334  0.8323 -0.5824
10085TIP3    H251671   3.110   5.167   1.454  0.0377  1.1932  0.2248
10086TIP3   OH251672   0.665   4.286   5.522 -0.4072 -0.5829  0.0984
10086TIP3    H151673   0.647   4.337   5.443  0.8862  0.4541  0.4557
10086TIP3    H251674   0.613   4.328   5.590  0.0194 -0.2447  0.2175
10087TIP3   OH251675   4.537   2.378  13.720 -0.4579  0.0016 -0.1477
10087TIP3    H151676   4.561   2.466  13.691  0.8846 -0.6925 -1.3041
10087TIP3    H251677   4.447   2.366  13.692 -0.1892  0.5071 -1.2783
10088TIP3   OH251678   1.136   1.231  15.447 -0.4155  0.0794  0.0267
10088TIP3    H151679   1.144   1.221  15.542  0.3094 -1.2227 -0.1365
10088TIP3    H251680   1.152   1.143  15.413  0.0038  0.6560 -1.3348
10089TIP3   OH251681   1.149   2.476  13.917 -0.1264  0.1532 -0.1007
10089TIP3    H151682   1.215   2.478  13.847  0.3822 -1.3218  0.3083
10089TIP3    H251683   1.088   2.546  13.894 -0.7536 -1.1305 -2.7922
10090TIP3   OH251684   1.547   3.912   6.185  0.6656 -0.5146  0.0686
10090TIP3    H151685   1.614   3.896   6.252  1.3921 -0.1123 -0.5440
10090TIP3    H251686   1.586   3.880   6.104  1.9323  3.4991 -1.1234
10091TIP3   OH251687   6.550   2.844  11.819 -0.0987  0.1163 -0.0526
10091TIP3    H151688   6.618   2.912  11.822  1.4625 -1.3460 -0.5931
10091TIP3    H251689   6.515   2.850  11.730  1.7470 -1.3171 -0.9280
10092TIP3   OH251690   6.236   6.647  12.434 -0.2099 -0.1263  0.5696
10092TIP3    H151691   6.211   6.556  12.452  1.3920 -1.8604 -4.3598
10092TIP3    H251692   6.154   6.689  12.410 -0.6435 -1.0379  0.3854
10093TIP3   OH251693   3.232   0.807   6.247 -0.6455  0.6648 -0.2004
10093TIP3    H151694   3.164   0.760   6.296 -1.1958  0.9554 -0.6687
10093TIP3    H251695   3.276   0.861   6.313  0.3080 -0.8097  0.4412
10094TIP3   OH251696   1.042   3.312  13.928  0.0455 -0.2138 -0.0783
10094TIP3    H151697   1.075   3.297  13.839 -1.3562 -1.4906 -0.4221
10094TIP3    H251698   0.952   3.343  13.916 -0.1656 -0.4046  0.8972
10095TIP3   OH251699   5.880   6.333  15.781  0.0358 -0.1403 -0.3085
10095TIP3    H151700   5.906   6.397  15.847 -1.5353  0.7775 -0.5265
10095TIP3    H251701   5.958   6.278  15.768  0.1730 -0.9228  2.9091
10096TIP3   OH251702   3.220   4.936  11.502 -0.4088  0.4363 -0.1751
10096TIP3    H151703   3.129   4.921  11.475 -0.5719  1.6017 -0.3013
10096TIP3    H251704   3.272   4.888  11.437 -0.8605  1.7416 -1.5510
10097TIP3   OH251705   4.454   1.956  14.249  0.6463 -0.3041  0.0544
10097TIP3    H151706   4.509   1.878  14.246  0.7501 -0.2707  0.8044
10097TIP3    H251707   4.364   1.923  14.243  0.5813 -0.6763  2.1601
10098TIP3   OH251708   5.184   0.368  12.185  0.2470  0.2671  0.9766
10098TIP3    H151709   5.099   0.345  12.221 -0.6260  1.4233 -0.2576
10098TIP3    H251710   5.199   0.302  12.117  0.2454  0.1780  1.0624
10099TIP3   OH251711   4.320   2.459  16.284 -0.3095 -0.0833 -0.0692
10099TIP3    H151712   4.288   2.543  16.317 -0.8495 -0.6000  0.7582
10099TIP3    H251713   4.395   2.439  16.340 -0.2339 -0.2012 -0.2122
10100TIP3   OH251714   4.561   1.908   5.191 -0.1874  0.8216  0.3241
10100TIP3    H151715   4.641   1.888   5.240  0.4661  1.3105 -0.4957
10100TIP3    H251716   4.589   1.906   5.099 -1.5204 -0.7432 -0.0953
10101TIP3   OH251717   1.916   3.173   2.687  0.4988 -0.3798  0.3494
10101TIP3    H151718   1.997   3.225   2.683 -0.5812  1.3324 -0.0656
10101TIP3    H251719   1.861   3.219   2.751 -0.3343 -1.2702  0.2940
10102TIP3   OH251720   0.878   4.434  15.351  0.3274  0.4080 -0.2555
10102TIP3    H151721   0.809   4.413  15.288  0.6335  1.2699 -0.8974
10102TIP3    H251722   0.959   4.435  15.300  0.7300  0.0620  0.3620
10103TIP3   OH251723   6.670   4.732   6.027 -0.7688 -0.1413 -0.0782
10103TIP3    H151724   6.695   4.732   5.935  0.2865  0.4762  0.1954
10103TIP3    H251725   6.660   4.825   6.050 -0.8312 -0.2782  0.4812
10104TIP3   OH251726   5.565   0.739  16.905 -1.0570  0.7330  0.0794
10104TIP3    H151727   5.495   0.742  16.840 -0.8686  1.0078 -0.1149
10104TIP3    H251728   5.565   0.826  16.944 -0.0761  1.1204 -0.7288
10105TIP3   OH251729   2.887   1.809  14.545 -0.1089 -0.0668 -0.3788
10105TIP3    H151730   2.936   1.863  14.483 -1.0972  1.0261 -0.2473
10105TIP3    H251731   2.953   1.758  14.590  1.2180  2.8825  1.3065
10106TIP3   OH251732   4.696   1.732   0.386  0.0757 -0.0855  0.0260
10106TIP3    H151733   4.784   1.747   0.422 -0.1118  0.1913  0.3724
10106TIP3    H251734   4.661   1.820   0.372  0.1455 -0.1855 -0.8415
10107TIP3   OH251735   6.414   6.536  14.615 -0.0524  0.7810  0.3210
10107TIP3    H151736   6.423   6.577  14.529 -2.0284 -1.4164 -1.0260
10107TIP3    H251737   6.327   6.563  14.645  0.4986  1.2768  1.5473
10108TIP3   OH251738   2.490   5.551  16.795  0.3573  0.3557 -0.0143
10108TIP3    H151739   2.571   5.503  16.813  0.1613 -0.0102 -0.0957
10108TIP3    H251740   2.493   5.626  16.854  1.1758  0.8253 -0.6256
10109TIP3   OH251741   2.453   3.330   4.583 -0.3396  0.1311 -0.4100
10109TIP3    H151742   2.472   3.423   4.568 -0.2402 -0.1762 -2.5026
10109TIP3    H251743   2.519   3.284   4.531  0.1881 -1.1586  1.3275
10110TIP3   OH251744   3.732   3.033   2.328  0.3922  0.4149 -0.1146
10110TIP3    H151745   3.809   3.009   2.277  1.0858  1.9841  0.1428
10110TIP3    H251746   3.756   3.013   2.418  0.9013  1.7902  0.0792
10111TIP3   OH251747   4.000   6.002  15.013 -0.2924 -0.0879 -0.1860
10111TIP3    H151748   4.091   6.002  14.984  0.2992 -1.6323  1.4811
10111TIP3    H251749   3.978   6.095  15.022  0.7455  0.3321 -1.6194
10112TIP3   OH251750   2.648   5.706  15.798  0.0667 -0.3904 -0.3174
10112TIP3    H151751   2.565   5.752  15.787 -0.9204 -1.7571  1.0345
10112TIP3    H251752   2.712   5.776  15.809 -1.2873  0.7072  1.0358
10113TIP3   OH251753   3.160   1.238  16.508 -0.0781 -0.1985  0.4525
10113TIP3    H151754   3.104   1.194  16.572 -0.2337 -2.6322 -1.2054
10113TIP3    H251755   3.225   1.285  16.560 -0.2646 -1.9665  2.3987
10114TIP3   OH251756   0.344   3.814  15.756  0.0408  0.3806 -0.4701
10114TIP3    H151757   0.315   3.857  15.676  1.7362  1.3837 -0.5832
10114TIP3    H251758   0.265   3.810  15.810 -0.7553  1.2413 -1.5205
10115TIP3   OH251759   6.550   4.233   1.117  0.5660  0.6212  0.3162
10115TIP3    H151760   6.476   4.253   1.174 -0.1506 -1.8562  0.3622
10115TIP3    H251761   6.576   4.318   1.082 -2.2088  1.6195  0.3905
10116TIP3   OH251762   6.426   5.214  15.967  0.6830  0.2954 -0.6352
10116TIP3    H151763   6.408   5.126  15.933 -1.0827  0.4842 -0.2919
10116TIP3    H251764   6.521   5.223  15.961  0.7122 -0.7632 -2.8205
10117TIP3   OH251765   0.286   3.061  13.492 -0.0507  0.9536 -0.0227
10117TIP3    H151766   0.230   3.092  13.421  0.0794 -0.2552 -0.6754
10117TIP3    H251767   0.234   2.993  13.536  0.4549  0.6315  0.0897
10118TIP3   OH251768   0.588   2.972   5.385  0.7907 -0.4056  0.5071
10118TIP3    H151769   0.649   3.016   5.325  0.5209  0.0624  0.5673
10118TIP3    H251770   0.636   2.965   5.467  0.5836  0.4433  0.7100
10119TIP3   OH251771   4.432   0.723   4.857 -0.3426 -1.0238 -0.2525
10119TIP3    H151772   4.523   0.693   4.854  0.0439  0.1058 -0.1799
10119TIP3    H251773   4.417   0.759   4.769 -0.2172  0.1908  0.2108
10120TIP3   OH251774   1.013   2.140   1.826  0.0608 -0.6481 -0.4793
10120TIP3    H151775   1.079   2.074   1.805 -0.3911 -1.1436 -0.3616
10120TIP3    H251776   1.047   2.184   1.904  0.5513 -0.4695 -0.7859
10121TIP3   OH251777   2.115   3.206   2.022  0.0124  0.3006  0.0725
10121TIP3    H151778   2.085   3.209   2.113  0.8404  0.9347  0.3422
10121TIP3    H251779   2.092   3.118   1.992  0.2456 -0.1230  1.0788
10122TIP3   OH251780   6.536   0.190  11.623  0.0785  0.4107  0.3669
10122TIP3    H151781   6.630   0.174  11.615  0.1001  0.5183  0.4085
10122TIP3    H251782   6.512   0.236  11.542 -0.1414 -0.5639 -0.1439
10123TIP3   OH251783   2.310   5.431   1.465 -0.2616  0.0646  0.3926
10123TIP3    H151784   2.243   5.374   1.502  0.3648 -2.5809 -2.1859
10123TIP3    H251785   2.393   5.390   1.490  0.2113 -0.1480 -1.4195
10124TIP3   OH251786   0.698   3.065  14.533 -0.0741  0.2027 -0.3415
10124TIP3    H151787   0.755   3.085  14.607  1.6648  0.7476 -1.7650
10124TIP3    H251788   0.645   3.144  14.520  0.3454  0.4869 -0.3169
10125TIP3   OH251789   2.222   0.589   2.938  1.0027 -0.0448 -0.0528
10125TIP3    H151790   2.127   0.603   2.938  0.9999  0.3951 -2.8049
10125TIP3    H251791   2.253   0.639   3.013 -0.7863  1.1428 -0.0434
10126TIP3   OH251792   0.472   0.694  12.321  0.1433  0.1191  0.3180
10126TIP3    H151793   0.529   0.629  12.280 -0.7728 -1.5468  1.5880
10126TIP3    H251794   0.521   0.776  12.314  1.5163 -0.7531 -0.9614
10127TIP3   OH251795   2.028   5.885   5.405 -0.4589  0.5288 -0.5245
10127TIP3    H151796   1.985   5.860   5.323 -0.9202 -1.3665  0.2513
10127TIP3    H251797   1.958   5.886   5.470  0.0108  1.4173 -0.0062
10128TIP3   OH251798   5.127   3.349   4.917 -0.0318 -0.0688 -0.8960
10128TIP3    H151799   5.039   3.359   4.880 -0.4283 -0.7968 -0.1876
10128TIP3    H251800   5.140   3.255   4.923  0.6386  0.0380 -0.6165
10129TIP3   OH251801   2.051   3.001  15.494 -0.0854  0.3898 -0.4389
10129TIP3    H151802   2.020   3.074  15.440  0.8273  0.7148 -0.5457
10129TIP3    H251803   2.112   3.042  15.556  1.1782 -0.3968 -1.1130
10130TIP3   OH251804   5.912   5.124  15.468 -0.2981  0.3409 -0.4961
10130TIP3    H151805   5.822   5.108  15.441 -0.6863  1.2860  0.1792
10130TIP3    H251806   5.938   5.203  15.419  0.3158 -0.1641 -1.0046
10131TIP3   OH251807   2.350   1.223   3.859 -0.2342  0.0673  0.2316
10131TIP3    H151808   2.325   1.282   3.930  0.0095 -0.7769  1.0331
10131TIP3    H251809   2.359   1.138   3.901 -2.4146 -0.9543 -1.2158
10132TIP3   OH251810   0.389   6.382  12.024  0.3561  0.0625 -0.6136
10132TIP3    H151811   0.483   6.369  12.015  0.3102  0.3290 -1.5804
10132TIP3    H251812   0.350   6.300  11.994  0.2326  0.5624 -1.8550
10133TIP3   OH251813   2.944   2.140  12.566 -1.0517  0.1135 -0.0728
10133TIP3    H151814   2.934   2.108  12.655 -4.0421  0.3461 -0.2427
10133TIP3    H251815   2.927   2.234  12.572 -2.2253 -0.0267 -1.0118
10134TIP3   OH251816   4.791   2.583   2.716 -0.1570 -0.3107 -0.9485
10134TIP3    H151817   4.714   2.528   2.704  0.6170 -1.1634 -2.2592
10134TIP3    H251818   4.861   2.522   2.738  0.3100  0.3767 -0.4978
10135TIP3   OH251819   5.989   5.404  16.552  0.4995  0.3652 -0.0886
10135TIP3    H151820   5.966   5.487  16.592  0.4794  0.2116  0.2224
10135TIP3    H251821   5.984   5.340  16.624 -1.1966 -0.2147 -0.6517
10136TIP3   OH251822   0.417   4.827   4.457 -0.2078  0.3791  0.0499
10136TIP3    H151823   0.485   4.882   4.418  0.4453  0.1841  0.9122
10136TIP3    H251824   0.408   4.754   4.396 -1.2407  1.4983 -1.2361
10137TIP3   OH251825   4.304   3.105  16.062 -0.2041  0.0666  0.1765
10137TIP3    H151826   4.221   3.137  16.026  0.4639  0.2910 -1.2472
10137TIP3    H251827   4.293   3.010  16.065 -0.7874  0.1467  0.7248
10138TIP3   OH251828   3.577   2.003  15.283  0.0272 -0.0638  0.4026
10138TIP3    H151829   3.508   1.943  15.311  1.3114 -0.9521  1.8456
10138TIP3    H251830   3.587   2.063  15.357  2.0971 -1.1720  1.1093
10139TIP3   OH251831   3.904   2.670   6.268  0.0746  0.3632  0.2436
10139TIP3    H151832   3.971   2.680   6.336  0.7297  0.6561 -0.4255
10139TIP3    H251833   3.881   2.759   6.243 -1.2817  0.2882  1.1264
10140TIP3   OH251834   3.554   1.109   0.769 -0.2906  0.1620  0.3145
10140TIP3    H151835   3.637   1.119   0.722  0.4777  1.3385  1.8249
10140TIP3    H251836   3.508   1.040   0.722  0.6491  0.9100 -1.8007
10141TIP3   OH251837   1.839   6.498   5.841  0.3660 -0.0552  0.0380
10141TIP3    H151838   1.905   6.430   5.855  0.9354  0.7394  1.3880
10141TIP3    H251839   1.890   6.577   5.822 -0.2971 -0.0826 -2.1627
10142TIP3   OH251840   5.385   0.125  10.284  0.4943 -0.1260  0.2126
10142TIP3    H151841   5.458   0.141  10.225  0.3586  1.2704  0.3763
10142TIP3    H251842   5.398   0.187  10.356 -0.2491 -0.6245  0.7971
10143TIP3   OH251843   2.999   5.080   5.486  0.3678 -0.2307 -0.5590
10143TIP3    H151844   2.951   5.123   5.416  0.7042 -1.2212 -1.4153
10143TIP3    H251845   3.067   5.029   5.442  0.5829 -0.8790  0.4774
10144TIP3   OH251846   4.001   4.792   4.411  0.1533  0.1656 -0.0893
10144TIP3    H151847   4.025   4.854   4.342  0.3109  0.1436 -0.0541
10144TIP3    H251848   3.927   4.743   4.374  1.4252 -1.1561 -1.0077
10145TIP3   OH251849   5.886   5.277  14.877 -0.2848  0.7082  0.2627
10145TIP3    H151850   5.846   5.294  14.963 -1.1650  0.6605 -0.1276
10145TIP3    H251851   5.979   5.263  14.896 -0.5348  0.3096  1.2554
10146TIP3   OH251852   4.142   3.965  14.976  0.3754  0.2207 -0.2098
10146TIP3    H151853   4.221   4.018  14.983  0.6423  0.0088 -1.4483
10146TIP3    H251854   4.122   3.940  15.066  0.0409  2.6959  0.4971
10147TIP3   OH251855   2.770   3.503  16.839 -0.6499 -0.1621 -0.5469
10147TIP3    H151856   2.844   3.547  16.882  0.4614 -1.7690 -0.7015
10147TIP3    H251857   2.725   3.457  16.909  0.3682 -1.6887 -0.8400
10148TIP3   OH251858   5.355   0.318  10.940  0.6622  0.2876  0.2044
10148TIP3    H151859   5.365   0.276  10.855  1.9953 -0.9343  0.9105
10148TIP3    H251860   5.443   0.346  10.963  0.5064 -0.2913  1.6052
10149TIP3   OH251861   3.066   1.159   5.363  0.2256  0.2629  0.4056
10149TIP3    H151862   3.002   1.089   5.351  0.3936 -0.1157  1.5994
10149TIP3    H251863   3.126   1.150   5.289 -0.4496 -0.0787 -0.1087
10150TIP3   OH251864   0.690   3.702  16.675 -0.3374  0.0874 -0.1356
10150TIP3    H151865   0.780   3.671  16.664 -0.0207  0.4861  1.1063
10150TIP3    H251866   0.646   3.632  16.724 -0.6136  0.0319 -0.4629
10151TIP3   OH251867   5.665   0.761  14.545 -0.4134 -0.7913  0.0067
10151TIP3    H151868   5.730   0.782  14.612 -0.1069 -2.3118  0.2297
10151TIP3    H251869   5.715   0.712  14.479 -0.8892 -0.0600 -0.9144
10152TIP3   OH251870   5.658   2.349   3.401  0.2000 -0.1292 -0.4250
10152TIP3    H151871   5.661   2.301   3.483  0.6481 -1.3333 -1.1126
10152TIP3    H251872   5.697   2.289   3.337  0.6686  1.1156 -1.3459
10153TIP3   OH251873   3.557   1.367  15.924  0.5410  0.2665 -0.9915
10153TIP3    H151874   3.539   1.278  15.895  1.2974 -0.0306 -0.5890
10153TIP3    H251875   3.632   1.394  15.871  1.7557 -0.1793  0.4339
10154TIP3   OH251876   3.741   5.030  15.514  0.9196  0.7427  0.5120
10154TIP3    H151877   3.757   5.050  15.422 -0.0439 -1.3444 -0.1631
10154TIP3    H251878   3.649   5.053  15.528  1.0473  1.0043  0.9600
10155TIP3   OH251879   0.083   6.053   1.141  0.6872  0.1338  0.1538
10155TIP3    H151880   0.086   6.148   1.151 -0.8204  0.2718 -0.3474
10155TIP3    H251881   0.162   6.031   1.092 -0.4705  1.5795 -2.5797
10156TIP3   OH251882   6.458   6.616  15.567  0.1470 -0.2418 -0.3751
10156TIP3    H151883   6.459   6.522  15.588  2.2514  0.2653  2.3163
10156TIP3    H251884   6.392   6.653  15.626  0.8280  0.2229  0.1106
10157TIP3   OH251885   2.453   2.558   0.391  0.2469  0.1271 -0.1688
10157TIP3    H151886   2.440   2.653   0.385  1.5558  0.5068  1.8552
10157TIP3    H251887   2.499   2.535   0.311  1.1086  1.4681 -0.0922
10158TIP3   OH251888   5.134   2.147  16.371  0.0431  0.1901  0.1324
10158TIP3    H151889   5.197   2.083  16.337 -0.1535 -0.3379  0.7489
10158TIP3    H251890   5.070   2.156  16.301  0.1528 -0.1753 -0.0183
10159TIP3   OH251891   5.937   1.633   0.348  0.3925 -0.1886  0.0666
10159TIP3    H151892   5.909   1.596   0.432 -0.5531 -0.3621 -0.3131
10159TIP3    H251893   5.989   1.710   0.372 -0.2258  0.0170  0.8084
10160TIP3   OH251894   5.781   3.897   5.278  0.0466 -0.2187  0.0446
10160TIP3    H151895   5.744   3.982   5.302  0.5151 -0.2640  0.9717
10160TIP3    H251896   5.843   3.877   5.348 -1.1505 -2.0163  0.6673
10161TIP3   OH251897   5.140   1.462   0.398  0.4225  0.0550  0.2328
10161TIP3    H151898   5.045   1.464   0.412  0.0565  0.2120 -1.9219
10161TIP3    H251899   5.151   1.488   0.307  2.6887  1.7857  0.9052
10162TIP3   OH251900   2.252   0.449  11.676 -0.3618  0.5969 -0.6269
10162TIP3    H151901   2.275   0.478  11.588 -0.0324  0.6235 -0.5329
10162TIP3    H251902   2.187   0.512  11.706  1.1544  1.9271  0.0077
10163TIP3   OH251903   5.143   3.499  14.690  0.7903  0.0606 -0.1762
10163TIP3    H151904   5.148   3.594  14.698  2.8336 -0.1200  1.3764
10163TIP3    H251905   5.061   3.476  14.734 -0.2056  1.1512 -1.4037
10164TIP3   OH251906   4.061   0.512   1.742  0.2175  0.3222 -0.1796
10164TIP3    H151907   4.123   0.441   1.725 -1.6670 -1.0828 -1.5524
10164TIP3    H251908   4.053   0.559   1.659 -0.5277  0.5149 -0.0098
10165TIP3   OH251909   3.252   0.286   4.822 -0.1963 -0.2843 -0.2183
10165TIP3    H151910   3.297   0.370   4.811  2.0890 -1.5223 -0.9779
10165TIP3    H251911   3.209   0.270   4.738 -0.2542 -0.0851 -0.2269
10166TIP3   OH251912   1.818   0.749  12.657  0.4851  0.3616 -0.1464
10166TIP3    H151913   1.826   0.739  12.752  0.0233  0.1308 -0.1293
10166TIP3    H251914   1.724   0.754  12.641  0.5349 -0.1487 -0.6430
10167TIP3   OH251915   2.008   1.627  11.104 -0.4206  0.3037 -0.2458
10167TIP3    H151916   2.061   1.555  11.070  0.1575  0.6415 -0.0741
10167TIP3    H251917   1.926   1.622  11.054  0.2892  0.6069 -1.4812
10168TIP3   OH251918   1.010   5.108  15.144  0.2122 -0.4825  0.2011
10168TIP3    H151919   0.996   5.022  15.182  0.6263 -0.6101  0.0652
10168TIP3    H251920   0.922   5.145  15.136 -0.0314 -1.1507 -0.3569
10169TIP3   OH251921   6.281   6.353  15.301  0.8878 -0.1498 -0.2132
10169TIP3    H151922   6.319   6.428  15.256 -2.6452  2.7435  1.1543
10169TIP3    H251923   6.357   6.299  15.324  3.5197  2.2331 -2.4745
10170TIP3   OH251924   5.009   0.225   0.214  0.4364  0.0677 -0.6642
10170TIP3    H151925   5.088   0.278   0.217 -0.2920  1.2505 -1.6081
10170TIP3    H251926   4.957   0.255   0.289  0.3914  0.1037 -0.7096
10171TIP3   OH251927   1.537   2.054  14.859 -0.2356 -0.0691 -0.8198
10171TIP3    H151928   1.532   2.099  14.775  2.7769  1.7919 -0.1562
10171TIP3    H251929   1.627   2.068  14.889 -0.0624 -3.8314  1.0475
10172TIP3   OH251930   0.449   4.593   4.235  0.4673 -0.5881  0.0646
10172TIP3    H151931   0.358   4.576   4.259  0.9864 -3.9800  0.1708
10172TIP3    H251932   0.500   4.553   4.305  2.1095  1.8821  0.3893
10173TIP3   OH251933   1.586   1.595  15.776  0.6212 -0.5174 -0.1287
10173TIP3    H151934   1.560   1.640  15.856  2.4639  0.9109 -0.2670
10173TIP3    H251935   1.546   1.508  15.784 -1.3908  0.4505  1.0739
10174TIP3   OH251936   4.793   6.089  13.602  0.2205  0.0712  0.0112
10174TIP3    H151937   4.735   6.150  13.558  0.7737 -0.2614 -1.2208
10174TIP3    H251938   4.737   6.015  13.625  0.4675 -1.1861 -3.0292
10175TIP3   OH251939   0.846   0.573   0.162 -0.0796 -0.6611  0.0580
10175TIP3    H151940   0.764   0.621   0.172  0.1332 -0.3437  0.3151
10175TIP3    H251941   0.914   0.640   0.159  0.0665 -0.8489 -1.5523
10176TIP3   OH251942   1.700   5.390  16.203  0.2713 -0.7122 -0.4134
10176TIP3    H151943   1.611   5.421  16.221  0.8669  1.3043 -0.7113
10176TIP3    H251944   1.690   5.333  16.127 -0.5632  1.0088 -1.6768
10177TIP3   OH251945   1.419   2.635  14.359 -0.1377  0.3643  0.3058
10177TIP3    H151946   1.417   2.729  14.377 -1.2324  0.4369 -0.1409
10177TIP3    H251947   1.330   2.605  14.377  0.0408 -0.4678 -0.1484
10178TIP3   OH251948   2.097   4.368   0.167 -0.0389  0.1265 -0.1986
10178TIP3    H151949   2.162   4.434   0.142 -0.0120 -0.4817 -1.8822
10178TIP3    H251950   2.140   4.284   0.150 -0.3407 -0.3426  1.2131
10179TIP3   OH251951   3.414   5.106  13.287 -0.0701  0.4200 -0.2268
10179TIP3    H151952   3.486   5.135  13.232  0.0001 -0.3046 -0.5331
10179TIP3    H251953   3.427   5.011  13.295 -0.2988  0.4506  0.7130
10180TIP3   OH251954   4.726   4.481   4.453  0.2495  0.2895  0.3250
10180TIP3    H151955   4.730   4.411   4.518  0.1489 -2.2938 -2.1924
10180TIP3    H251956   4.818   4.494   4.427  0.0780 -1.3429 -1.4100
10181TIP3   OH251957   0.707   0.776  16.198 -0.0402 -0.7257  0.5666
10181TIP3    H151958   0.617   0.745  16.196  0.0738 -1.5023 -4.1814
10181TIP3    H251959   0.759   0.697  16.211  0.1624 -0.1662  4.3287
10182TIP3   OH251960   3.416   6.741   3.721 -0.1058 -0.7163 -0.3831
10182TIP3    H151961   3.343   6.749   3.782  0.3068  0.1372  0.0123
10182TIP3    H251962   3.486   6.793   3.760  0.4615 -0.8933 -1.1408
10183TIP3   OH251963   2.413   6.328  12.780  0.3257  0.1898 -0.0095
10183TIP3    H151964   2.505   6.329  12.806  0.6778 -1.0011 -1.1045
10183TIP3    H251965   2.377   6.249  12.820  0.2114 -0.2307 -0.9071
10184TIP3   OH251966   2.538   6.158  15.235  0.3790  0.6780  1.0716
10184TIP3    H151967   2.630   6.146  15.213  0.0181  0.6031 -0.5780
10184TIP3    H251968   2.529   6.251  15.254  0.4516  1.1327 -0.8511
10185TIP3   OH251969   6.358   2.582   2.110  0.3969  0.3273 -0.2188
10185TIP3    H151970   6.311   2.638   2.173  0.6260 -1.3441  1.5151
10185TIP3    H251971   6.290   2.525   2.075  0.6439 -0.2518  0.2307
10186TIP3   OH251972   6.119   2.992  15.907 -0.4551  0.3010  0.1295
10186TIP3    H151973   6.206   2.954  15.917 -0.9768 -0.5129  1.9870
10186TIP3    H251974   6.059   2.924  15.937 -1.5268  1.8900  1.8168
10187TIP3   OH251975   6.199   1.632  13.414 -0.0601  0.1550  0.6071
10187TIP3    H151976   6.130   1.668  13.360 -2.2175 -2.2568  1.5533
10187TIP3    H251977   6.170   1.646  13.504  1.9289  1.2875  1.1387
10188TIP3   OH251978   2.407   2.738   2.148 -0.3865  0.2068 -0.1966
10188TIP3    H151979   2.365   2.823   2.133  0.4123  0.7832  0.7430
10188TIP3    H251980   2.479   2.736   2.085 -0.4492  0.1856 -0.2684
10189TIP3   OH251981   2.841   6.471  16.822  0.2565 -0.1811 -0.4559
10189TIP3    H151982   2.921   6.431  16.855 -1.5107 -1.4183  2.8533
10189TIP3    H251983   2.786   6.396  16.797 -1.4128  0.2674  1.5388
10190TIP3   OH251984   4.174   5.051   4.905 -0.6977  0.5279 -0.1679
10190TIP3    H151985   4.171   5.091   4.992 -0.9346  0.4838 -0.1553
10190TIP3    H251986   4.224   5.114   4.852  2.6726 -1.1187  0.8417
10191TIP3   OH251987   5.519   2.039   5.384  0.3573  0.2282  0.1167
10191TIP3    H151988   5.464   2.116   5.369  0.8294  0.5557  0.0406
10191TIP3    H251989   5.461   1.976   5.426 -0.4682  0.0293 -1.2371
10192TIP3   OH251990   2.231   6.078  11.807  0.4296 -0.0692 -0.7577
10192TIP3    H151991   2.175   6.156  11.805 -1.2840 -1.2050 -0.1082
10192TIP3    H251992   2.232   6.052  11.899  1.7128 -0.3241 -0.8347
10193TIP3   OH251993   0.024   2.798  12.302  0.1856  0.2847  0.9161
10193TIP3    H151994   0.102   2.830  12.346 -0.5043  0.9316  1.7161
10193TIP3    H251995   0.056   2.748  12.227  1.4642 -1.6760  2.6684
10194TIP3   OH251996   6.430   1.940  16.666 -0.3232 -0.0561  0.2847
10194TIP3    H151997   6.356   1.899  16.623 -0.7241 -0.5703  1.4237
10194TIP3    H251998   6.403   2.031  16.681 -1.0555 -0.4429  1.4047
10195TIP3   OH251999   2.900   0.124   3.576  0.0245 -0.3652 -0.0086
10195TIP3    H152000   2.847   0.050   3.604 -1.0661  1.1829  2.3566
10195TIP3    H252001   2.991   0.096   3.592 -0.3491 -1.2670  0.6405
10196TIP3   OH252002   5.073   4.149   5.176 -0.0382 -0.4541 -0.2070
10196TIP3    H152003   4.978   4.161   5.179  0.0637  0.3055  0.7792
10196TIP3    H252004   5.108   4.233   5.207  0.8553 -1.9436  3.4060
10197TIP3   OH252005   4.469   3.241  13.479 -0.0831 -0.2610  0.3419
10197TIP3    H152006   4.556   3.280  13.485 -0.2546  0.0042  1.3815
10197TIP3    H252007   4.468   3.174  13.546 -0.6922 -0.2370  0.3628
10198TIP3   OH252008   2.390   1.040  16.621  0.2246 -0.0979 -0.3090
10198TIP3    H152009   2.322   1.028  16.555 -0.3357  0.8168  0.0629
10198TIP3    H252010   2.357   1.113  16.675  0.4031 -1.1522  1.2830
10199TIP3   OH252011   1.038   2.050  15.512 -0.3933  0.1385 -0.7494
10199TIP3    H152012   1.113   2.008  15.470 -0.8829 -1.3491 -0.2182
10199TIP3    H252013   1.065   2.141  15.525  0.6032  0.0818 -2.2143
10200TIP3   OH252014   1.280   3.986   5.608 -0.4352  0.5457 -0.0238
10200TIP3    H152015   1.304   4.015   5.696  1.0244 -0.4696 -0.0626
10200TIP3    H252016   1.219   3.914   5.623 -0.4871  0.6209  0.1405
10201TIP3   OH252017   5.791   0.780  12.580 -0.1237  0.0426  0.4582
10201TIP3    H152018   5.870   0.783  12.635  0.7876 -0.4455 -0.7745
10201TIP3    H252019   5.816   0.825  12.500 -1.1094 -0.1245  0.0425
10202TIP3   OH252020   1.293   0.270   4.046 -0.4490 -0.1379 -0.3378
10202TIP3    H152021   1.375   0.317   4.061  0.4751 -1.9683  0.7244
10202TIP3    H252022   1.288   0.258   3.952 -0.6159  1.8414 -0.6198
10203TIP3   OH252023   3.641   0.605  14.939  0.6212  0.3697  0.0403
10203TIP3    H152024   3.604   0.530  14.893  1.1210 -0.8152  1.4874
10203TIP3    H252025   3.566   0.645  14.985  0.6422 -0.3933  0.7706
10204TIP3   OH252026   0.595   4.124   1.377  0.2567 -0.5775 -0.8513
10204TIP3    H152027   0.521   4.080   1.417 -0.6152  0.7451 -0.9595
10204TIP3    H252028   0.592   4.214   1.410  1.8278 -0.4953 -0.8375
10205TIP3   OH252029   6.476   1.135  13.092  0.0785 -0.0647  0.1739
10205TIP3    H152030   6.429   1.176  13.165  1.6220 -0.6295  1.5344
10205TIP3    H252031   6.406   1.095  13.039 -1.0110 -1.4277  2.4619
10206TIP3   OH252032   0.664   5.540  16.241  0.2653  0.2335 -0.3651
10206TIP3    H152033   0.629   5.539  16.152  0.9163 -0.3182 -0.6307
10206TIP3    H252034   0.661   5.448  16.268  0.9267  0.2656 -0.1719
10207TIP3   OH252035   1.756   2.032  10.354 -0.2350 -0.5690  0.1277
10207TIP3    H152036   1.850   2.032  10.333 -0.2933 -0.6503 -0.1480
10207TIP3    H252037   1.752   2.026  10.449  0.0392 -0.7611  0.1284
10208TIP3   OH252038   0.928   4.725  15.792  0.4381  0.6633 -0.1479
10208TIP3    H152039   0.930   4.685  15.705 -0.2578  0.6630 -0.1675
10208TIP3    H252040   0.991   4.673  15.843  1.6426  1.3239 -0.9170
10209TIP3   OH252041   6.363   6.397   0.158  0.3382 -0.1181 -0.2898
10209TIP3    H152042   6.297   6.329   0.167 -1.1265  1.2448 -0.4041
10209TIP3    H252043   6.447   6.350   0.165 -0.6162 -1.8036  0.3674
10210TIP3   OH252044   0.955   6.325  14.030 -0.7086  0.8758 -0.5451
10210TIP3    H152045   0.962   6.233  14.059 -0.8307  1.4872  1.6263
10210TIP3    H252046   1.030   6.338  13.972  0.9395  0.1051  1.2813
10211TIP3   OH252047   3.591   0.745  16.510 -0.1221  0.2801 -0.1029
10211TIP3    H152048   3.616   0.685  16.440 -0.4204  0.1612 -0.1082
10211TIP3    H252049   3.668   0.800  16.523 -0.4984  1.2063 -1.4650
10212TIP3   OH252050   3.898   1.975  13.855  0.7346 -0.0566  0.7398
10212TIP3    H152051   3.840   1.900  13.865  1.4202 -0.8300 -0.7090
10212TIP3    H252052   3.840   2.048  13.832  0.2863 -0.7677 -0.4994
10213TIP3   OH252053   0.421   6.753   5.542  0.5107  0.2581 -0.2558
10213TIP3    H152054   0.381   6.840   5.547 -2.0226 -0.8877  0.8578
10213TIP3    H252055   0.380   6.712   5.466 -0.6408 -1.0191  1.0210
10214TIP3   OH252056   6.113   6.631  16.699  0.0533 -0.5241 -0.4353
10214TIP3    H152057   6.127   6.633  16.794  0.8794  2.2164 -0.5521
10214TIP3    H252058   6.026   6.670  16.686  1.0088  1.5623 -0.9007
10215TIP3   OH252059   3.250   3.365   0.968  0.1998  0.4241 -0.0171
10215TIP3    H152060   3.314   3.425   0.930  1.1342 -0.7041 -0.2951
10215TIP3    H252061   3.226   3.406   1.051  0.8977  1.1331 -0.1488
10216TIP3   OH252062   2.808   2.724  12.515 -0.0403 -0.1274  0.6389
10216TIP3    H152063   2.805   2.820  12.506 -2.9575 -0.0529  1.2821
10216TIP3    H252064   2.874   2.708  12.582  0.6398  1.4226  0.3880
10217TIP3   OH252065   3.940   5.978  14.446  0.4108  0.0498 -0.0370
10217TIP3    H152066   3.962   6.042  14.380 -1.3059  0.4419 -0.2900
10217TIP3    H252067   3.873   5.923  14.405  0.6323 -0.8509  0.7520
10218TIP3   OH252068   6.546   5.542  17.191 -0.1719  0.0238 -0.5295
10218TIP3    H152069   6.557   5.471  17.254 -0.1045 -1.7404 -2.4623
10218TIP3    H252070   6.481   5.600  17.232 -0.8017 -1.5330  0.7581
10219TIP3   OH252071   6.219   3.258  13.793  0.1047 -0.1579 -0.6579
10219TIP3    H152072   6.140   3.211  13.820 -0.7329  0.3154 -2.1666
10219TIP3    H252073   6.291   3.203  13.823 -0.7921 -0.8775  0.2599
10220TIP3   OH252074   0.299   5.642  13.823 -0.2065 -0.2584  0.5115
10220TIP3    H152075   0.319   5.630  13.916 -0.5372  2.2330  0.9576
10220TIP3    H252076   0.284   5.736  13.813  0.7083 -0.3123 -2.2438
10221TIP3   OH252077   4.055   3.582  11.891  0.8568 -0.3125  0.6756
10221TIP3    H152078   4.045   3.505  11.835 -0.9165  0.4004 -0.0546
10221TIP3    H252079   4.002   3.649  11.849  1.2380  0.9108  2.0601
10222TIP3   OH252080   4.100   4.061   5.230  0.4562 -0.4624  0.4766
10222TIP3    H152081   4.162   3.988   5.225  0.0460 -0.7837 -0.0325
10222TIP3    H252082   4.076   4.079   5.139  0.5107  0.2738  0.6009
10223TIP3   OH252083   3.515   1.842   0.774 -0.3921 -0.2202  0.6392
10223TIP3    H152084   3.467   1.924   0.766 -0.8018 -0.5338 -0.1293
10223TIP3    H252085   3.567   1.837   0.694 -0.5594 -0.8421  0.5722
10224TIP3   OH252086   0.667   4.382   4.941  0.2921 -0.1695 -0.0351
10224TIP3    H152087   0.674   4.293   4.907 -1.5111 -0.0260 -0.8361
10224TIP3    H252088   0.739   4.430   4.899  0.2325 -0.8363 -0.9048
10225TIP3   OH252089   1.530   4.894  16.143 -0.3001  0.1221 -0.0262
10225TIP3    H152090   1.571   4.823  16.093 -3.0932 -0.5299 -1.6157
10225TIP3    H252091   1.569   4.974  16.108  0.9462 -0.4955 -0.1134
10226TIP3   OH252092   6.513   0.063   5.040 -0.6083  0.6302 -0.1783
10226TIP3    H152093   6.462   0.144   5.038 -0.0273  1.0036 -0.4005
10226TIP3    H252094   6.521   0.042   5.133 -0.6151  0.9296 -0.1075
10227TIP3   OH252095   1.314   0.395  11.714  0.0267 -0.2918 -0.1221
10227TIP3    H152096   1.387   0.417  11.773 -0.1860  1.2018 -0.3849
10227TIP3    H252097   1.239   0.443  11.749 -0.0104  0.9803 -1.8120
10228TIP3   OH252098   2.394   6.134  16.295  0.5664  0.9894 -0.3535
10228TIP3    H152099   2.302   6.159  16.298  0.1751 -0.2507 -1.2476
10228TIP3    H252100   2.395   6.041  16.321  1.5116  0.8931 -0.6802
10229TIP3   OH252101   6.112   1.742   3.561 -0.2059  0.2888 -0.1736
10229TIP3    H152102   6.078   1.670   3.509  1.5508 -1.3929  0.8536
10229TIP3    H252103   6.036   1.780   3.605 -1.3363 -0.0182 -1.8243
10230TIP3   OH252104   6.787   4.472   5.539  0.4263  0.1533 -0.0709
10230TIP3    H152105   6.730   4.406   5.500  0.1883  0.4588 -0.2451
10230TIP3    H252106   6.754   4.483   5.628 -0.0644  0.6369 -0.3037
10231TIP3   OH252107   0.206   4.445   1.440 -0.0126  0.1019 -0.4096
10231TIP3    H152108   0.296   4.453   1.407 -0.2005  0.5938 -0.8165
10231TIP3    H252109   0.154   4.420   1.363 -0.2205 -0.2249 -0.1671
10232TIP3   OH252110   6.594   4.564   1.358  0.0165  0.2714 -0.1876
10232TIP3    H152111   6.608   4.631   1.291 -0.7030 -0.1337 -0.7626
10232TIP3    H252112   6.667   4.574   1.419  0.9383  0.3441 -1.2860
10233TIP3   OH252113   0.318   1.633  15.808 -0.3681  0.3014  0.2983
10233TIP3    H152114   0.384   1.600  15.869  0.6117  2.3134  0.4416
10233TIP3    H252115   0.255   1.679  15.864  0.0117  1.3254 -0.0729
10234TIP3   OH252116   6.655   0.949  13.559  0.1907 -0.4078 -0.1552
10234TIP3    H152117   6.741   0.989  13.569  0.2640 -0.4099 -0.7708
10234TIP3    H252118   6.669   0.874  13.501  0.4536 -2.6093  2.5371
10235TIP3   OH252119   0.385   3.322  12.191 -0.0171  0.5357 -0.0946
10235TIP3    H152120   0.299   3.279  12.200  0.3208 -0.1827 -0.1864
10235TIP3    H252121   0.448   3.250  12.197  0.5512  0.9754 -0.6945
10236TIP3   OH252122   0.119   1.950   1.001 -0.4925 -0.2613  0.0643
10236TIP3    H152123   0.087   2.015   0.939 -1.2363 -0.0026  0.7110
10236TIP3    H252124   0.053   1.881   1.002  1.5197 -2.4815 -2.6748
10237TIP3   OH252125   6.598   0.174  17.164 -0.2076  0.6717  0.1534
10237TIP3    H152126   6.604   0.087  17.204  1.0505  0.7050  0.0634
10237TIP3    H252127   6.579   0.232  17.237  1.4540  0.6446  0.6499
10238TIP3   OH252128   2.288   3.407  15.161 -0.1012  0.4829  0.0683
10238TIP3    H152129   2.369   3.371  15.126  0.3231  0.2823  1.2139
10238TIP3    H252130   2.229   3.332  15.168  0.4942  0.1287  1.6451
10239TIP3   OH252131   0.823   0.195   1.151 -0.7554  0.3353  0.2217
10239TIP3    H152132   0.810   0.144   1.230 -0.1270 -1.2659 -0.6661
10239TIP3    H252133   0.908   0.166   1.117 -0.7763  1.3569 -0.7674
10240TIP3   OH252134   5.334   5.182   5.225  0.6807 -0.5795  0.1309
10240TIP3    H152135   5.414   5.187   5.174  1.0764  0.2668  0.8077
10240TIP3    H252136   5.280   5.117   5.180  0.8314  0.4388 -1.5944
10241TIP3   OH252137   5.840   0.190  12.990  0.5948 -0.0525  0.2857
10241TIP3    H152138   5.841   0.253  13.062  0.6250 -1.7138  1.8265
10241TIP3    H252139   5.932   0.169  12.976  0.5766  0.1375 -0.1398
10242TIP3   OH252140   4.440   4.915   2.374  0.4675 -0.4403  0.5680
10242TIP3    H152141   4.401   4.887   2.457  0.6933 -2.0891  0.1730
10242TIP3    H252142   4.493   4.991   2.397 -0.8924  0.2587  1.5799
10243TIP3   OH252143   2.114   0.399  13.062  0.0661  0.2821  0.4043
10243TIP3    H152144   2.196   0.374  13.019 -0.2943 -1.4900  0.6685
10243TIP3    H252145   2.110   0.494  13.053  1.3308  0.2308 -1.0680
10244TIP3   OH252146   5.751   3.106  14.824  0.0920 -0.2563  0.2724
10244TIP3    H152147   5.708   3.045  14.885 -1.3550  0.9410  0.5026
10244TIP3    H252148   5.741   3.192  14.865  2.7486  0.1249  0.3200
10245TIP3   OH252149   3.079   3.261   2.811 -0.0293 -0.0978 -0.5290
10245TIP3    H152150   3.077   3.190   2.747 -1.2866 -2.0063  1.4547
10245TIP3    H252151   3.007   3.318   2.786  0.4729  0.0636 -1.6740
10246TIP3   OH252152   4.427   2.487  12.241 -0.3164 -0.6306 -0.5213
10246TIP3    H152153   4.411   2.469  12.333 -2.8120 -3.5147 -1.3365
10246TIP3    H252154   4.466   2.406  12.207 -0.1547  0.0758 -2.1255
10247TIP3   OH252155   5.612   2.367  14.247  1.0189 -0.2173  0.3930
10247TIP3    H152156   5.516   2.368  14.248  0.9439  1.4566 -1.7939
10247TIP3    H252157   5.636   2.379  14.339 -0.8157 -1.8387  1.1514
10248TIP3   OH252158   4.717   2.403   3.799 -0.3705  0.3874 -0.0271
10248TIP3    H152159   4.677   2.468   3.857  0.2187  0.6126  0.1353
10248TIP3    H252160   4.808   2.433   3.789 -0.3198  0.0399 -0.6162
10249TIP3   OH252161   0.464   1.845   4.815  1.0441 -0.0408 -0.3121
10249TIP3    H152162   0.478   1.925   4.866  0.5335  0.1238 -0.4204
10249TIP3    H252163   0.451   1.776   4.881  0.4814  0.1527 -0.2143
10250TIP3   OH252164   4.140   6.732   3.168  0.5378 -0.3474 -0.3045
10250TIP3    H152165   4.201   6.745   3.096 -0.8443  1.4460 -1.2420
10250TIP3    H252166   4.184   6.768   3.244  1.3389 -0.7126 -0.5834
10251TIP3   OH252167   2.507   6.585  14.251  0.1179  0.5890 -0.0973
10251TIP3    H152168   2.601   6.604  14.246 -0.0131  1.8160  1.4177
10251TIP3    H252169   2.489   6.580  14.345 -1.0870 -1.0687 -0.3726
10252TIP3   OH252170   4.284   6.315   4.266  0.2061 -0.1222  0.2742
10252TIP3    H152171   4.344   6.298   4.193  0.5166 -0.0003  0.4995
10252TIP3    H252172   4.200   6.282   4.235  0.0938  0.9086 -0.5619
10253TIP3   OH252173   2.630   5.968  11.558 -0.0404  0.5747  0.3674
10253TIP3    H152174   2.553   5.965  11.614 -0.3581 -1.4330 -0.0780
10253TIP3    H252175   2.595   5.978  11.469  0.3447  1.7152  0.3299
10254TIP3   OH252176   2.308   6.556   1.201  0.5239  0.0659 -0.1579
10254TIP3    H152177   2.314   6.493   1.129 -1.4886  1.4540 -1.6751
10254TIP3    H252178   2.252   6.514   1.266 -0.1911 -0.0365 -0.8242
10255TIP3   OH252179   4.126   3.821   5.955 -0.4233 -0.6695  0.1331
10255TIP3    H152180   4.157   3.753   5.894  0.0470 -0.7621  0.4701
10255TIP3    H252181   4.124   3.778   6.040 -3.2347 -1.2121 -0.1092
10256TIP3   OH252182   6.753   1.362   5.927 -0.3185 -0.5444  0.1803
10256TIP3    H152183   6.779   1.453   5.941  0.7511 -0.5200 -1.6179
10256TIP3    H252184   6.794   1.338   5.845 -2.2776 -2.0280 -0.4515
10257TIP3   OH252185   5.298   1.956  15.829  0.5359  0.2780  0.2154
10257TIP3    H152186   5.333   2.039  15.861  0.6096  0.9895 -1.5864
10257TIP3    H252187   5.213   1.978  15.792  0.1201 -0.6409  0.5917
10258TIP3   OH252188   0.625   6.161   5.594  0.2536  0.4837 -0.6124
10258TIP3    H152189   0.670   6.221   5.534  1.2226  0.0835 -0.3106
10258TIP3    H252190   0.535   6.194   5.598  0.3598  0.9526 -1.6960
10259TIP3   OH252191   6.233   4.013  14.658 -0.5718  0.4036 -0.3232
10259TIP3    H152192   6.294   4.088  14.659 -1.0714  0.8478 -1.7246
10259TIP3    H252193   6.183   4.022  14.740 -0.8449  1.8021 -0.6197
10260TIP3   OH252194   1.480   5.861   0.591 -0.4836 -0.5370  0.2203
10260TIP3    H152195   1.506   5.938   0.542  0.3338 -2.0468 -1.8903
10260TIP3    H252196   1.475   5.890   0.682  0.7419  1.7341 -0.3708
10261TIP3   OH252197   2.858   5.567   1.665  0.4122  0.0801 -0.1468
10261TIP3    H152198   2.830   5.659   1.656 -1.0735 -0.2959  0.4366
10261TIP3    H252199   2.841   5.529   1.579 -1.8675 -0.3641  0.4234
10262TIP3   OH252200   1.708   6.638  15.551 -0.2588 -0.0717  0.3421
10262TIP3    H152201   1.723   6.546  15.574  0.4765  0.3388  1.6510
10262TIP3    H252202   1.618   6.655  15.576  0.2286  0.0952  2.1751
10263TIP3   OH252203   5.150   2.925   2.114  0.1311 -0.0140 -0.5058
10263TIP3    H152204   5.184   2.843   2.151 -0.6664 -0.5438 -0.9200
10263TIP3    H252205   5.116   2.973   2.189  2.4356  0.8843  0.0467
10264TIP3   OH252206   4.367   2.179   4.293  0.6261  0.2462 -0.2708
10264TIP3    H152207   4.366   2.206   4.201 -2.3582 -1.1973 -0.8177
10264TIP3    H252208   4.316   2.247   4.338  0.3712 -0.0761 -0.0694
10265TIP3   OH252209   6.113   0.472  12.587 -0.0139  0.5131  0.4453
10265TIP3    H152210   6.143   0.473  12.496 -2.5238  3.3198 -0.4893
10265TIP3    H252211   6.108   0.379  12.609 -0.5479 -0.3258 -2.7386
10266TIP3   OH252212   1.295   0.446   1.891 -0.1813  0.1754  0.1326
10266TIP3    H152213   1.236   0.507   1.846  0.9106  0.3433 -1.1476
10266TIP3    H252214   1.381   0.488   1.885 -0.0088  0.3995  2.7824
10267TIP3   OH252215   4.993   4.173   2.162  0.0583 -0.5171  0.1197
10267TIP3    H152216   4.957   4.253   2.124 -1.8060  0.0073  2.6929
10267TIP3    H252217   5.078   4.163   2.121 -0.0914  2.1925 -1.0785
10268TIP3   OH252218   5.399   0.385   2.881 -0.3807  0.5430 -0.1587
10268TIP3    H152219   5.353   0.371   2.964  0.2987  0.9146  0.2962
10268TIP3    H252220   5.342   0.445   2.832 -0.9228  0.0981 -0.0878
10269TIP3   OH252221   2.133   0.394  14.444  0.1503  0.2197  0.1073
10269TIP3    H152222   2.215   0.421  14.403  0.6363 -1.4032 -0.0720
10269TIP3    H252223   2.071   0.386  14.371  0.5363 -0.9620 -0.1152
10270TIP3   OH252224   3.783   3.529  12.726 -0.1068 -0.5215 -0.6244
10270TIP3    H152225   3.774   3.477  12.806 -1.2744  0.5063 -0.0562
10270TIP3    H252226   3.763   3.468  12.655 -0.6087 -1.0621 -0.0314
10271TIP3   OH252227   1.789   6.772  14.140 -0.5010  0.2567  0.7617
10271TIP3    H152228   1.783   6.715  14.217 -0.1885  0.7265  1.1391
10271TIP3    H252229   1.882   6.788  14.128 -0.5107 -0.1936 -0.0102
10272TIP3   OH252230   5.063   1.794  14.713  0.4272  0.0802 -0.1531
10272TIP3    H152231   5.146   1.749  14.731  0.1897 -0.7450 -0.9862
10272TIP3    H252232   5.067   1.816  14.620 -0.3528 -0.1309 -0.2496
10273TIP3   OH252233   5.839   1.834  15.670  0.5008 -0.1389  0.3655
10273TIP3    H152234   5.838   1.917  15.717  0.4290 -1.3540  2.6475
10273TIP3    H252235   5.911   1.785  15.710  0.8435 -1.0262 -1.2571
10274TIP3   OH252236   1.124   3.199  16.056  0.0533  0.1174 -0.6057
10274TIP3    H152237   1.096   3.241  15.975  0.9382 -4.2195 -3.5142
10274TIP3    H252238   1.102   3.107  16.045  1.6490 -1.0084  3.5045
10275TIP3   OH252239   4.014   5.438  15.806 -0.3284 -0.1139 -0.1602
10275TIP3    H152240   3.947   5.435  15.738 -0.1838  0.5958 -0.3355
10275TIP3    H252241   4.087   5.388  15.770  1.0138  2.8605 -1.9268
10276TIP3   OH252242   4.659   4.399   5.424 -0.1454  0.1932 -0.2258
10276TIP3    H152243   4.570   4.364   5.418 -1.2111  2.1060  2.3841
10276TIP3    H252244   4.707   4.336   5.478  1.3379 -2.6823 -4.3718
10277TIP3   OH252245   4.990   3.755  14.357 -0.2559 -0.2858  0.7304
10277TIP3    H152246   5.076   3.759  14.399  0.2410 -0.0339 -0.2768
10277TIP3    H252247   4.952   3.842  14.371  0.5857  0.3373 -0.7069
10278TIP3   OH252248   6.609   4.562  15.338 -0.1671 -0.3376 -0.4708
10278TIP3    H152249   6.609   4.511  15.419 -1.0826 -0.2226 -0.3884
10278TIP3    H252250   6.701   4.584  15.323  0.4917 -3.2338 -1.2741
10279TIP3   OH252251   6.450   1.393   5.827 -0.4608  0.1668 -0.1252
10279TIP3    H152252   6.441   1.354   5.740 -1.0297 -2.9798  1.1863
10279TIP3    H252253   6.538   1.369   5.855  0.4736  2.8370 -0.4503
10280TIP3   OH252254   6.734   3.710   1.625  0.5249 -0.1587  0.0785
10280TIP3    H152255   6.717   3.627   1.670  1.9273 -0.4613  0.0998
10280TIP3    H252256   6.823   3.733   1.652  1.3953 -0.3129 -2.4683
10281TIP3   OH252257   2.545   3.285  15.394  0.5437 -0.5661 -0.8761
10281TIP3    H152258   2.553   3.202  15.440 -0.0707 -0.9358 -1.4201
10281TIP3    H252259   2.457   3.317  15.416  2.0161  1.7923  2.3341
10282TIP3   OH252260   3.767   4.698   4.659  0.0284 -0.6538  0.6206
10282TIP3    H152261   3.727   4.708   4.746  0.1244 -0.5205  0.6488
10282TIP3    H252262   3.838   4.762   4.658  1.3372 -2.0278  1.2112
10283TIP3   OH252263   5.778   5.967  13.091  0.0273 -0.2344  0.1517
10283TIP3    H152264   5.852   5.988  13.149  0.2750 -1.4028  0.2776
10283TIP3    H252265   5.706   6.021  13.124  0.2061 -0.7595  1.4831
10284TIP3   OH252266   0.384   0.971   2.016 -0.0521 -0.4183  0.1034
10284TIP3    H152267   0.332   1.048   2.040 -1.1714 -1.2795  0.5001
10284TIP3    H252268   0.386   0.973   1.920 -1.9460 -1.0569  0.0068
10285TIP3   OH252269   2.425   3.900   2.825 -0.2475  0.2859 -0.2132
10285TIP3    H152270   2.420   3.804   2.823  1.5542  0.1332  0.0880
10285TIP3    H252271   2.348   3.930   2.777 -0.0551 -1.3580 -1.6506
10286TIP3   OH252272   4.974   5.427   3.758  0.1136  0.0459  0.4115
10286TIP3    H152273   4.918   5.468   3.824  0.3423 -0.1539  0.7321
10286TIP3    H252274   4.959   5.479   3.679  0.3116  0.6800  0.7804
10287TIP3   OH252275   0.225   3.886   1.689  0.3281 -0.0147 -0.3740
10287TIP3    H152276   0.201   3.913   1.601 -1.3810 -0.3088 -0.0266
10287TIP3    H252277   0.188   3.954   1.746  0.1771 -0.5586  0.1929
10288TIP3   OH252278   3.998   5.250  13.010  0.2719 -0.1391  0.1122
10288TIP3    H152279   4.077   5.196  13.010  0.9460  0.8172  0.9078
10288TIP3    H252280   4.007   5.307  13.086  0.4946  2.3876 -1.6786
10289TIP3   OH252281   4.336   5.530   4.113  0.1829 -0.3890  0.1354
10289TIP3    H152282   4.405   5.465   4.101  2.2713  1.5917  0.8587
10289TIP3    H252283   4.303   5.514   4.202 -1.4012 -2.2270 -0.6803
10290TIP3   OH252284   2.171   4.370   2.780  0.2875 -0.4366 -0.2742
10290TIP3    H152285   2.096   4.321   2.749 -1.6258  1.2355  1.4200
10290TIP3    H252286   2.147   4.462   2.770  1.5034  0.1566  1.5744
10291TIP3   OH252287   0.895   1.089   4.432 -0.0611 -0.0807  0.2751
10291TIP3    H152288   0.862   1.178   4.419  2.7631  0.9514 -0.6552
10291TIP3    H252289   0.895   1.076   4.527 -0.0078  1.1244  0.4468
10292TIP3   OH252290   4.718   6.303   4.561 -0.1671  0.7335  0.8677
10292TIP3    H152291   4.627   6.274   4.566  0.4550 -2.3887 -1.7967
10292TIP3    H252292   4.725   6.343   4.475  1.3866 -1.3601 -0.0783
10293TIP3   OH252293   6.760   3.343  16.976 -0.7702 -0.1388 -0.1419
10293TIP3    H152294   6.676   3.378  17.003 -0.5055  1.7762 -1.5892
10293TIP3    H252295   6.819   3.419  16.974  0.8970 -1.3485  0.4007
10294TIP3   OH252296   2.732   4.858   4.681  0.2345  0.1845  0.1655
10294TIP3    H152297   2.727   4.948   4.649  0.9167  0.5087  0.9343
10294TIP3    H252298   2.814   4.855   4.731  1.3764 -1.4634 -1.6538
10295TIP3   OH252299   3.909   5.593  15.126 -0.1411  0.4023 -0.3851
10295TIP3    H152300   3.925   5.660  15.192 -1.5637  0.6706 -0.2883
10295TIP3    H252301   3.888   5.643  15.046 -1.1120  0.0924 -0.3368
10296TIP3   OH252302   1.432   3.344   2.639  0.4756  0.3264 -0.6154
10296TIP3    H152303   1.412   3.413   2.702  2.6512 -0.6435  1.2922
10296TIP3    H252304   1.491   3.385   2.576  1.3662  0.3682  0.2265
10297TIP3   OH252305   1.225   6.499   5.143  0.1707 -0.1212 -0.3551
10297TIP3    H152306   1.211   6.586   5.105  0.3295 -0.6573 -1.7011
10297TIP3    H252307   1.251   6.516   5.234 -3.8695  1.0993  0.7626
10298TIP3   OH252308   5.419   4.823   6.755  0.2110 -0.2021  0.1375
10298TIP3    H152309   5.470   4.774   6.819 -0.2196  0.5855  1.1242
10298TIP3    H252310   5.329   4.792   6.767  0.1648 -0.2279 -0.2593
10299TIP3   OH252311   5.843   4.031   3.774 -0.6146 -0.6350 -0.1356
10299TIP3    H152312   5.934   4.060   3.782 -0.5563 -0.8094 -0.1526
10299TIP3    H252313   5.846   3.938   3.800 -0.6667 -0.8346 -0.8264
10300TIP3   OH252314   5.310   1.570  14.983  0.0628  0.2332  0.8268
10300TIP3    H152315   5.354   1.494  15.020 -1.0429 -0.6921  0.3083
10300TIP3    H252316   5.248   1.534  14.919 -1.0627  1.5063  1.1351
10301TIP3   OH252317   3.401   0.333   1.298 -0.0393  0.5779 -0.4960
10301TIP3    H152318   3.421   0.355   1.389  0.5951  0.1369 -0.5271
10301TIP3    H252319   3.305   0.340   1.293  0.0256  2.0240 -0.1727
10302TIP3   OH252320   6.543   2.241  16.022  0.4643 -0.0943  0.4957
10302TIP3    H152321   6.636   2.234  16.002  0.5574  2.5600 -0.3374
10302TIP3    H252322   6.539   2.257  16.116  1.0616  2.0267  0.2050
10303TIP3   OH252323   5.595   4.011  13.369 -0.5807 -0.5739  0.1154
10303TIP3    H152324   5.507   3.976  13.356 -0.2368 -1.5132  0.2344
10303TIP3    H252325   5.652   3.950  13.322  0.1496 -0.8363  1.2968
10304TIP3   OH252326   4.687   3.536  11.216 -0.2751 -0.7078 -0.0527
10304TIP3    H152327   4.759   3.586  11.179  0.4314 -1.5559  0.1412
10304TIP3    H252328   4.617   3.542  11.151 -0.0486  0.1426 -0.2287
10305TIP3   OH252329   6.277   4.578   0.546 -0.3556  0.3116 -0.0199
10305TIP3    H152330   6.331   4.501   0.527 -1.3249 -0.6017  0.7654
10305TIP3    H252331   6.339   4.650   0.553  0.5739 -0.3759 -0.8529
10306TIP3   OH252332   4.057   4.618   1.103  0.1432 -0.5511 -0.2164
10306TIP3    H152333   4.126   4.676   1.071 -0.7167  0.8723  0.3828
10306TIP3    H252334   4.103   4.544   1.142  1.3508  0.4541  0.3413
10307TIP3   OH252335   1.832   1.673  16.641 -0.1267  0.1299 -0.2304
10307TIP3    H152336   1.845   1.589  16.684  1.0700 -0.0610 -0.9182
10307TIP3    H252337   1.887   1.734  16.690 -0.4051  0.3564 -0.1977
10308TIP3   OH252338   6.538   6.498  13.152 -0.3807 -0.3635  0.0220
10308TIP3    H152339   6.584   6.494  13.069  0.7561 -1.1929  0.6585
10308TIP3    H252340   6.601   6.534  13.214 -0.5306 -1.5575  0.9274
10309TIP3   OH252341   5.287   0.139   1.334  0.1526 -0.2389 -0.1077
10309TIP3    H152342   5.265   0.095   1.416 -1.1579 -1.3513 -1.0099
10309TIP3    H252343   5.205   0.142   1.285  0.5240  1.9186 -0.7166
10310TIP3   OH252344   5.253   6.555   1.643 -0.0674  0.1972  0.1342
10310TIP3    H152345   5.291   6.468   1.651  0.3762 -0.1037 -3.3930
10310TIP3    H252346   5.163   6.545   1.674  0.4807 -1.0189  1.4420
10311TIP3   OH252347   4.273   1.236   3.228 -0.0449  0.7926 -0.2356
10311TIP3    H152348   4.284   1.142   3.219  0.3000  0.8932 -0.9490
10311TIP3    H252349   4.213   1.247   3.302 -1.8170 -0.0507 -1.4817
10312TIP3   OH252350   5.309   6.228  12.513 -0.5180 -0.4137 -0.4711
10312TIP3    H152351   5.244   6.212  12.444  0.2604 -1.3228 -1.0169
10312TIP3    H252352   5.265   6.204  12.594 -0.8982 -0.9277 -0.8233
10313TIP3   OH252353   5.657   2.069  14.176  0.0231  0.6492 -0.3486
10313TIP3    H152354   5.589   2.072  14.245  0.6018 -0.9428  0.3395
10313TIP3    H252355   5.679   2.160  14.160 -2.1117  1.2032 -0.4221
10314TIP3   OH252356   6.169   3.846   4.452 -0.0612  0.3748 -0.4763
10314TIP3    H152357   6.167   3.888   4.538  2.0857 -1.0787  0.3462
10314TIP3    H252358   6.086   3.872   4.412  1.2140  5.7854 -0.3210
10315TIP3   OH252359   3.598   1.119  11.275  0.2006 -0.5389  0.4444
10315TIP3    H152360   3.635   1.040  11.316 -0.7687 -0.9162  0.6011
10315TIP3    H252361   3.593   1.097  11.182  1.1736 -0.1605  0.2880
10316TIP3   OH252362   1.559   5.859   4.861 -0.3801 -0.1917  0.3704
10316TIP3    H152363   1.560   5.787   4.798 -1.1558 -0.0847  0.2264
10316TIP3    H252364   1.469   5.863   4.891  0.1384 -0.7577  2.0924
10317TIP3   OH252365   2.872   3.456  11.965  0.7896 -0.7394  0.1921
10317TIP3    H152366   2.883   3.538  12.013  0.8831 -0.7117  0.1222
10317TIP3    H252367   2.796   3.472  11.908  1.6799 -0.1991 -0.8838
10318TIP3   OH252368   4.654   5.812   3.067  0.4072  0.1908  0.1682
10318TIP3    H152369   4.660   5.719   3.047 -1.5107 -0.0180  0.3571
10318TIP3    H252370   4.745   5.843   3.066  0.9189 -1.1269 -2.4156
10319TIP3   OH252371   5.572   6.489   0.862  0.2688 -0.3157  0.4414
10319TIP3    H152372   5.657   6.449   0.841 -0.8650 -2.6594  0.0172
10319TIP3    H252373   5.579   6.512   0.954  1.8980  1.0463  0.0339
10320TIP3   OH252374   6.451   1.221   5.336 -0.0712 -0.0816  0.3079
10320TIP3    H152375   6.476   1.268   5.416 -1.2999 -1.0704  1.3204
10320TIP3    H252376   6.375   1.268   5.302 -1.0912 -1.0616  1.1354
10321TIP3   OH252377   0.514   5.245  14.012  0.1309  0.0531 -0.1045
10321TIP3    H152378   0.497   5.167  13.960  0.4551  0.1239 -0.3204
10321TIP3    H252379   0.608   5.261  14.001  0.2810 -0.1362  0.7852
10322TIP3   OH252380   1.724   4.141   3.972 -0.1978  0.2380  0.0826
10322TIP3    H152381   1.642   4.155   4.020 -1.4393 -1.3908 -1.4493
10322TIP3    H252382   1.749   4.051   3.991  1.0073  0.5597  0.1423
10323TIP3   OH252383   4.479   2.210   3.116 -0.1314 -0.4430  0.2997
10323TIP3    H152384   4.445   2.125   3.089  0.0856 -0.3646 -0.2194
10323TIP3    H252385   4.401   2.265   3.127 -0.1957 -0.3623 -0.5481
10324TIP3   OH252386   3.469   0.053  11.903  0.3487 -0.2231  0.0471
10324TIP3    H152387   3.458   0.057  11.998  1.4818 -0.6480  0.2028
10324TIP3    H252388   3.520  -0.026  11.888 -1.5040 -1.2737 -1.0925
10325TIP3   OH252389   1.835   5.636  15.712 -0.5457 -0.1217 -0.5076
10325TIP3    H152390   1.848   5.542  15.709 -0.7898 -0.1533 -0.6033
10325TIP3    H252391   1.835   5.659  15.805  0.1436 -0.1273 -0.5027
10326TIP3   OH252392   6.216   0.943  15.709  0.0111 -0.5710  0.5439
10326TIP3    H152393   6.288   0.955  15.647  0.6553 -1.4137  1.0982
10326TIP3    H252394   6.183   1.031  15.725  0.6765 -0.2084 -0.0035
10327TIP3   OH252395   2.496   1.968  11.630 -0.7134 -0.2730  0.3308
10327TIP3    H152396   2.584   1.980  11.594 -1.3152  2.3477 -0.5165
10327TIP3    H252397   2.489   1.874  11.646  1.6258 -0.7905 -1.1661
10328TIP3   OH252398   2.714   2.000   6.506  0.5051 -0.6934 -0.0455
10328TIP3    H152399   2.657   2.007   6.583 -0.2620  1.3480 -0.7188
10328TIP3    H252400   2.655   2.015   6.432  1.8030  0.9079 -0.8031
10329TIP3   OH252401   2.875   3.194   3.352 -0.3034  0.5737 -0.0473
10329TIP3    H152402   2.795   3.232   3.318 -1.8637 -2.9311 -0.7243
10329TIP3    H252403   2.850   3.157   3.437  1.0383  0.8186  0.4869
10330TIP3   OH252404   6.466   6.762  12.572  0.0889  0.6980 -0.2978
10330TIP3    H152405   6.377   6.748  12.538 -0.2101  0.4256  0.5604
10330TIP3    H252406   6.517   6.691  12.533 -0.2628  0.3444 -0.1237
10331TIP3   OH252407   2.032   4.575  13.405  0.6619  0.0323  0.2729
10331TIP3    H152408   1.965   4.553  13.470  0.0372 -1.4912 -0.8322
10331TIP3    H252409   2.090   4.499  13.403  1.5082  0.6650  0.0505
10332TIP3   OH252410   0.325   2.897  13.015 -0.1230  0.2907  0.9918
10332TIP3    H152411   0.368   2.978  12.986 -0.7914 -0.2010 -1.5280
10332TIP3    H252412   0.232   2.913  13.002 -0.2734 -0.8243  0.6113
10333TIP3   OH252413   5.463   3.267  16.917  0.1305  0.6837  0.2665
10333TIP3    H152414   5.403   3.247  16.846  0.0201 -0.8165  0.7505
10333TIP3    H252415   5.469   3.186  16.968  0.5660  1.5642  1.7034
10334TIP3   OH252416   4.758   1.193  13.676 -0.2983  0.4196 -0.4078
10334TIP3    H152417   4.709   1.200  13.758  0.2067  0.4880 -0.1089
10334TIP3    H252418   4.713   1.252  13.616 -0.0994  1.1064  0.1047
10335TIP3   OH252419   1.620   5.471   0.256  0.2716  0.0826 -0.3293
10335TIP3    H152420   1.579   5.557   0.256 -1.9184 -0.9082 -0.3712
10335TIP3    H252421   1.657   5.461   0.344  0.1323  0.8825 -0.1796
10336TIP3   OH252422   0.386   2.511   4.871 -0.0292  0.1601  0.2020
10336TIP3    H152423   0.433   2.510   4.788 -1.6785  2.4655 -0.8704
10336TIP3    H252424   0.302   2.468   4.852 -0.3551  0.5629  0.6846
10337TIP3   OH252425   6.138   1.701   2.562 -0.0271  0.6420  0.4877
10337TIP3    H152426   6.060   1.664   2.604  0.8002 -1.2945  0.4166
10337TIP3    H252427   6.204   1.703   2.631  0.4362  0.3744  0.0572
10338TIP3   OH252428   3.130   1.328   0.664  0.3006 -0.5391  0.0120
10338TIP3    H152429   3.177   1.347   0.583  1.0304 -2.9111 -0.1966
10338TIP3    H252430   3.038   1.323   0.638  0.4684 -0.7072 -0.5420
10339TIP3   OH252431   2.138   6.151   2.447  0.4103 -0.3061 -0.6130
10339TIP3    H152432   2.176   6.063   2.452  0.3957 -0.2952 -0.2683
10339TIP3    H252433   2.214   6.210   2.448  0.4405 -0.3299 -1.3308
10340TIP3   OH252434   0.742   1.462  15.241  0.0854  0.0061  0.4171
10340TIP3    H152435   0.732   1.533  15.178 -1.7213 -0.5072  0.0489
10340TIP3    H252436   0.680   1.395  15.211  0.6152 -1.0705  1.6295
10341TIP3   OH252437   0.280   1.872   5.378  0.2509 -0.5822 -0.7799
10341TIP3    H152438   0.335   1.949   5.391 -0.0803 -0.5524  0.6750
10341TIP3    H252439   0.340   1.798   5.386  0.3100 -0.5127 -0.5740
10342TIP3   OH252440   0.596   5.891  13.532  0.3935 -0.3002 -0.3574
10342TIP3    H152441   0.619   5.901  13.440  1.4701 -1.9529 -0.3187
10342TIP3    H252442   0.502   5.873  13.532  0.5577 -1.2527 -1.2445
10343TIP3   OH252443   3.108   4.352   1.759  0.0688 -0.0304  0.1436
10343TIP3    H152444   3.101   4.316   1.670 -1.3897 -0.6326  0.4609
10343TIP3    H252445   3.197   4.385   1.765  0.9802 -2.1442 -0.7369
10344TIP3   OH252446   3.460   2.585  14.437  0.0251  0.1154  0.4354
10344TIP3    H152447   3.503   2.571  14.521 -0.0020 -0.4208  0.3613
10344TIP3    H252448   3.427   2.499  14.412  1.6095 -0.1316 -0.9927
10345TIP3   OH252449   0.785   2.097   0.824  0.0688 -0.3940 -0.9553
10345TIP3    H152450   0.869   2.068   0.859  0.8165  1.8308 -0.7464
10345TIP3    H252451   0.798   2.101   0.729  0.4756  0.6541 -0.8695
10346TIP3   OH252452   5.683   5.011   3.647 -0.9283 -0.0778  0.2667
10346TIP3    H152453   5.612   4.951   3.622  0.1506 -1.7518  1.0765
10346TIP3    H252454   5.638   5.091   3.676 -2.4010 -0.4295 -0.9269
10347TIP3   OH252455   2.178   0.154   4.793  0.2904  0.2655 -0.0574
10347TIP3    H152456   2.236   0.120   4.861 -0.4945 -1.5180 -0.2144
10347TIP3    H252457   2.189   0.249   4.796  2.4958  0.0323  0.5287
10348TIP3   OH252458   2.608   2.260   1.023  0.1856  0.3517  0.1406
10348TIP3    H152459   2.636   2.273   1.113 -0.0360  0.9619  0.1286
10348TIP3    H252460   2.535   2.321   1.012 -0.7274 -0.7352 -0.0198
10349TIP3   OH252461   5.212   1.180  15.245 -0.2578  0.2075 -0.3731
10349TIP3    H152462   5.186   1.243  15.312  2.0702  1.0893 -0.1936
10349TIP3    H252463   5.137   1.122  15.236 -0.7924  0.2442  2.7729
10350TIP3   OH252464   2.698   2.792   0.786  0.1784 -0.1179 -0.0652
10350TIP3    H152465   2.666   2.879   0.813 -1.0887 -0.5141 -0.2231
10350TIP3    H252466   2.780   2.810   0.740 -0.5472  1.1077 -0.9460
10351TIP3   OH252467   3.627   6.173  14.984  0.4579 -0.2210  0.3219
10351TIP3    H152468   3.634   6.116  14.908  1.5337 -1.6715  1.4600
10351TIP3    H252469   3.718   6.197  15.005  0.0743  1.5639  0.1625
10352TIP3   OH252470   5.318   5.738  11.445 -0.0327 -0.1439  0.1897
10352TIP3    H152471   5.235   5.756  11.489 -0.7361  1.7608 -1.7306
10352TIP3    H252472   5.381   5.796  11.487 -0.4834  0.9511 -0.6043
10353TIP3   OH252473   6.066   6.709  16.096  0.0690 -0.3351 -0.1026
10353TIP3    H152474   6.146   6.664  16.067  1.3487  1.8751 -0.2439
10353TIP3    H252475   6.098   6.777  16.156 -1.2973  2.6048 -2.4685
10354TIP3   OH252476   2.811   5.874  14.140 -0.5204 -0.5451 -0.3436
10354TIP3    H152477   2.791   5.825  14.061 -1.0027  0.5138 -0.9054
10354TIP3    H252478   2.760   5.831  14.209 -1.2772 -0.5689 -0.9129
10355TIP3   OH252479   1.291   1.406   0.915 -0.1674  0.5923  0.2889
10355TIP3    H152480   1.221   1.366   0.862 -0.8702  1.3790  0.5940
10355TIP3    H252481   1.272   1.500   0.911 -0.1835  0.6760  1.8498
10356TIP3   OH252482   5.088   6.516  11.088  0.0898 -0.3465  0.1133
10356TIP3    H152483   5.044   6.457  11.149  0.6183  0.1434  0.9912
10356TIP3    H252484   5.120   6.460  11.017 -1.3043 -0.8017 -0.1827
10357TIP3   OH252485   6.271   6.223  14.633 -0.0907 -0.2895 -0.2897
10357TIP3    H152486   6.221   6.285  14.686  0.0615  1.0716 -1.6476
10357TIP3    H252487   6.361   6.229  14.665 -0.2756 -0.6499  0.3076
10358TIP3   OH252488   2.488   4.602  12.840  0.1827 -1.1789 -0.1027
10358TIP3    H152489   2.522   4.678  12.792 -0.9989 -0.9913 -0.6806
10358TIP3    H252490   2.453   4.544  12.772 -1.6572 -0.8491  0.4909
10359TIP3   OH252491   0.677   4.425   3.573 -1.0627  0.1378 -0.0554
10359TIP3    H152492   0.772   4.426   3.564 -1.1247 -2.4273 -2.4329
10359TIP3    H252493   0.661   4.421   3.667  1.2264 -0.5741  0.3505
10360TIP3   OH252494   6.353   3.828  12.600  0.5171 -0.2581  0.3267
10360TIP3    H152495   6.303   3.908  12.585  0.4321 -0.6300 -1.7283
10360TIP3    H252496   6.348   3.814  12.694 -2.7214  0.0684  0.3223
10361TIP3   OH252497   5.876   2.983  12.763  0.2246 -0.4042  0.0158
10361TIP3    H152498   5.967   2.967  12.740  0.0606  0.9803 -1.8421
10361TIP3    H252499   5.835   2.897  12.763  1.5971 -1.1040  1.3711
10362TIP3   OH252500   1.842   2.605  13.889  0.3045  0.2361 -0.2072
10362TIP3    H152501   1.769   2.552  13.922  0.0252  0.5567 -0.3004
10362TIP3    H252502   1.903   2.610  13.962 -0.2765  0.8749  0.2463
10363TIP3   OH252503   1.819   1.771   1.777  0.1996 -0.5388 -0.2805
10363TIP3    H152504   1.771   1.739   1.853  2.1172 -1.8541  0.4431
10363TIP3    H252505   1.771   1.736   1.701 -3.1616  2.7122  0.0115
10364TIP3   OH252506   4.067   0.014  12.887  0.0350 -0.1525  0.0647
10364TIP3    H152507   4.085   0.037  12.796 -0.1274  0.1592  0.1094
10364TIP3    H252508   4.001   0.078  12.915  0.7333  0.3250  0.6648
10365TIP3   OH252509   2.473   4.489   2.005 -0.2070  0.4916 -0.2513
10365TIP3    H152510   2.534   4.428   2.048 -0.1872  0.2556 -0.6066
10365TIP3    H252511   2.517   4.573   2.007  1.5537 -0.2249 -3.2466
10366TIP3   OH252512   3.049   4.579  13.256  0.2983  0.3652 -0.2928
10366TIP3    H152513   2.978   4.518  13.275  1.1520 -0.7750 -0.6396
10366TIP3    H252514   3.036   4.603  13.164  1.1670 -0.9990 -0.8033
10367TIP3   OH252515   4.300   4.059   4.443  0.3288 -0.3172 -0.0117
10367TIP3    H152516   4.213   4.090   4.467  0.3643  0.0624 -0.3788
10367TIP3    H252517   4.355   4.137   4.443  0.7931 -0.6300  0.7462
10368TIP3   OH252518   2.864   3.992   1.434  0.3294 -0.8087 -0.2913
10368TIP3    H152519   2.857   3.899   1.413 -0.4667 -0.6063 -0.9552
10368TIP3    H252520   2.953   4.016   1.407  0.9232 -1.6022  0.8569
10369TIP3   OH252521   2.034   2.653  10.702  0.2781 -0.1712 -0.0607
10369TIP3    H152522   1.989   2.590  10.646 -0.3044 -2.0026  2.3054
10369TIP3    H252523   1.964   2.696  10.751  0.7945  1.0233 -0.3542
10370TIP3   OH252524   4.913   1.882  16.881  0.0546  0.6173 -0.6185
10370TIP3    H152525   4.886   1.942  16.951 -0.8171  1.2751 -1.4997
10370TIP3    H252526   4.837   1.825  16.867  1.1871 -1.3951  0.8650
10371TIP3   OH252527   0.961   5.775  16.315 -0.5799 -0.2800 -0.4798
10371TIP3    H152528   1.025   5.796  16.383 -0.3122 -0.6091 -0.6283
10371TIP3    H252529   0.978   5.839  16.246 -0.3259 -0.4539 -0.5753
10372TIP3   OH252530   3.629   1.748  11.516  0.4998 -0.2006  0.1525
10372TIP3    H152531   3.545   1.713  11.544 -0.0749  0.6493 -0.4665
10372TIP3    H252532   3.689   1.728  11.588 -0.1173 -1.2245  0.4002
10373TIP3   OH252533   1.104   0.764   4.834 -0.2020  0.9279  0.2338
10373TIP3    H152534   1.173   0.756   4.768 -1.8696 -0.8308 -1.4350
10373TIP3    H252535   1.150   0.769   4.917  1.9509  0.7053 -0.8867
10374TIP3   OH252536   3.716   3.429   2.183  0.4224 -0.2804 -0.4883
10374TIP3    H152537   3.680   3.384   2.106 -0.5698  0.3254 -0.3930
10374TIP3    H252538   3.665   3.510   2.190 -1.0501 -1.3295  2.0976
10375TIP3   OH252539   0.702   0.109   2.203  0.1496  0.0125 -0.0255
10375TIP3    H152540   0.618   0.144   2.173  0.6327  1.5166  0.3176
10375TIP3    H252541   0.754   0.098   2.123  0.1016  0.3664 -0.1033
10376TIP3   OH252542   4.664   5.600   5.758 -0.2012 -0.1206 -0.3578
10376TIP3    H152543   4.711   5.682   5.739  0.0347 -0.1696 -0.0017
10376TIP3    H252544   4.629   5.572   5.674 -1.2547  0.9471 -0.3141
10377TIP3   OH252545   0.822   5.733  13.305  0.1877  0.1721 -0.4300
10377TIP3    H152546   0.845   5.824  13.287  0.2793 -0.2172 -2.4283
10377TIP3    H252547   0.893   5.681  13.269 -0.3950 -0.7507 -0.3054
10378TIP3   OH252548   3.413   2.607   5.983 -0.0569 -0.6473 -0.3149
10378TIP3    H152549   3.506   2.620   6.002  0.0435  2.7567 -2.3862
10378TIP3    H252550   3.367   2.653   6.053 -0.1821 -1.3259  0.0593
10379TIP3   OH252551   4.472   6.398   1.204 -0.0500 -0.6202 -0.4324
10379TIP3    H152552   4.528   6.321   1.202 -1.4466 -1.9501  3.4117
10379TIP3    H252553   4.392   6.371   1.157 -0.6922 -1.7536  1.2309
10380TIP3   OH252554   4.352   4.941   5.494 -0.8034 -0.7164  0.5326
10380TIP3    H152555   4.402   5.022   5.487  1.5772 -2.1505 -0.1370
10380TIP3    H252556   4.282   4.950   5.430 -0.2030  0.5410  0.0307
10381TIP3   OH252557   6.634   1.524   2.094  0.2359 -0.4280  0.4203
10381TIP3    H152558   6.615   1.435   2.124  2.9015 -1.1847  0.1900
10381TIP3    H252559   6.568   1.542   2.027  0.2033 -2.6434 -0.2165
10382TIP3   OH252560   6.498   0.160  16.647  0.4094 -0.0984 -0.0589
10382TIP3    H152561   6.590   0.152  16.672  0.9808  2.1515 -1.1779
10382TIP3    H252562   6.450   0.130  16.724  2.0769  0.0621  1.1018
10383TIP3   OH252563   1.037   3.049   0.851  0.0730  0.4497 -0.0555
10383TIP3    H152564   1.012   3.117   0.788 -0.6642  1.1160  0.9178
10383TIP3    H252565   0.955   3.027   0.895  0.6391  0.2969  0.9491
10384TIP3   OH252566   5.913   3.062   2.961 -0.0198  0.4832 -0.4093
10384TIP3    H152567   5.886   3.089   2.873  2.7091  1.6576 -1.0034
10384TIP3    H252568   5.994   3.013   2.947 -1.2422 -2.2133  1.2552
10385TIP3   OH252569   5.336   0.458  11.333 -0.5433  0.0046 -0.0724
10385TIP3    H152570   5.276   0.512  11.385 -1.2949  1.0319 -1.9286
10385TIP3    H252571   5.419   0.507  11.335 -0.2520 -0.4844  0.9510
10386TIP3   OH252572   2.167   0.633  13.609 -1.1602  0.4943  0.3715
10386TIP3    H152573   2.137   0.569  13.674 -0.8562 -1.1617 -1.0616
10386TIP3    H252574   2.244   0.673  13.650 -1.0009 -0.4784  1.0715
10387TIP3   OH252575   5.686   1.843  14.456  1.0528  0.2711 -0.0528
10387TIP3    H152576   5.620   1.878  14.515  0.1486  1.5334 -1.7270
10387TIP3    H252577   5.758   1.816  14.514 -0.3738  0.0697  1.7040
10388TIP3   OH252578   2.569   2.889  15.327  0.6214 -0.3910 -0.0542
10388TIP3    H152579   2.590   2.938  15.406  0.8236 -1.5564  0.6504
10388TIP3    H252580   2.570   2.797  15.356  2.2524 -0.9532 -1.7504
10389TIP3   OH252581   1.173   1.329  12.122 -0.2165  0.4581  0.1325
10389TIP3    H152582   1.124   1.258  12.163 -0.0019  0.4519  0.3793
10389TIP3    H252583   1.188   1.392  12.193 -0.4053  0.7525 -0.0847
10390TIP3   OH252584   5.852   1.996   1.715  0.3704  0.3054 -0.3402
10390TIP3    H152585   5.825   1.929   1.778  2.1655  0.8311  1.0463
10390TIP3    H252586   5.787   2.066   1.726  0.6020  0.3500  0.8737
10391TIP3   OH252587   5.106   4.046  12.839  0.2392 -0.8440  0.0781
10391TIP3    H152588   5.088   3.961  12.880  2.5814 -0.6583  1.6839
10391TIP3    H252589   5.103   4.108  12.911  1.4773 -0.0193 -0.5490
10392TIP3   OH252590   5.129   5.978  12.936  0.1378 -0.2445  0.0571
10392TIP3    H152591   5.121   5.882  12.942 -0.9563 -0.0944  3.6590
10392TIP3    H252592   5.211   5.997  12.982 -0.6834  0.6032  1.2240
10393TIP3   OH252593   6.780   3.495  16.460  0.3316 -0.3331 -0.5744
10393TIP3    H152594   6.779   3.414  16.409  1.5149 -0.1739 -0.8799
10393TIP3    H252595   6.766   3.565  16.396 -0.1717 -0.2633 -0.3884
10394TIP3   OH252596   0.822   1.618   6.416 -0.1949  0.4175  0.8586
10394TIP3    H152597   0.768   1.693   6.390 -0.4566 -0.0193  0.1060
10394TIP3    H252598   0.808   1.610   6.511 -0.9518  0.7058  0.7810
10395TIP3   OH252599   0.406   3.569   0.669 -0.0207  0.8885 -0.0996
10395TIP3    H152600   0.344   3.637   0.697 -1.7262 -0.0574 -1.4302
10395TIP3    H252601   0.441   3.601   0.586 -1.8314 -0.3587 -1.4270
10396TIP3   OH252602   0.238   4.842  12.889  0.6630  0.1078 -0.2461
10396TIP3    H152603   0.242   4.937  12.902  1.6669  0.1367 -0.6803
10396TIP3    H252604   0.318   4.809  12.929 -0.6077 -0.8057  1.6884
10397TIP3   OH252605   4.579   0.082   1.068  0.7993 -0.2621  0.3664
10397TIP3    H152606   4.614   0.008   1.019  1.2702  0.0474  0.2235
10397TIP3    H252607   4.496   0.051   1.104 -0.8759  0.2779 -2.6867
10398TIP3   OH252608   2.537   2.426   0.690 -0.6678  0.2030 -0.1309
10398TIP3    H152609   2.535   2.332   0.674  1.0348  0.2287 -0.6404
10398TIP3    H252610   2.481   2.439   0.766  0.0348 -1.3825  0.6929
10399TIP3   OH252611   5.454   5.658  12.064  0.2489 -0.7037 -0.4033
10399TIP3    H152612   5.392   5.621  12.001 -1.7675  2.4146 -0.4923
10399TIP3    H252613   5.436   5.612  12.145  0.6781 -2.6148 -1.3474
10400TIP3   OH252614   3.294   5.803   1.819 -0.0942  0.2680  0.5122
10400TIP3    H152615   3.287   5.853   1.737  2.5238 -1.3327 -0.8361
10400TIP3    H252616   3.206   5.768   1.833 -0.4211 -0.3238 -2.3052
10401TIP3   OH252617   2.157   3.165  15.110 -0.2391  0.5667 -0.5230
10401TIP3    H152618   2.210   3.086  15.116 -1.7179 -0.5048 -1.1123
10401TIP3    H252619   2.141   3.177  15.017 -1.1595  0.7818 -0.3510
10402TIP3   OH252620   0.343   0.423  11.077  0.3067 -0.3091  0.1793
10402TIP3    H152621   0.423   0.382  11.111  0.9388  0.7855  0.0671
10402TIP3    H252622   0.359   0.517  11.086 -2.0350 -0.0191  2.6721
10403TIP3   OH252623   2.429   1.924  15.272  0.0719 -0.1894  0.4466
10403TIP3    H152624   2.503   1.935  15.332  0.9521 -0.3359 -0.5929
10403TIP3    H252625   2.352   1.937  15.327  0.8066 -1.7846  1.9507
10404TIP3   OH252626   4.697   0.629  10.829  0.0882 -0.0405  0.0706
10404TIP3    H152627   4.748   0.560  10.870  1.3541 -0.8583 -2.6690
10404TIP3    H252628   4.609   0.592  10.821  0.0898 -0.2751  0.9641
10405TIP3   OH252629   1.613   1.110  11.190  0.0114  0.1370 -0.1959
10405TIP3    H152630   1.653   1.189  11.155  0.9582 -0.1226  0.2555
10405TIP3    H252631   1.686   1.061  11.228 -0.3910 -1.4047 -1.2960
10406TIP3   OH252632   0.226   1.214  16.378  0.0952 -0.5739  0.7059
10406TIP3    H152633   0.252   1.200  16.286 -0.1971 -0.6213  0.6315
10406TIP3    H252634   0.199   1.127  16.408 -1.3999 -0.2571  0.3426
10407TIP3   OH252635   6.478   0.768   4.627  0.0843 -0.2920  0.7761
10407TIP3    H152636   6.494   0.699   4.563 -0.9232 -0.6228  0.8555
10407TIP3    H252637   6.555   0.768   4.683  1.5188  0.7874 -1.1044
10408TIP3   OH252638   6.650   2.340   2.665 -0.0425  0.3942 -0.1986
10408TIP3    H152639   6.585   2.272   2.645 -0.8430  1.4355 -1.2773
10408TIP3    H252640   6.701   2.303   2.737  0.0450 -1.6759 -1.2264
10409TIP3   OH252641   5.945   1.535  11.665 -0.1272  0.3012  0.7612
10409TIP3    H152642   6.002   1.546  11.589 -0.6647 -0.4031  0.2401
10409TIP3    H252643   6.005   1.522  11.739  0.3897 -0.2765  0.2481
10410TIP3   OH252644   6.308   2.049  11.198  0.7840 -0.3908  0.4814
10410TIP3    H152645   6.260   1.973  11.230  0.4786 -1.4338 -2.2452
10410TIP3    H252646   6.241   2.116  11.184  0.5852 -0.7373 -0.2260
10411TIP3   OH252647   3.974   5.504   4.467  0.0058 -0.2744 -0.4436
10411TIP3    H152648   3.937   5.589   4.447  0.1057 -0.0384  0.3256
10411TIP3    H252649   3.901   5.454   4.503  0.8760  1.1867  4.0785
10412TIP3   OH252650   3.313   6.207   2.751 -0.5108 -0.5965 -0.0380
10412TIP3    H152651   3.237   6.187   2.696 -0.7043 -0.2531  0.1027
10412TIP3    H252652   3.285   6.187   2.840 -2.0134  3.6027  0.6582
10413TIP3   OH252653   1.728   0.344  12.936  0.3719  0.1193  0.4218
10413TIP3    H152654   1.734   0.303  13.022  0.9975  1.3026  0.9735
10413TIP3    H252655   1.812   0.326  12.894 -0.5436 -1.9216 -0.6753
10414TIP3   OH252656   4.575   6.782  12.718 -0.8200  0.0931  0.3290
10414TIP3    H152657   4.562   6.703  12.666  0.4546  0.5311 -0.7209
10414TIP3    H252658   4.627   6.753  12.793  1.8789  0.2857 -1.3389
10415TIP3   OH252659   1.305   3.422  14.354 -0.0073  0.7031 -0.1399
10415TIP3    H152660   1.376   3.470  14.396 -0.1026 -0.2904  1.2356
10415TIP3    H252661   1.291   3.467  14.271  0.7403  2.2539  0.5357
10416TIP3   OH252662   3.437   3.681  12.747 -0.0449 -0.3970  0.2548
10416TIP3    H152663   3.409   3.618  12.681 -1.3064  0.2851  0.1066
10416TIP3    H252664   3.371   3.676  12.816  0.3544  0.0804  0.6861
10417TIP3   OH252665   2.467   1.768   4.394 -0.3248  0.1709 -0.0281
10417TIP3    H152666   2.537   1.834   4.389 -1.8933  1.8432 -0.9000
10417TIP3    H252667   2.459   1.735   4.305 -0.5815 -0.1060  0.0963
10418TIP3   OH252668   5.883   0.049  11.285 -0.8164 -0.4383 -0.1700
10418TIP3    H152669   5.857   0.050  11.193 -0.8018 -0.9735 -0.1801
10418TIP3    H252670   5.969   0.007  11.286 -1.0411 -0.8999  0.1428
10419TIP3   OH252671   1.700   6.297   3.639  0.2837 -0.1385 -0.2769
10419TIP3    H152672   1.721   6.215   3.683  0.8107 -0.0917 -0.4393
10419TIP3    H252673   1.765   6.360   3.672 -1.2011  0.6947  1.2321
10420TIP3   OH252674   1.497   2.445  17.182 -0.1699 -0.0941 -0.0517
10420TIP3    H152675   1.478   2.445  17.276  0.6237  2.3388  0.1832
10420TIP3    H252676   1.553   2.522  17.169  0.4232 -0.8384 -2.4009
10421TIP3   OH252677   4.813   6.656  10.599  0.5668 -0.4589 -0.0803
10421TIP3    H152678   4.810   6.561  10.586 -1.3589 -0.7541  1.9566
10421TIP3    H252679   4.898   6.672  10.640 -0.0318 -1.7117  1.8117
10422TIP3   OH252680   3.600   3.532  14.675 -0.2105  0.1860  0.1668
10422TIP3    H152681   3.623   3.572  14.591 -1.9105  0.1440 -0.3632
10422TIP3    H252682   3.559   3.448  14.650 -1.9040  0.7490  0.9325
10423TIP3   OH252683   4.238   6.248  15.083 -0.0169 -0.1477 -0.5044
10423TIP3    H152684   4.329   6.256  15.057 -0.1811 -0.3596 -1.1620
10423TIP3    H252685   4.189   6.294  15.015 -0.4428 -0.5987 -0.5147
10424TIP3   OH252686   0.347   4.591  15.387 -0.9399  0.4018 -0.7340
10424TIP3    H152687   0.318   4.559  15.472 -1.4457  1.0932 -0.6326
10424TIP3    H252688   0.435   4.624  15.403 -1.9248  2.9074  0.1895
10425TIP3   OH252689   3.827   3.440   0.406  0.3143 -0.2861 -0.0245
10425TIP3    H152690   3.883   3.443   0.329  0.4888  0.1488  0.1154
10425TIP3    H252691   3.742   3.472   0.375  0.5587  0.5205  0.1004
10426TIP3   OH252692   6.726   5.103   4.583  0.3543 -0.6032 -0.0773
10426TIP3    H152693   6.754   5.025   4.631 -2.2546 -1.1381  0.7905
10426TIP3    H252694   6.752   5.176   4.638  0.8416 -0.9958  0.2205
10427TIP3   OH252695   6.229   4.424  11.173  0.4033 -1.1061  0.0310
10427TIP3    H152696   6.148   4.393  11.132  0.7991 -1.4244 -0.5239
10427TIP3    H252697   6.287   4.444  11.099  0.7853 -0.7522  0.4220
10428TIP3   OH252698   5.949   0.444  14.090  0.4311  0.2208  0.4710
10428TIP3    H152699   5.889   0.373  14.114 -2.3569  1.0097 -3.1130
10428TIP3    H252700   6.016   0.402  14.036 -1.1173  0.1481 -1.5040
10429TIP3   OH252701   1.888   5.784   3.252 -0.3765  0.2780 -0.0414
10429TIP3    H152702   1.981   5.790   3.273 -0.4984 -1.0235  0.9235
10429TIP3    H252703   1.880   5.706   3.197 -0.5657  1.7563 -2.2449
10430TIP3   OH252704   2.772   6.541   6.312  0.2721 -0.0078  0.4820
10430TIP3    H152705   2.735   6.453   6.311  0.7861 -0.2776 -1.8478
10430TIP3    H252706   2.696   6.599   6.319 -0.0363 -0.5809  2.5729
10431TIP3   OH252707   2.371   6.407   4.967  0.1743  0.3962 -0.6800
10431TIP3    H152708   2.380   6.314   4.947 -0.8656 -0.3275  1.8156
10431TIP3    H252709   2.306   6.410   5.037 -0.5611  3.1171 -1.3601
10432TIP3   OH252710   2.925   0.916   3.685  0.5455 -0.1753  1.1948
10432TIP3    H152711   2.983   0.956   3.620  0.9761 -1.3320  0.8339
10432TIP3    H252712   2.917   0.825   3.657 -2.4526  0.2010  0.5230
10433TIP3   OH252713   1.450   5.489  15.407 -0.2959 -0.3839 -0.3202
10433TIP3    H152714   1.447   5.584  15.396  0.2079 -0.5999 -3.0633
10433TIP3    H252715   1.463   5.477  15.501  0.2174  2.2649  0.0472
10434TIP3   OH252716   4.263   3.863   3.100 -0.3414  0.4841  0.1942
10434TIP3    H152717   4.272   3.941   3.045 -2.4215  2.1507  2.0655
10434TIP3    H252718   4.177   3.871   3.140 -0.9260 -3.1163  0.0547
10435TIP3   OH252719   1.192   2.952   5.764  0.1581 -0.4764  0.6248
10435TIP3    H152720   1.269   2.902   5.790 -0.0154 -0.3014  1.5163
10435TIP3    H252721   1.204   3.038   5.804 -0.4738 -0.4340  0.7378
10436TIP3   OH252722   6.478   5.808  17.032 -0.1110 -0.3170 -0.2776
10436TIP3    H152723   6.411   5.795  17.099 -0.4099 -0.2451 -0.5604
10436TIP3    H252724   6.520   5.891  17.055 -2.7853  1.7821 -2.3200
10437TIP3   OH252725   0.105   2.094   2.235  0.1638  0.5199 -0.3282
10437TIP3    H152726   0.126   2.034   2.163 -0.4974 -0.8607  0.5758
10437TIP3    H252727   0.147   2.054   2.312  0.5036  1.7443  0.1497
10438TIP3   OH252728   0.548   3.616  15.455  0.2162  0.0216  0.1104
10438TIP3    H152729   0.519   3.581  15.371  1.7157  0.4697 -0.6217
10438TIP3    H252730   0.569   3.708  15.437  0.3600  0.1826  1.0349
10439TIP3   OH252731   2.962   5.004   5.815 -0.1194  0.4395 -0.6932
10439TIP3    H152732   2.912   5.028   5.737 -1.3980  1.2159  0.3132
10439TIP3    H252733   3.019   5.079   5.831 -1.9235  1.6139  0.7007
10440TIP3   OH252734   5.635   2.404  12.903  0.5943 -0.2019 -0.0806
10440TIP3    H152735   5.627   2.459  12.825  1.4493 -0.8934 -0.6772
10440TIP3    H252736   5.546   2.379  12.925  0.4912 -2.4142 -2.6158
10441TIP3   OH252737   1.651   1.592   6.470 -0.4194  0.8148  0.2279
10441TIP3    H152738   1.733   1.614   6.514 -0.2882  1.2359 -0.2249
10441TIP3    H252739   1.662   1.500   6.445 -0.6267  0.4657  1.3547
10442TIP3   OH252740   5.705   0.350  16.810 -0.3884 -0.3209  0.0503
10442TIP3    H152741   5.641   0.392  16.752  0.9034  0.2975 -0.9586
10442TIP3    H252742   5.764   0.304  16.752 -0.1554 -1.2611  1.0072
10443TIP3   OH252743   1.965   3.286   5.053 -0.1596  0.7845 -0.1421
10443TIP3    H152744   1.930   3.338   5.126 -0.5456  0.2293  0.0765
10443TIP3    H252745   1.887   3.255   5.006  0.0966  1.7296 -1.2282
10444TIP3   OH252746   4.053   1.589  12.743  0.3328  0.2978 -0.2505
10444TIP3    H152747   4.084   1.669  12.701  1.4711  0.0064  0.0133
10444TIP3    H252748   4.005   1.543  12.673  2.2135 -0.1965 -1.2892
10445TIP3   OH252749   5.107   0.339  17.131  0.1847 -0.3297 -0.3010
10445TIP3    H152750   5.152   0.279  17.071 -2.4281 -0.0908 -2.7116
10445TIP3    H252751   5.076   0.284  17.202  1.1240 -1.1039 -0.4701
10446TIP3   OH252752   4.681   3.242  11.271 -0.0237  0.4700 -0.5954
10446TIP3    H152753   4.595   3.262  11.309  0.0764  0.7737 -0.5243
10446TIP3    H252754   4.710   3.325  11.233  1.2531  0.9814  1.3649
10447TIP3   OH252755   0.919   0.336   3.820  0.0555 -0.6901  0.1581
10447TIP3    H152756   0.835   0.298   3.793 -0.9628  0.3564  1.7117
10447TIP3    H252757   0.976   0.260   3.833 -1.3309 -1.6120  1.2767
10448TIP3   OH252758   2.055   0.584  16.614  0.0760 -0.1146 -0.3842
10448TIP3    H152759   2.103   0.542  16.542 -1.7984 -1.2412 -1.0455
10448TIP3    H252760   1.986   0.634  16.571 -0.8964 -0.5777  0.5878
10449TIP3   OH252761   1.499   1.463  11.118 -0.4536 -0.4564  0.5854
10449TIP3    H152762   1.589   1.449  11.147 -0.2482 -0.5048 -0.0685
10449TIP3    H252763   1.475   1.383  11.072  0.4977  0.9028 -2.5968
10450TIP3   OH252764   0.768   4.716  13.770 -0.0263 -0.3930  0.1842
10450TIP3    H152765   0.723   4.733  13.853 -1.4062 -2.4046 -0.0864
10450TIP3    H252766   0.857   4.748  13.785 -0.8974  1.6253  1.5213
10451TIP3   OH252767   6.658   1.952   4.174  0.4389  0.0875 -1.3353
10451TIP3    H152768   6.698   1.879   4.222  1.2483  2.1703  1.4137
10451TIP3    H252769   6.710   1.958   4.094  1.3850 -1.3647 -0.8901
10452TIP3   OH252770   1.982   0.568  10.998 -0.5405  0.7598  0.1338
10452TIP3    H152771   1.914   0.555  11.063 -1.0480  1.4227 -0.2558
10452TIP3    H252772   1.939   0.616  10.927  0.1504  0.5708 -0.4284
10453TIP3   OH252773   3.102   3.456  15.531  0.3175 -0.4774  0.5786
10453TIP3    H152774   3.172   3.474  15.469  0.4353  1.5191  1.2444
10453TIP3    H252775   3.025   3.442  15.477  0.7409 -0.3355 -0.0668
10454TIP3   OH252776   5.218   5.034  16.958  0.7243  0.3937  0.2093
10454TIP3    H152777   5.214   4.946  16.921 -0.0371 -0.3971  2.0506
10454TIP3    H252778   5.199   5.022  17.051 -0.4006  2.6247  0.3327
10455TIP3   OH252779   2.253   5.749  11.967  0.2409 -0.9711 -0.4371
10455TIP3    H152780   2.220   5.661  11.950  2.0984 -1.7166 -0.4418
10455TIP3    H252781   2.321   5.737  12.034  0.1770  0.5269 -0.0648
10456TIP3   OH252782   2.091   1.601  11.783 -0.0551  0.1536 -0.5125
10456TIP3    H152783   2.028   1.645  11.842  1.5577  0.7399  0.8662
10456TIP3    H252784   2.142   1.545  11.841  1.9891  1.1992 -1.2212
10457TIP3   OH252785   4.785   1.512   3.715 -0.6909 -0.8433  0.1009
10457TIP3    H152786   4.770   1.592   3.664  0.1160 -1.1355 -0.6164
10457TIP3    H252787   4.852   1.535   3.779  0.3618 -1.2242 -0.8347
10458TIP3   OH252788   3.446   6.388  14.959 -0.2066 -0.9073 -0.1067
10458TIP3    H152789   3.449   6.414  15.051 -0.9751 -2.1533  0.2894
10458TIP3    H252790   3.511   6.317  14.953 -1.9098 -2.5545  0.0845
10459TIP3   OH252791   1.929   4.343   1.989  0.4440  0.3153 -0.7140
10459TIP3    H152792   1.901   4.430   1.961  1.0820  0.3555 -1.2378
10459TIP3    H252793   1.967   4.303   1.910 -0.1591 -0.5721 -0.5768
10460TIP3   OH252794   0.034   4.652   5.307  0.1527 -0.3529  0.4095
10460TIP3    H152795   0.022   4.615   5.395  1.3174  0.4075  0.9273
10460TIP3    H252796   0.061   4.578   5.253  1.5277 -0.4620  1.2056
10461TIP3   OH252797   2.791   0.058  16.974 -0.4804  0.1691  0.2518
10461TIP3    H152798   2.804   0.120  17.045  0.0955 -0.6484  0.8779
10461TIP3    H252799   2.869   0.002  16.976 -1.3872 -1.1326  0.2813
10462TIP3   OH252800   3.760   3.893   4.708  0.6646  0.2478 -0.6923
10462TIP3    H152801   3.758   3.839   4.628 -1.0310 -0.4871 -0.2017
10462TIP3    H252802   3.756   3.983   4.676  1.7267  0.0420 -1.4729
10463TIP3   OH252803   4.745   0.888  14.933 -0.0757  0.2782 -0.0261
10463TIP3    H152804   4.749   0.883  15.028 -1.3788  0.4138  0.0535
10463TIP3    H252805   4.805   0.820  14.902  1.7779  1.4343  0.8623
10464TIP3   OH252806   1.819   5.655   0.516  0.4158 -0.1453  0.1939
10464TIP3    H152807   1.773   5.601   0.580 -0.3650  0.8234  0.4837
10464TIP3    H252808   1.868   5.593   0.462 -0.0720 -1.0885  0.8147
10465TIP3   OH252809   5.901   0.854   1.212  0.9664  0.6028 -0.4607
10465TIP3    H152810   5.869   0.798   1.141  1.7813  2.1615 -2.1571
10465TIP3    H252811   5.847   0.933   1.206 -1.5758 -0.5803  3.1982
10466TIP3   OH252812   5.888   6.742  16.833 -0.0228  0.1318 -0.0461
10466TIP3    H152813   5.899   6.821  16.886  1.5841  1.3537 -2.0450
10466TIP3    H252814   5.899   6.669  16.894  1.6907  1.4581  1.3230
10467TIP3   OH252815   1.468   0.763   6.334 -0.6046 -0.0569  0.1757
10467TIP3    H152816   1.518   0.768   6.416  0.6190 -0.5384 -0.5250
10467TIP3    H252817   1.386   0.808   6.354 -0.0528  0.4289  1.4669
10468TIP3   OH252818   4.917   3.969   3.484  0.4760  0.5283  0.3271
10468TIP3    H152819   4.954   3.898   3.537  0.0239  1.1320  1.4850
10468TIP3    H252820   4.822   3.955   3.488  0.4208  0.7380 -0.1223
10469TIP3   OH252821   5.396   4.544  11.573  0.0915 -0.2517  0.1078
10469TIP3    H152822   5.324   4.501  11.619 -1.6014  1.1601 -1.0776
10469TIP3    H252823   5.359   4.571  11.489  1.5748  1.8431  0.0341
10470TIP3   OH252824   1.213   0.097  16.740 -0.1073  0.2113  0.0286
10470TIP3    H152825   1.270   0.100  16.817 -0.2347 -0.0185  0.1332
10470TIP3    H252826   1.270   0.119  16.667 -0.1126  1.0318  0.2555
10471TIP3   OH252827   0.897   4.118  15.803  0.4651  0.1739 -0.0989
10471TIP3    H152828   0.885   4.140  15.710  1.0419  0.1881 -0.1689
10471TIP3    H252829   0.808   4.102  15.835  0.4331 -2.8145 -1.3765
10472TIP3   OH252830   0.179   1.950   4.928 -0.2907  0.0072 -0.6688
10472TIP3    H152831   0.089   1.930   4.903 -1.7208  2.2525  2.1169
10472TIP3    H252832   0.175   1.964   5.023  2.6717  1.7105 -0.6812
10473TIP3   OH252833   3.030   4.948  16.987  0.0507  0.1244  0.3463
10473TIP3    H152834   2.990   4.916  16.907 -0.0814 -1.2486  0.9332
10473TIP3    H252835   3.124   4.946  16.969  0.3050 -3.5422  1.2948
10474TIP3   OH252836   1.706   0.652   0.360  0.0005  0.1769 -0.0735
10474TIP3    H152837   1.755   0.571   0.372  1.2283  0.9775  0.5611
10474TIP3    H252838   1.662   0.666   0.444 -0.2347  0.1555 -0.1926
10475TIP3   OH252839   2.123   5.003  13.640 -0.4667  0.5321  0.3538
10475TIP3    H152840   2.147   4.921  13.596  1.6175  0.2246  1.8910
10475TIP3    H252841   2.176   5.070  13.596  0.8112  0.3849  1.5713
10476TIP3   OH252842   3.927   2.442  16.905 -0.1668 -0.2165 -0.2522
10476TIP3    H152843   3.984   2.371  16.877  1.9722  1.2286  0.1724
10476TIP3    H252844   3.939   2.510  16.838  0.5778  1.0515  1.1064
10477TIP3   OH252845   3.240   0.460  16.725 -0.0265 -0.6557  0.0889
10477TIP3    H152846   3.183   0.532  16.699 -0.2698 -0.3627  1.3751
10477TIP3    H252847   3.239   0.461  16.821  3.8550  0.7584  0.2908
10478TIP3   OH252848   6.433   6.635  11.223  0.5385  0.4380  0.0646
10478TIP3    H152849   6.346   6.605  11.194  0.6412  0.4086 -0.2174
10478TIP3    H252850   6.470   6.677  11.146  0.0393  2.1142  0.6772
10479TIP3   OH252851   6.333   0.533  15.837 -0.2860 -0.3084 -0.3406
10479TIP3    H152852   6.280   0.606  15.806 -0.9280 -0.9954 -0.8812
10479TIP3    H252853   6.300   0.515  15.925  0.2945  0.4387  0.0470
10480TIP3   OH252854   5.584   2.888   2.692  0.0112 -0.1455 -0.2746
10480TIP3    H152855   5.660   2.860   2.641 -0.0449  0.1315 -0.5180
10480TIP3    H252856   5.509   2.861   2.639 -0.1740 -2.9297  1.2352
10481TIP3   OH252857   0.152   4.688  11.434 -0.0045  0.2381  0.0081
10481TIP3    H152858   0.202   4.618  11.476 -1.5366 -1.5298 -0.9434
10481TIP3    H252859   0.089   4.715  11.500  0.9622  1.1759  0.5771
10482TIP3   OH252860   6.709   3.027   4.882 -0.0303 -0.6774 -0.1284
10482TIP3    H152861   6.660   3.063   4.809  0.9313 -0.4072 -0.6617
10482TIP3    H252862   6.793   3.000   4.844  0.2842 -1.0140  0.7719
10483TIP3   OH252863   3.580   5.195   2.345 -0.0923 -0.4277 -0.2466
10483TIP3    H152864   3.657   5.146   2.319 -1.8670 -1.8553 -3.4497
10483TIP3    H252865   3.591   5.282   2.306  0.5150 -0.1247  0.5787
10484TIP3   OH252866   2.514   6.712  14.894  0.1565 -0.7613  0.3069
10484TIP3    H152867   2.475   6.792  14.930 -0.0751 -0.7170 -0.0436
10484TIP3    H252868   2.442   6.665  14.854  0.5061 -0.5254 -0.6212
10485TIP3   OH252869   5.728   5.412  10.773  0.4350  0.5424  0.1281
10485TIP3    H152870   5.770   5.362  10.703  0.1806 -0.3407  0.5897
10485TIP3    H252871   5.634   5.401  10.757  0.3239 -1.4417  1.7845
10486TIP3   OH252872   0.230   0.210  14.906 -0.7040 -0.2026  0.2225
10486TIP3    H152873   0.192   0.285  14.862 -0.4493 -0.3617 -0.2835
10486TIP3    H252874   0.312   0.194  14.859  0.8566  1.1481  2.2995
10487TIP3   OH252875   2.396   3.445   1.515  0.1571  0.1570  0.3372
10487TIP3    H152876   2.392   3.393   1.595  0.2266  0.9624  0.8775
10487TIP3    H252877   2.362   3.530   1.540  0.2062  0.4289 -0.4882
10488TIP3   OH252878   1.463   4.269  13.474 -0.0177  0.0903  0.0986
10488TIP3    H152879   1.424   4.208  13.535  0.4698 -0.6898 -0.3483
10488TIP3    H252880   1.463   4.353  13.520 -1.2399 -0.1138  0.4896
10489TIP3   OH252881   0.388   3.134   0.745 -0.4544  0.6065 -0.0389
10489TIP3    H152882   0.341   3.062   0.787 -0.2885  0.9681  0.8013
10489TIP3    H252883   0.481   3.113   0.759 -0.3867  0.4701 -0.6844
10490TIP3   OH252884   3.091   1.508  13.546 -0.4391 -0.0164 -0.5413
10490TIP3    H152885   2.996   1.494  13.546 -0.3422 -0.7611 -1.3744
10490TIP3    H252886   3.120   1.479  13.459  0.7239 -1.0532  0.1595
10491TIP3   OH252887   3.299   4.987   2.021 -0.1271  0.4792  0.4953
10491TIP3    H152888   3.343   5.066   1.989 -0.0958  0.2430 -0.0698
10491TIP3    H252889   3.214   4.988   1.977 -0.9424  1.2398  2.0298
10492TIP3   OH252890   1.996   5.001  12.969  0.2479 -0.0085 -0.2168
10492TIP3    H152891   1.930   4.960  12.913 -0.4164 -2.2701  2.0089
10492TIP3    H252892   1.975   4.970  13.057  2.4190  1.7593  1.0343
10493TIP3   OH252893   6.432   3.959  16.970  0.2398 -0.0729  0.3164
10493TIP3    H152894   6.359   4.017  16.989 -0.9151 -1.6457  0.8581
10493TIP3    H252895   6.498   4.015  16.930 -1.3921  1.3129 -0.5003
10494TIP3   OH252896   4.442   3.127  14.628 -0.0774  0.1209 -0.1293
10494TIP3    H152897   4.491   3.207  14.611  0.6605 -0.4673 -0.8457
10494TIP3    H252898   4.383   3.119  14.553  0.6267 -0.5713 -0.6228
10495TIP3   OH252899   3.938   1.700  16.444 -0.0900 -0.2085  0.7472
10495TIP3    H152900   3.989   1.779  16.460 -0.2518 -0.3090  1.8015
10495TIP3    H252901   3.849   1.732  16.428  0.2497 -0.0349 -1.0695
10496TIP3   OH252902   3.185   6.615  16.743 -0.3741 -0.4504 -0.0155
10496TIP3    H152903   3.156   6.605  16.652  1.5494  0.2666 -0.7488
10496TIP3    H252904   3.176   6.528  16.780  0.8038 -1.2567 -1.5217
10497TIP3   OH252905   5.105   3.348  12.230 -0.4009  0.3705  0.5949
10497TIP3    H152906   5.085   3.360  12.137  0.8033 -0.2706  0.2218
10497TIP3    H252907   5.102   3.437  12.267  0.5963  0.8394 -0.3926
10498TIP3   OH252908   5.927   2.975  16.257  0.0347  0.4863  0.7839
10498TIP3    H152909   5.880   3.041  16.308  0.2843  1.9132 -0.7557
10498TIP3    H252910   5.858   2.924  16.215 -0.2154  1.8666 -0.5791
10499TIP3   OH252911   0.247   5.799   2.448 -0.8965 -0.4059 -0.1119
10499TIP3    H152912   0.340   5.816   2.458 -0.6586 -1.7668  0.2542
10499TIP3    H252913   0.212   5.797   2.537 -0.8453 -1.9513 -0.0929
10500TIP3   OH252914   1.244   0.636  15.774 -0.1573  0.5413  0.5484
10500TIP3    H152915   1.307   0.698  15.811  0.7879  0.2862 -0.5550
10500TIP3    H252916   1.253   0.558  15.829 -1.3286  1.3255  1.9196
10501TIP3   OH252917   0.545   4.376   6.372  0.0215  0.0949 -0.1975
10501TIP3    H152918   0.482   4.370   6.444 -1.0087 -1.1466 -1.1608
10501TIP3    H252919   0.613   4.435   6.405 -0.4063 -0.4484  1.7852
10502TIP3   OH252920   2.516   0.566   2.234 -0.0001 -0.0732 -0.7391
10502TIP3    H152921   2.462   0.573   2.313  0.3885  3.2119 -0.6195
10502TIP3    H252922   2.471   0.502   2.179 -1.4831 -0.8045  1.2085
10503TIP3   OH252923   4.172   6.187   2.298 -0.1159 -0.0765  0.4777
10503TIP3    H152924   4.098   6.241   2.327 -1.1835 -1.1865 -0.0681
10503TIP3    H252925   4.240   6.202   2.363 -0.6619  1.2905  0.7808
10504TIP3   OH252926   1.418   3.645   5.964  0.0562 -0.0508  0.4992
10504TIP3    H152927   1.378   3.731   5.969 -1.1040 -0.5485  0.1007
10504TIP3    H252928   1.477   3.650   5.889 -1.2148 -0.0716 -0.5284
10505TIP3   OH252929   2.571   5.766   2.117 -0.3077  0.0796  0.2865
10505TIP3    H152930   2.652   5.808   2.089 -0.8336 -0.0305 -1.4991
10505TIP3    H252931   2.536   5.726   2.038 -0.9865 -1.7950  1.4807
10506TIP3   OH252932   1.746   0.665  15.015  0.9479  0.0095  0.0468
10506TIP3    H152933   1.772   0.656  15.107 -0.8324 -2.4800  0.3999
10506TIP3    H252934   1.785   0.589  14.972 -0.3431 -0.2486 -0.7007
10507TIP3   OH252935   2.375   5.372   0.924 -0.3184 -0.4564 -0.1801
10507TIP3    H152936   2.350   5.377   1.016  0.2539 -1.1192  0.0193
10507TIP3    H252937   2.414   5.285   0.914 -0.2498 -0.3394 -1.0168
10508TIP3   OH252938   1.870   5.526   2.587 -0.2785  0.3164 -0.3989
10508TIP3    H152939   1.934   5.514   2.657  2.6649 -1.3156 -3.1097
10508TIP3    H252940   1.885   5.615   2.554 -1.1205  0.7969  0.4697
10509TIP3   OH252941   0.941   2.207   2.729 -0.5763  0.7876 -0.4995
10509TIP3    H152942   0.979   2.180   2.645  2.3990  1.8556  0.3594
10509TIP3    H252943   0.941   2.126   2.781  2.3986  1.0208  0.0371
10510TIP3   OH252944   1.593   5.167  15.462 -0.3215  0.1158  0.4769
10510TIP3    H152945   1.652   5.162  15.387 -0.9754  2.4204 -0.2671
10510TIP3    H252946   1.513   5.124  15.431 -0.5238  0.8874 -0.1152
10511TIP3   OH252947   0.605   0.063  12.522  0.5927 -0.0022 -0.1729
10511TIP3    H152948   0.612   0.156  12.544 -2.0133 -0.0068  1.0188
10511TIP3    H252949   0.670   0.020  12.578  1.1360  0.9838 -0.0192
10512TIP3   OH252950   3.155   0.086  17.191  0.5785 -0.1338  0.4335
10512TIP3    H152951   3.062   0.081  17.212  0.7911 -1.8617  1.1924
10512TIP3    H252952   3.185   0.167  17.231 -0.4869  0.1440  0.6970
10513TIP3   OH252953   6.765   0.457   5.995  0.1920  0.1250 -0.8491
10513TIP3    H152954   6.841   0.398   5.999  0.2395  0.2449  0.6576
10513TIP3    H252955   6.714   0.435   6.074  0.2134  2.0881 -0.2463
10514TIP3   OH252956   1.915   1.795  11.284  0.2659 -0.3066 -0.2224
10514TIP3    H152957   1.948   1.752  11.206 -0.1621 -0.7138 -0.1816
10514TIP3    H252958   1.949   1.885  11.278  1.7338 -0.8190  0.0445
10515TIP3   OH252959   3.738   6.521   3.929 -0.2560 -0.4735 -0.0872
10515TIP3    H152960   3.792   6.515   3.850  0.9102 -2.6208  0.7743
10515TIP3    H252961   3.691   6.604   3.920  2.3509  0.9912 -1.4358
10516TIP3   OH252962   1.545   5.606  13.082 -0.0539 -0.0065 -0.6739
10516TIP3    H152963   1.626   5.618  13.131  1.2493  1.6996 -3.0544
10516TIP3    H252964   1.568   5.547  13.011 -1.3179 -0.7040 -0.5261
10517TIP3   OH252965   3.666   5.105   2.601 -0.1477 -0.0201  0.2145
10517TIP3    H152966   3.639   5.136   2.515  1.8770 -0.4448 -0.6427
10517TIP3    H252967   3.629   5.017   2.608 -1.1597  0.4002  0.2297
10518TIP3   OH252968   4.853   0.635   0.060 -0.5576 -0.0719 -0.3473
10518TIP3    H152969   4.815   0.614   0.145  0.0554  0.1975 -0.0008
10518TIP3    H252970   4.810   0.716   0.033 -2.0177 -1.0496 -1.1099
10519TIP3   OH252971   2.219   0.231   6.094  0.0102 -0.2034 -0.4217
10519TIP3    H152972   2.195   0.305   6.150  0.2130  0.6546 -1.4479
10519TIP3    H252973   2.291   0.188   6.140 -0.2946  0.0563  0.3161
10520TIP3   OH252974   3.761   3.793   1.948 -0.5503 -0.4063  0.4934
10520TIP3    H152975   3.734   3.721   1.891  0.8522 -2.3635  2.1733
10520TIP3    H252976   3.856   3.782   1.958 -0.3410  1.5185  1.0405
10521TIP3   OH252977   3.724   4.542   2.009 -0.6371 -0.7133 -0.0587
10521TIP3    H152978   3.676   4.557   1.927 -1.0943 -0.1951  0.2986
10521TIP3    H252979   3.673   4.475   2.054 -1.8922  0.8857  0.9936
10522TIP3   OH252980   2.641   4.391   5.521 -0.1252  0.3251  0.7720
10522TIP3    H152981   2.693   4.391   5.601  0.1438  0.3722  0.5977
10522TIP3    H252982   2.689   4.335   5.461  0.7999  1.9391 -0.0684
10523TIP3   OH252983   3.179   2.880   4.276  0.6926  0.7325  0.1325
10523TIP3    H152984   3.139   2.946   4.219  0.7336 -0.1709 -0.9684
10523TIP3    H252985   3.260   2.855   4.232  0.8785  0.2353  0.7391
10524TIP3   OH252986   2.178   6.664   4.170  0.1646  0.0563  0.6653
10524TIP3    H152987   2.262   6.623   4.147  0.1599  0.0976  0.5711
10524TIP3    H252988   2.116   6.627   4.107  0.6756  2.2435 -1.2519
10525TIP3   OH252989   0.024   2.086   0.542  0.0373  0.1831  0.7118
10525TIP3    H152990  -0.022   2.088   0.626  0.8550  2.2139  1.1813
10525TIP3    H252991   0.036   2.179   0.519 -2.4531 -0.2154 -2.9929
10526TIP3   OH252992   3.988   6.137   4.261  0.6262  0.6600 -0.3726
10526TIP3    H152993   3.911   6.131   4.204 -0.0139  0.6883  0.4718
10526TIP3    H252994   3.968   6.208   4.322 -0.8935 -2.3361  3.0004
10527TIP3   OH252995   6.372   3.745  13.115  0.2003  0.0327 -0.3570
10527TIP3    H152996   6.366   3.656  13.149 -1.8187 -0.8387 -2.6949
10527TIP3    H252997   6.317   3.797  13.174 -3.2138 -1.4235 -1.9701
10528TIP3   OH252998   4.626   5.870   3.541  0.2685 -0.2364 -0.4491
10528TIP3    H152999   4.596   5.926   3.469 -1.4464  1.9434  1.7809
10528TIP3    H253000   4.556   5.805   3.551 -0.7004  0.9067  0.6426
10529TIP3   OH253001   4.912   1.370  14.063 -0.2797 -0.2300  0.1139
10529TIP3    H153002   4.823   1.344  14.085 -1.0666  1.9924 -0.1257
10529TIP3    H253003   4.910   1.382  13.968  0.1195  0.3046  0.1671
10530TIP3   OH253004   4.231   0.933  13.334  0.7667 -0.6967  0.0631
10530TIP3    H153005   4.213   0.965  13.422  2.1666 -1.0196  0.4778
10530TIP3    H253006   4.213   1.009  13.277 -0.8492 -0.6997  0.5178
10531TIP3   OH253007   5.351   2.987   5.693  0.3142  0.1085 -0.2337
10531TIP3    H153008   5.386   2.969   5.780 -1.1842  0.5905  0.5030
10531TIP3    H253009   5.396   3.067   5.665 -0.6095  1.0845  0.9679
10532TIP3   OH253010   5.595   4.800   0.725  0.2991 -0.1284  0.4706
10532TIP3    H153011   5.679   4.804   0.679  1.5974 -1.5142  2.5595
10532TIP3    H253012   5.618   4.780   0.816 -2.1800  1.5877  1.5942
10533TIP3   OH253013   5.043   5.869   5.284  0.2121  0.5855  0.6493
10533TIP3    H153014   5.020   5.776   5.275  1.3058  0.1440  2.0664
10533TIP3    H253015   5.064   5.897   5.195  1.5923 -1.0250  0.4245
10534TIP3   OH253016   6.735   1.360  12.263 -0.2937 -0.7497  0.0143
10534TIP3    H153017   6.654   1.402  12.235  0.1088  0.1070  0.0788
10534TIP3    H253018   6.766   1.415  12.336  1.6210  0.4705 -1.5938
10535TIP3   OH253019   2.960   5.569  11.061 -0.4645  0.4091 -0.3223
10535TIP3    H153020   2.959   5.489  11.010 -0.8902 -0.5903  1.1924
10535TIP3    H253021   2.995   5.544  11.146 -1.3723  1.6457  0.4589
10536TIP3   OH253022   5.034   3.389   2.550 -0.1019  0.4012  0.1476
10536TIP3    H153023   4.964   3.439   2.592 -1.4776 -1.0230 -0.3405
10536TIP3    H253024   5.002   3.298   2.551  1.6932 -0.2757 -0.2147
10537TIP3   OH253025   4.277   3.245  11.213  0.2242  0.2949  0.1581
10537TIP3    H153026   4.195   3.234  11.261 -0.0545  1.6932  0.0454
10537TIP3    H253027   4.283   3.339  11.197  1.0870  0.0339 -1.1942
10538TIP3   OH253028   0.620   1.757   3.379  0.2734 -0.1664  0.0198
10538TIP3    H153029   0.615   1.743   3.474 -1.4972 -2.5839 -0.3299
10538TIP3    H253030   0.532   1.788   3.355  0.4666 -0.3231 -0.9270
10539TIP3   OH253031   4.828   4.935  16.297 -0.5470 -0.2366 -0.2528
10539TIP3    H153032   4.849   5.001  16.231 -1.4217  0.4043  0.0914
10539TIP3    H253033   4.909   4.886  16.310 -0.1731  0.1081 -1.2640
10540TIP3   OH253034   6.562   4.109   3.499  0.4976  0.1000 -0.1338
10540TIP3    H153035   6.514   4.072   3.424  0.1212 -2.0433  1.0891
10540TIP3    H253036   6.500   4.172   3.537 -0.4478 -0.8964  0.0310
10541TIP3   OH253037   3.882   4.656   5.309  0.0976  0.9283  0.3047
10541TIP3    H153038   3.797   4.621   5.337 -0.0030 -0.3927 -1.4634
10541TIP3    H253039   3.942   4.581   5.316  0.4076  0.9771 -1.3808
10542TIP3   OH253040   0.405   6.193  14.288  0.1147  0.2090 -0.8093
10542TIP3    H153041   0.499   6.208  14.301  0.0826  0.2189 -0.5782
10542TIP3    H253042   0.398   6.098  14.275  0.1996  0.2590 -1.2104
10543TIP3   OH253043   0.560   1.209   0.125  0.2576 -0.0623  0.1587
10543TIP3    H153044   0.505   1.157   0.185 -1.3285  3.0714  1.6657
10543TIP3    H253045   0.650   1.192   0.154 -0.4091  0.4287  2.7447
10544TIP3   OH253046   3.492   5.385  16.968 -0.1989 -0.0067  0.3966
10544TIP3    H153047   3.497   5.291  16.949  0.3652 -0.0405  0.6884
10544TIP3    H253048   3.446   5.389  17.052  2.5665 -0.2477  2.0208
10545TIP3   OH253049   5.861   0.925  15.866 -0.0594 -0.6587  0.1977
10545TIP3    H153050   5.921   0.861  15.905 -0.4487 -1.1601 -0.0071
10545TIP3    H253051   5.832   0.884  15.785 -0.0639 -0.0758 -0.1003
10546TIP3   OH253052   3.024   2.970   5.031 -0.4396 -0.5081  0.1556
10546TIP3    H153053   2.977   2.934   5.107  0.0217 -2.9849 -0.6399
10546TIP3    H253054   2.971   2.943   4.956  0.4514 -0.3076 -0.5561
10547TIP3   OH253055   2.121   3.933   0.761 -0.2960  0.3570 -0.6199
10547TIP3    H153056   2.145   3.843   0.739 -0.1397  0.5427 -1.2273
10547TIP3    H253057   2.140   3.983   0.682 -1.7725  0.6900 -0.7806
10548TIP3   OH253058   2.776   3.916   3.210  0.4027 -0.2684  0.0565
10548TIP3    H153059   2.793   3.946   3.299  2.4939 -1.2377  0.0334
10548TIP3    H253060   2.796   3.992   3.155 -0.7915  0.2983  0.3705
10549TIP3   OH253061   1.490   3.187  10.922  0.1649 -0.2029  0.2216
10549TIP3    H153062   1.422   3.127  10.893  0.6021 -1.1530  1.1232
10549TIP3    H253063   1.571   3.136  10.920  1.2392  1.3218 -2.3966
10550TIP3   OH253064   4.726   4.899   4.925  0.0537  0.0627  0.6561
10550TIP3    H153065   4.650   4.849   4.895 -0.7318  0.9531  1.1134
10550TIP3    H253066   4.703   4.990   4.908  0.5437  0.4261  1.8748
10551TIP3   OH253067   3.664   1.833  13.832  0.4917 -0.2689  0.1794
10551TIP3    H153068   3.677   1.741  13.853 -1.7973 -0.4362  1.1374
10551TIP3    H253069   3.594   1.834  13.767 -0.4897  0.7974  1.1839
10552TIP3   OH253070   3.578   0.231   1.061  0.3644  0.6023  0.2396
10552TIP3    H153071   3.580   0.293   0.988 -3.0762  0.6896  0.0454
10552TIP3    H253072   3.539   0.281   1.133 -1.2197 -0.8879  0.4730
10553TIP3   OH253073   4.518   0.474   2.802  0.1689  0.5943  0.1852
10553TIP3    H153074   4.574   0.420   2.745 -0.8162 -0.0997 -0.1451
10553TIP3    H253075   4.504   0.420   2.879 -0.9135  0.3155 -0.1938
10554TIP3   OH253076   2.199   1.559   3.602 -0.2356 -0.0064 -0.1920
10554TIP3    H153077   2.156   1.553   3.687 -0.6234  1.4386 -0.2639
10554TIP3    H253078   2.273   1.619   3.617 -0.7730  0.8932 -1.0399
10555TIP3   OH253079   3.276   1.478   6.553 -0.0671 -0.0990 -0.3702
10555TIP3    H153080   3.342   1.523   6.500  0.8150 -1.2644 -0.3209
10555TIP3    H253081   3.304   1.491   6.643 -0.7417  0.6346 -0.2554
10556TIP3   OH253082   2.665   1.315  15.984  0.4728 -0.3084  0.1505
10556TIP3    H153083   2.707   1.231  15.963 -0.3377 -0.8463  0.6008
10556TIP3    H253084   2.582   1.290  16.025  0.0189  0.7197 -0.1124
10557TIP3   OH253085   5.365   0.364   4.742  0.1771 -0.2549  0.1400
10557TIP3    H153086   5.450   0.322   4.754 -0.0705 -1.0759 -0.8156
10557TIP3    H253087   5.303   0.307   4.787 -0.1029 -0.7019 -0.7835
10558TIP3   OH253088   3.408   1.890  11.364 -0.1876  0.6147  0.7195
10558TIP3    H153089   3.488   1.862  11.409 -0.1542 -0.1313  0.2150
10558TIP3    H253090   3.419   1.858  11.275 -1.0775  0.4649  0.6592
10559TIP3   OH253091   6.724   0.778  16.650 -0.6580 -0.2556  0.4508
10559TIP3    H153092   6.707   0.743  16.737  0.8313  2.5018  1.9744
10559TIP3    H253093   6.643   0.822  16.626 -0.2562  1.2523  1.6902
10560TIP3   OH253094   5.407   6.748  15.575  0.0928  0.7013  0.1890
10560TIP3    H153095   5.347   6.688  15.620  0.5137 -1.2643 -1.7287
10560TIP3    H253096   5.351   6.798  15.516 -0.0013  0.9150  0.4527
10561TIP3   OH253097   4.883   6.097  13.921  0.1938  0.2653  0.2962
10561TIP3    H153098   4.836   6.022  13.958 -1.1790  0.7806 -0.3493
10561TIP3    H253099   4.837   6.117  13.840  0.5856  1.7613  0.4162
10562TIP3   OH253100   2.937   5.578  16.327  0.0207  0.0105  0.1131
10562TIP3    H153101   2.918   5.484  16.325 -0.4676  0.0798  1.1303
10562TIP3    H253102   2.853   5.620  16.308 -0.3738  0.2701  2.2149
10563TIP3   OH253103   3.342   5.327   4.163 -0.1175 -0.0780  0.0573
10563TIP3    H153104   3.434   5.308   4.148  0.0060  0.4274  0.1409
10563TIP3    H253105   3.295   5.264   4.108  0.2876  0.1044 -0.5061
10564TIP3   OH253106   2.887   6.692  13.733  1.0063 -0.1317 -0.0213
10564TIP3    H153107   2.860   6.673  13.644  1.2889 -0.1254 -0.1108
10564TIP3    H253108   2.907   6.786  13.733 -0.4384  0.1904  0.4306
10565TIP3   OH253109   1.895   1.483  14.255  0.0209  0.0815  0.1967
10565TIP3    H153110   1.893   1.569  14.297  1.4334  0.5124 -0.5273
10565TIP3    H253111   1.815   1.480  14.202  0.5583  1.5153 -0.7740
10566TIP3   OH253112   2.324   0.557   3.739 -0.3226 -0.0384 -0.5117
10566TIP3    H153113   2.247   0.506   3.762  0.7119 -1.9351 -0.9875
10566TIP3    H253114   2.398   0.504   3.772  0.7927  1.6182 -0.2191
10567TIP3   OH253115   1.935   3.208   4.723  0.6126  0.1536  0.0229
10567TIP3    H153116   2.018   3.251   4.743  1.4067 -0.6100 -1.5566
10567TIP3    H253117   1.932   3.132   4.781  1.2771 -0.1370 -0.3287
10568TIP3   OH253118   2.849   1.734  15.753  0.1070  0.0379 -0.2347
10568TIP3    H153119   2.942   1.756  15.750 -0.3858  2.4083  0.0623
10568TIP3    H253120   2.814   1.767  15.670 -1.0252  2.3291  1.0504
10569TIP3   OH253121   4.743   6.674  16.919 -0.4225 -0.1298  0.1118
10569TIP3    H153122   4.820   6.686  16.863 -1.1949  0.3327 -0.8850
10569TIP3    H253123   4.779   6.649  17.004  0.7890 -1.1488 -0.6495
10570TIP3   OH253124   3.860   5.609  11.581  0.2143  0.5265  0.0408
10570TIP3    H153125   3.900   5.535  11.535  0.6187  1.3202 -0.9128
10570TIP3    H253126   3.829   5.666  11.511  0.2117  1.4331  0.7700
10571TIP3   OH253127   2.262   5.284   6.114 -0.1403  0.4876 -0.4426
10571TIP3    H153128   2.353   5.298   6.089  0.7699 -0.9322  1.7748
10571TIP3    H253129   2.232   5.369   6.145  0.8865  0.6539  0.1226
10572TIP3   OH253130   6.604   5.241  12.124 -0.7976  0.2192 -0.3209
10572TIP3    H153131   6.665   5.312  12.142 -2.2454  1.5162 -0.2869
10572TIP3    H253132   6.517   5.280  12.135 -1.6632 -1.7029  0.2308
10573TIP3   OH253133   0.382   3.980   6.324 -0.0516  0.3423  0.0632
10573TIP3    H153134   0.451   3.995   6.388 -0.3272  0.2790  0.3787
10573TIP3    H253135   0.416   4.017   6.242 -0.6580  2.6502  0.7678
10574TIP3   OH253136   3.990   6.741  15.445 -0.7695 -0.1915 -0.2952
10574TIP3    H153137   3.931   6.798  15.395  0.9850  0.3430 -1.8704
10574TIP3    H253138   3.975   6.654  15.407 -1.4393 -0.2870  0.1793
10575TIP3   OH253139   5.933   0.931  14.448  0.1650 -0.5289  0.0134
10575TIP3    H153140   5.862   0.890  14.399  1.0209 -1.1725 -0.7129
10575TIP3    H253141   5.939   1.020  14.413  0.5662 -0.8862 -0.8529
10576TIP3   OH253142   3.612   0.256   1.933  0.4000  0.4964 -0.8641
10576TIP3    H153143   3.565   0.337   1.949 -0.0673 -0.1768  1.7443
10576TIP3    H253144   3.704   0.280   1.934  0.3307  0.8846  1.2998
10577TIP3   OH253145   1.295   0.269  14.883 -0.0272  0.4678 -0.9672
10577TIP3    H153146   1.376   0.272  14.832 -0.0094 -1.5223 -1.1186
10577TIP3    H253147   1.308   0.197  14.945 -1.4074  0.5739 -0.5287
10578TIP3   OH253148   5.436   0.336   0.101 -0.0232  0.5469 -0.2282
10578TIP3    H153149   5.349   0.375   0.100  1.0161  3.0671  0.8281
10578TIP3    H253150   5.450   0.311   0.192  0.3946  0.2373 -0.3745
10579TIP3   OH253151   1.358   4.045   2.476  0.0793 -0.3137  0.3584
10579TIP3    H153152   1.348   4.036   2.381  0.0508  0.3194  0.2985
10579TIP3    H253153   1.334   4.136   2.494 -0.1703 -0.5015  1.0070
10580TIP3   OH253154   4.505   5.846   1.086 -0.0823  0.2995  0.1041
10580TIP3    H153155   4.593   5.811   1.103 -0.0855 -1.1366 -2.3753
10580TIP3    H253156   4.499   5.850   0.991 -2.2294  1.7114  0.2413
10581TIP3   OH253157   0.978   6.509  10.832 -0.0175 -0.6217 -0.1201
10581TIP3    H153158   1.061   6.556  10.829 -0.5160  0.3752  1.0197
10581TIP3    H253159   1.002   6.419  10.855  0.7607 -0.4064 -0.0915
10582TIP3   OH253160   5.507   5.981  12.923  0.3294  0.0697 -0.1922
10582TIP3    H153161   5.447   5.972  12.998 -1.9266  0.8190 -1.8029
10582TIP3    H253162   5.588   6.016  12.961  0.6077 -2.9129  2.3938
10583TIP3   OH253163   5.830   5.006  14.794 -0.0716  0.2983 -0.2737
10583TIP3    H153164   5.919   4.972  14.786  0.0696  0.9307 -1.8367
10583TIP3    H253165   5.841   5.101  14.799 -0.6467  0.3641 -0.2140
10584TIP3   OH253166   0.458   4.202  12.157 -0.4710 -0.4758 -0.6864
10584TIP3    H153167   0.381   4.255  12.178 -0.9802 -1.5070  0.1657
10584TIP3    H253168   0.460   4.201  12.061 -2.0792 -1.1644 -0.7526
10585TIP3   OH253169   0.768   3.335   5.555 -0.4032  0.1123 -0.0447
10585TIP3    H153170   0.765   3.402   5.486  0.0397 -0.5493 -0.7272
10585TIP3    H253171   0.676   3.312   5.569 -0.4453 -0.8412 -1.5520
10586TIP3   OH253172   6.157   5.027   6.029 -0.3289  0.0841  0.4207
10586TIP3    H153173   6.191   5.057   6.113 -1.0948  0.7638  0.5048
10586TIP3    H253174   6.147   4.933   6.039 -0.5049  0.1760  1.1285
10587TIP3   OH253175   2.909   0.996  15.177  0.5110 -0.1773  0.2789
10587TIP3    H153176   2.988   1.027  15.221  1.9113 -2.7836 -0.2114
10587TIP3    H253177   2.933   0.910  15.141 -1.6436  0.2152 -2.4776
10588TIP3   OH253178   4.556   2.400  12.749 -0.1706  0.0027  0.3642
10588TIP3    H153179   4.535   2.483  12.791 -1.0001  0.7275 -1.3983
10588TIP3    H253180   4.486   2.341  12.776 -0.8370  0.5328 -0.1907
10589TIP3   OH253181   5.741   4.478   5.536 -0.0945  0.0666 -0.2283
10589TIP3    H153182   5.742   4.488   5.441  1.5482  1.1076 -0.1493
10589TIP3    H253183   5.710   4.563   5.569 -0.7218 -0.3090  0.1620
10590TIP3   OH253184   3.695   2.002   3.524  0.3646  0.3177 -0.8266
10590TIP3    H153185   3.601   2.017   3.539 -0.2070 -1.5493 -2.2175
10590TIP3    H253186   3.732   1.993   3.612 -1.0417 -0.4619 -0.2881
10591TIP3   OH253187   1.089   2.768  12.490  0.3069  0.3534 -0.6148
10591TIP3    H153188   1.036   2.847  12.499 -0.2941  0.0194 -1.1329
10591TIP3    H253189   1.136   2.779  12.408  0.0643  0.0904 -0.7944
10592TIP3   OH253190   5.492   0.751   4.668 -0.0066 -0.6021 -0.0055
10592TIP3    H153191   5.402   0.726   4.647 -0.1264 -0.3674  0.2322
10592TIP3    H253192   5.510   0.707   4.752 -0.7529  1.3423  1.2347
10593TIP3   OH253193   4.344   4.990  13.269 -0.0961  0.0139 -0.2443
10593TIP3    H153194   4.334   4.997  13.364 -3.3718 -0.5611 -0.4260
10593TIP3    H253195   4.425   4.941  13.257  0.4530  0.1892  2.2274
10594TIP3   OH253196   0.227   2.343   0.194 -0.0224  0.6972  0.0030
10594TIP3    H153197   0.172   2.357   0.118  0.9306  0.7659 -0.6948
10594TIP3    H253198   0.232   2.428   0.237 -3.3268 -0.0109  2.1398
10595TIP3   OH253199   6.339   6.661   0.976 -0.1464 -0.1611 -0.2381
10595TIP3    H153200   6.305   6.669   0.887  0.5314 -2.3049 -0.7364
10595TIP3    H253201   6.271   6.615   1.025  0.5750 -1.4117 -0.3715
10596TIP3   OH253202   4.874   3.304  12.585  0.1395  0.1493  0.5487
10596TIP3    H153203   4.851   3.294  12.493 -0.0761 -0.6342  0.6789
10596TIP3    H253204   4.845   3.223  12.626  1.9037 -0.3154  0.9792
10597TIP3   OH253205   0.219   0.162  16.415  0.7818  0.2693  0.9481
10597TIP3    H153206   0.235   0.075  16.450  0.9983 -0.5807 -1.1152
10597TIP3    H253207   0.225   0.151  16.320 -1.4663  2.0685  0.5219
10598TIP3   OH253208   3.951   0.007  12.171 -0.8170  0.0880 -0.4220
10598TIP3    H153209   3.983  -0.081  12.187  0.2428  0.4504 -0.4506
10598TIP3    H253210   3.897   0.000  12.093 -0.4267 -0.4641 -0.6454
10599TIP3   OH253211   6.127   0.169  12.964  0.2389  0.8141  0.2058
10599TIP3    H153212   6.190   0.209  13.024 -0.4127 -0.3350  1.7076
10599TIP3    H253213   6.160   0.080  12.951 -1.6007 -0.1967  1.9315
10600TIP3   OH253214   3.112   4.699   4.825  0.0390  0.1321 -0.5179
10600TIP3    H153215   3.081   4.749   4.750  2.1733 -0.9923 -2.2244
10600TIP3    H253216   3.078   4.611   4.811 -1.3217  0.3454  1.0143
10601TIP3   OH253217   3.461   0.774  12.962 -0.0704 -0.0451 -0.4246
10601TIP3    H153218   3.405   0.818  12.897 -1.2874  1.4324  1.4950
10601TIP3    H253219   3.399   0.727  13.019  0.4741  1.8629  1.9204
10602TIP3   OH253220   0.945   0.151   2.984  0.7269 -0.3538  0.4490
10602TIP3    H153221   0.919   0.095   2.910  0.4913 -0.9946  1.0124
10602TIP3    H253222   0.944   0.239   2.947  0.4135 -0.6440 -0.2678
10603TIP3   OH253223   6.433   0.810   5.258  0.9197  0.2992  0.5315
10603TIP3    H153224   6.464   0.725   5.228  2.0276  0.1277  2.0242
10603TIP3    H253225   6.338   0.806   5.249  1.1075 -0.1607 -1.6913
10604TIP3   OH253226   4.085   0.776   2.399 -0.1668 -0.0436 -0.3767
10604TIP3    H153227   4.124   0.862   2.413  3.4941 -1.4296 -0.9485
10604TIP3    H253228   4.041   0.756   2.482 -0.6601  2.1037 -0.0608
10605TIP3   OH253229   5.583   5.760  14.534  0.5530  0.0528 -0.3680
10605TIP3    H153230   5.520   5.825  14.501 -1.2316 -1.7596 -0.7376
10605TIP3    H253231   5.616   5.718  14.455  1.8052  0.5610 -0.1353
10606TIP3   OH253232   2.738   1.331  13.590 -0.0522  0.0455  0.3251
10606TIP3    H153233   2.670   1.307  13.527 -1.4372  0.3895  1.6385
10606TIP3    H253234   2.767   1.247  13.626  0.1984 -0.0965 -0.1850
10607TIP3   OH253235   4.350   3.079  15.755 -0.3193  0.1087  0.6229
10607TIP3    H153236   4.352   3.029  15.836 -2.3611  2.4876  2.2683
10607TIP3    H253237   4.419   3.145  15.765 -0.2691  0.1282  0.1961
10608TIP3   OH253238   1.172   5.120  11.855 -0.5783 -0.7379  0.2076
10608TIP3    H153239   1.159   5.054  11.923  0.3261 -1.9619 -0.7538
10608TIP3    H253240   1.266   5.141  11.860 -0.8513  0.4691  0.4829
10609TIP3   OH253241   6.074   4.475   0.032 -0.4773 -0.1976 -0.0570
10609TIP3    H153242   5.994   4.459   0.080 -0.4135  0.5920  0.3357
10609TIP3    H253243   6.111   4.389   0.016 -0.0199 -0.4546  2.1327
10610TIP3   OH253244   0.171   3.501   0.003 -0.1397 -0.1950  0.3796
10610TIP3    H153245   0.156   3.502  -0.092 -0.4955  1.5725  0.4130
10610TIP3    H253246   0.086   3.483   0.041 -0.8362  2.6152  0.3900
10611TIP3   OH253247   6.112   3.907   2.896  0.0352 -0.1899 -0.9995
10611TIP3    H153248   6.137   3.966   2.825  0.9150  0.3398 -0.2819
10611TIP3    H253249   6.032   3.945   2.932  1.0455  1.1332  0.0095
10612TIP3   OH253250   1.302   5.543  11.214 -0.2585 -0.3306 -0.0087
10612TIP3    H153251   1.252   5.493  11.150  0.2927 -2.5783  1.1836
10612TIP3    H253252   1.389   5.552  11.175 -0.5437  0.2968 -0.5093
10613TIP3   OH253253   4.094   3.290   4.317 -0.2768  0.1706 -0.1734
10613TIP3    H153254   4.014   3.292   4.265  0.9110 -0.7942 -2.1859
10613TIP3    H253255   4.109   3.381   4.343 -1.6620  0.4550 -0.3139
10614TIP3   OH253256   1.295   6.327  16.022  0.3348 -0.1274 -0.0106
10614TIP3    H153257   1.308   6.388  16.094  2.2603  1.3076 -1.4666
10614TIP3    H253258   1.335   6.245  16.053  0.6140  0.2939  0.7673
10615TIP3   OH253259   5.208   1.242  13.005 -0.3298 -0.1111  0.2066
10615TIP3    H153260   5.167   1.201  12.929  1.6375 -0.2020 -0.8589
10615TIP3    H253261   5.193   1.180  13.077 -1.8872 -0.1918 -0.1438
10616TIP3   OH253262   6.366   2.462   0.380  0.5247  0.0878  0.0715
10616TIP3    H153263   6.282   2.507   0.365  0.6371 -0.0320 -0.9987
10616TIP3    H253264   6.347   2.370   0.362  0.1753 -0.4316  2.7359
10617TIP3   OH253265   3.365   4.610   5.732 -0.2947 -0.0278 -0.2465
10617TIP3    H153266   3.442   4.661   5.756 -0.9594  0.2290  1.4453
10617TIP3    H253267   3.301   4.675   5.705 -0.3922 -0.1489 -0.3081
10618TIP3   OH253268   3.304   3.239   4.159  0.3229  0.2250 -0.0729
10618TIP3    H153269   3.385   3.205   4.198 -0.4696 -2.6637 -0.6866
10618TIP3    H253270   3.239   3.229   4.229 -0.0089  0.0252 -0.4034
10619TIP3   OH253271   0.230   4.137  12.425 -0.6697 -0.4560 -0.0359
10619TIP3    H153272   0.317   4.127  12.388 -0.4781  0.2634  0.1964
10619TIP3    H253273   0.171   4.130  12.350 -0.2412  1.8182 -0.6780
10620TIP3   OH253274   6.444   1.056  16.021 -0.2135  0.7623  0.3030
10620TIP3    H153275   6.362   1.084  16.063  0.5809  2.8070  0.6430
10620TIP3    H253276   6.471   0.979  16.069 -0.9833  1.1774  1.4477
10621TIP3   OH253277   1.299   2.560  12.297  0.2782  0.6343 -0.2904
10621TIP3    H153278   1.373   2.559  12.358  0.1723  1.0693 -0.1487
10621TIP3    H253279   1.330   2.512  12.221  0.6799  0.7443 -0.1990
10622TIP3   OH253280   3.680   3.065  14.553 -0.6505  0.2687 -0.5221
10622TIP3    H153281   3.653   2.978  14.580 -0.7165  0.3272 -0.3966
10622TIP3    H253282   3.703   3.110  14.634  0.2842  0.0695 -0.6643
10623TIP3   OH253283   0.314   5.427  12.689 -0.2895 -0.1252  0.0186
10623TIP3    H153284   0.367   5.489  12.740 -0.9238  1.4420 -1.1480
10623TIP3    H253285   0.226   5.434  12.728 -0.2943 -0.5306  0.0785
10624TIP3   OH253286   1.821   5.167   4.817 -0.6287  0.6943 -0.3534
10624TIP3    H153287   1.911   5.163   4.785 -0.9158  0.3233 -1.1483
10624TIP3    H253288   1.812   5.092   4.876  0.2347  2.0048  1.5753
10625TIP3   OH253289   3.354   3.648  15.045  0.0341  0.0405 -0.2719
10625TIP3    H153290   3.427   3.596  15.014 -0.8308 -0.5255 -1.4557
10625TIP3    H253291   3.385   3.739  15.040  1.1002 -0.2670  0.5484
10626TIP3   OH253292   4.623   3.532   3.286 -0.5345 -0.6942  0.1036
10626TIP3    H153293   4.677   3.611   3.279  0.3144 -1.3771 -1.8012
10626TIP3    H253294   4.538   3.563   3.316  0.0413  0.8197  0.2273
10627TIP3   OH253295   2.576   6.354   2.318 -0.2110 -0.1647  0.7959
10627TIP3    H153296   2.535   6.436   2.292 -1.1682 -0.6699  0.6625
10627TIP3    H253297   2.503   6.298   2.345  0.3085 -1.3293 -0.1283
10628TIP3   OH253298   0.685   1.646   2.740  0.5693 -0.0767 -0.6824
10628TIP3    H153299   0.729   1.654   2.655 -0.2669  1.3461 -1.0228
10628TIP3    H253300   0.607   1.594   2.722 -0.5178  1.6425 -1.2126
10629TIP3   OH253301   1.364   1.172  12.702  0.4849 -0.1706 -0.0814
10629TIP3    H153302   1.274   1.149  12.724  0.4583 -0.4922 -0.5232
10629TIP3    H253303   1.417   1.102  12.740  0.6213  0.4151  0.8503
10630TIP3   OH253304   5.984   0.832   1.974 -0.1064  0.1018 -0.2720
10630TIP3    H153305   5.949   0.790   2.053  1.7790  0.7238  0.9526
10630TIP3    H253306   6.059   0.883   2.005  0.7515  0.2943 -2.4884
10631TIP3   OH253307   1.171   0.603   6.531 -0.2876  0.1224 -0.0659
10631TIP3    H153308   1.205   0.516   6.512 -2.6355 -0.6476 -1.1081
10631TIP3    H253309   1.181   0.611   6.626 -3.2883 -2.9182  0.7305
10632TIP3   OH253310   0.328   0.966   5.411 -0.0302 -0.1807 -0.1337
10632TIP3    H153311   0.397   1.032   5.407 -0.0013 -0.2499 -0.8435
10632TIP3    H253312   0.260   0.998   5.352 -0.3296 -0.4291  0.0742
10633TIP3   OH253313   0.757   0.170  12.319  0.1037 -0.2798  0.0958
10633TIP3    H153314   0.724   0.134  12.402 -0.0152 -0.4968 -0.0439
10633TIP3    H253315   0.841   0.127  12.306  1.1076  1.2718  1.1334
10634TIP3   OH253316   3.857   5.383   3.439  0.8019  0.3162  0.5180
10634TIP3    H153317   3.952   5.387   3.428  0.6524  0.2753 -1.0455
10634TIP3    H253318   3.840   5.294   3.471  1.1576 -0.4345 -1.2582
10635TIP3   OH253319   5.903   2.612  14.707  0.5425 -0.0086 -0.1872
10635TIP3    H153320   5.930   2.535  14.756  1.4373  0.6342  0.3453
10635TIP3    H253321   5.812   2.627  14.733  0.7085 -0.2433  0.5438
10636TIP3   OH253322   1.222   5.949  12.140  0.6842 -0.0757  0.6164
10636TIP3    H153323   1.131   5.925  12.160  0.5459  0.3653  0.5449
10636TIP3    H253324   1.251   5.884  12.077 -0.1669  0.7721 -0.7081
10637TIP3   OH253325   4.010   1.092   1.674  0.4717  0.1709 -0.3994
10637TIP3    H153326   3.959   1.020   1.713  0.1677  0.8931  0.5771
10637TIP3    H253327   4.066   1.123   1.745  0.2346  1.2314 -0.6578
10638TIP3   OH253328   1.986   4.360  10.851  0.6291  0.0410  0.1611
10638TIP3    H153329   1.942   4.355  10.766  2.5430 -1.1545 -0.8071
10638TIP3    H253330   2.066   4.410  10.835  1.9364 -1.7457  0.7942
10639TIP3   OH253331   1.965   2.059   2.592 -0.0785  0.4760 -0.4457
10639TIP3    H153332   2.055   2.026   2.599 -0.6650 -1.4333 -1.3557
10639TIP3    H253333   1.976   2.154   2.585  1.7423  0.4527  1.1853
10640TIP3   OH253334   3.294   4.655  15.298  0.0047  0.4011 -0.9672
10640TIP3    H153335   3.365   4.672  15.360 -1.5750  0.9256  0.7897
10640TIP3    H253336   3.292   4.559  15.290  0.4315  0.3458 -0.4730
10641TIP3   OH253337   1.187   4.403   1.834 -0.3083 -0.1143 -0.1639
10641TIP3    H153338   1.162   4.395   1.742  0.3257 -1.4184 -0.2435
10641TIP3    H253339   1.136   4.478   1.866 -0.7441  0.1880 -1.4953
10642TIP3   OH253340   6.473   2.770  13.278 -0.6646 -0.0296  0.0815
10642TIP3    H153341   6.401   2.834  13.279  1.0622  2.0658  1.7325
10642TIP3    H253342   6.515   2.780  13.364  1.5474 -1.2030 -0.7844
10643TIP3   OH253343   0.513   1.636   0.649 -0.9506  0.2848 -0.3405
10643TIP3    H153344   0.585   1.698   0.636 -0.1762 -0.4645  0.1790
10643TIP3    H253345   0.437   1.691   0.669  0.2201  1.0638  2.4626
10644TIP3   OH253346   4.997   2.810   3.359 -0.0937  0.1571 -0.0388
10644TIP3    H153347   4.968   2.899   3.342 -0.6939  0.1908  1.0669
10644TIP3    H253348   5.074   2.820   3.416  0.2981 -0.0183 -0.5276
10645TIP3   OH253349   0.968   2.555   4.112 -0.0296  0.2923  0.6147
10645TIP3    H153350   0.948   2.488   4.177  2.1211 -1.3042 -0.2220
10645TIP3    H253351   0.893   2.555   4.052 -0.1264 -1.3529  0.6900
10646TIP3   OH253352   3.952   5.815   0.966  0.0419 -0.3999  0.0231
10646TIP3    H153353   3.954   5.887   0.903  1.9229  0.1158  0.6139
10646TIP3    H253354   3.887   5.754   0.930 -1.2445  1.3416 -0.7284
10647TIP3   OH253355   4.107   3.829   5.586  0.1112  0.1813 -0.3556
10647TIP3    H153356   4.139   3.891   5.651 -0.0371 -0.9846  0.8544
10647TIP3    H253357   4.020   3.804   5.617  0.5271 -1.3021 -0.3370
10648TIP3   OH253358   4.220   6.006  16.190  0.8896  0.1095 -0.1814
10648TIP3    H153359   4.311   5.977  16.183  1.3489  0.7085  2.2621
10648TIP3    H253360   4.176   5.935  16.236  0.5247  0.4923  0.0725
10649TIP3   OH253361   4.159   5.285   1.939 -0.3538  0.6400 -0.9373
10649TIP3    H153362   4.104   5.261   2.013  3.2502  0.9149  2.0771
10649TIP3    H253363   4.157   5.381   1.937  0.4808  0.6725 -0.4117
10650TIP3   OH253364   4.284   6.088   4.704  0.1830 -0.6281  0.4457
10650TIP3    H153365   4.340   6.135   4.766 -0.3012 -0.2910  0.6329
10650TIP3    H253366   4.197   6.127   4.716 -0.1012 -1.1764  0.1907
10651TIP3   OH253367   0.986   3.382  13.299  0.0265 -0.2978 -0.0244
10651TIP3    H153368   0.929   3.324  13.248 -0.1338  0.4072 -0.6658
10651TIP3    H253369   0.943   3.467  13.295 -0.0306 -0.2445  1.3826
10652TIP3   OH253370   1.870   5.680  16.945  0.2918  0.1428  0.3814
10652TIP3    H153371   1.784   5.721  16.949 -0.6267 -1.3808 -1.8650
10652TIP3    H253372   1.858   5.595  16.986  1.5232  0.9519  2.6131
10653TIP3   OH253373   1.113   1.058  13.179  0.8081 -0.1561 -0.1319
10653TIP3    H153374   1.042   0.994  13.173  0.2480  0.5319 -1.0067
10653TIP3    H253375   1.102   1.098  13.265 -1.1332  1.3592 -1.0115
10654TIP3   OH253376   2.607   0.079   4.271 -0.3869  0.0194 -0.3516
10654TIP3    H153377   2.579   0.093   4.361 -1.8660  0.3306 -0.8383
10654TIP3    H253378   2.584   0.159   4.225 -2.9873 -1.3870 -1.7468
10655TIP3   OH253379   1.592   6.528  12.803  0.2396 -0.0643 -0.5999
10655TIP3    H153380   1.520   6.519  12.741  1.2674 -0.4464 -1.7581
10655TIP3    H253381   1.649   6.595  12.765 -0.9539  2.5576  1.7828
10656TIP3   OH253382   3.548   3.811  15.207  0.0718  0.1984 -0.0372
10656TIP3    H153383   3.608   3.877  15.173 -1.0363  1.1531 -0.1964
10656TIP3    H253384   3.503   3.855  15.279 -0.4303 -0.5044  0.0806
10657TIP3   OH253385   1.979   5.331  13.427  0.1379  0.5288 -0.0238
10657TIP3    H153386   1.912   5.325  13.360  0.5592  2.1579 -0.6454
10657TIP3    H253387   1.933   5.365  13.504 -0.2584 -0.9451  0.4346
10658TIP3   OH253388   0.995   6.495   0.480 -0.1046  0.3592  0.6041
10658TIP3    H153389   0.974   6.409   0.443  0.8695  0.3957 -0.0672
10658TIP3    H253390   0.914   6.544   0.474 -0.4299 -0.2181  0.1412
10659TIP3   OH253391   3.965   2.500  15.665  0.1719 -0.0611  0.2064
10659TIP3    H153392   4.060   2.490  15.660 -0.0142 -2.0914  0.0834
10659TIP3    H253393   3.931   2.438  15.601 -1.2446  0.8696  0.0222
10660TIP3   OH253394   5.208   2.847  11.940 -0.0223  0.5007 -0.0407
10660TIP3    H153395   5.193   2.886  12.026  0.4637  0.8491 -0.1093
10660TIP3    H253396   5.240   2.920  11.886 -0.1520  0.2453 -0.4668
10661TIP3   OH253397   2.616   2.412   5.754 -0.6068  0.4063 -0.0977
10661TIP3    H153398   2.560   2.402   5.832 -0.2223 -1.8328 -0.0358
10661TIP3    H253399   2.702   2.383   5.784 -0.2769  0.2869 -1.1527
10662TIP3   OH253400   0.098   6.009  11.810 -0.3682 -0.2581 -0.1411
10662TIP3    H153401   0.053   5.941  11.861 -0.2983 -0.3162 -0.1583
10662TIP3    H253402   0.029   6.046  11.754 -0.0140 -1.6245 -1.5484
10663TIP3   OH253403   1.926   6.280   2.550 -0.0163 -0.3079 -0.1842
10663TIP3    H153404   1.918   6.285   2.645  1.0303  0.7735 -0.1292
10663TIP3    H253405   1.985   6.206   2.534 -1.1166 -1.2398 -0.0746
10664TIP3   OH253406   0.038   6.314   3.059 -0.6454 -0.1515 -0.0203
10664TIP3    H153407  -0.051   6.344   3.077  0.4298  3.2936  0.3511
10664TIP3    H253408   0.074   6.293   3.145 -0.7611 -0.4991 -0.0556
10665TIP3   OH253409   1.333   3.345   3.974 -0.3336  0.0308 -0.3867
10665TIP3    H153410   1.325   3.439   3.991  0.7610 -0.0553  0.7370
10665TIP3    H253411   1.392   3.313   4.042 -1.1875 -1.5971 -0.3522
10666TIP3   OH253412   4.029   3.980   3.189  0.0115 -0.0086  0.9487
10666TIP3    H153413   3.962   4.027   3.239  0.5535  2.6111 -0.6163
10666TIP3    H253414   4.021   4.013   3.100  1.5044 -1.8078  0.0684
10667TIP3   OH253415   1.385   6.108   1.429  0.1535 -0.7466  0.1066
10667TIP3    H153416   1.387   6.059   1.511  0.8172 -0.1261  0.4818
10667TIP3    H253417   1.457   6.171   1.438  0.3051 -0.7498 -1.0021
10668TIP3   OH253418   3.347   2.472  11.689 -0.0852 -0.5941  0.0961
10668TIP3    H153419   3.430   2.512  11.662 -0.5446  0.2400 -0.1352
10668TIP3    H253420   3.371   2.386  11.723  0.7782 -0.7491 -0.8413
10669TIP3   OH253421   3.839   1.093  11.673 -0.1979 -0.4066 -0.3659
10669TIP3    H153422   3.901   1.020  11.668 -0.8597 -1.0017 -0.1552
10669TIP3    H253423   3.825   1.119  11.582  0.3139 -0.3118 -0.4166
10670TIP3   OH253424   5.814   6.123  13.932 -0.2392 -0.1701 -0.3855
10670TIP3    H153425   5.718   6.129  13.933 -0.2267 -0.0539  0.7506
10670TIP3    H253426   5.844   6.211  13.953  0.1047 -0.5005  0.5350
10671TIP3   OH253427   3.930   5.457  16.209 -0.2125  0.0055 -0.7774
10671TIP3    H153428   3.942   5.548  16.183 -0.3791  0.1975 -0.1984
10671TIP3    H253429   4.019   5.425  16.227 -0.2815  0.6027  0.7932
10672TIP3   OH253430   4.515   3.003   3.878 -0.3351  0.2515  0.8180
10672TIP3    H153431   4.440   3.038   3.830  0.2244  1.9086  1.1004
10672TIP3    H253432   4.584   2.994   3.812 -0.6844 -1.0580  0.6039
10673TIP3   OH253433   6.651   1.506   4.191 -0.3141 -0.0305  0.6557
10673TIP3    H153434   6.583   1.519   4.257 -0.1857  0.6950  0.6512
10673TIP3    H253435   6.603   1.487   4.110 -0.5144  0.5754  0.6312
10674TIP3   OH253436   5.352   1.165  16.256 -0.2242  0.2067  0.0271
10674TIP3    H153437   5.367   1.200  16.344  0.1387 -0.8974  0.4260
10674TIP3    H253438   5.280   1.103  16.267  2.0351 -2.5907  0.3306
10675TIP3   OH253439   5.635   0.174   5.704  0.0535  0.3880  0.7183
10675TIP3    H153440   5.695   0.106   5.736  0.1159  0.6242  1.1104
10675TIP3    H253441   5.553   0.127   5.687  0.3422  0.0649  0.1912
10676TIP3   OH253442   0.035   6.763  13.536  0.5322  0.1542  0.4907
10676TIP3    H153443   0.078   6.838  13.576 -1.8632  1.8984  0.0284
10676TIP3    H253444  -0.053   6.794  13.513 -0.3472 -2.5942 -0.3757
10677TIP3   OH253445   2.786   4.643   4.510  0.2317  0.6595 -0.0410
10677TIP3    H153446   2.777   4.716   4.571 -0.4079  0.0698  0.6009
10677TIP3    H253447   2.703   4.643   4.461 -0.1491 -0.1820  0.5931
10678TIP3   OH253448   2.062   2.176  14.322  0.4767 -0.3816  0.1920
10678TIP3    H153449   2.025   2.196  14.236  1.8572 -1.3709 -0.6868
10678TIP3    H253450   1.997   2.207  14.385 -0.8443 -0.1875 -1.2188
10679TIP3   OH253451   4.501   6.222   3.493 -0.6306  0.5658  0.3150
10679TIP3    H153452   4.560   6.151   3.470 -0.0336  0.5787  1.6777
10679TIP3    H253453   4.517   6.236   3.586 -1.7146  1.5815  0.3644
10680TIP3   OH253454   2.775   2.395   1.207  0.4717 -0.2029  0.5293
10680TIP3    H153455   2.814   2.410   1.121  0.1943 -1.8750  0.0819
10680TIP3    H253456   2.838   2.341   1.253 -0.0270 -0.5133  0.8511
10681TIP3   OH253457   2.781   2.765   1.484 -0.1156  0.2726  0.6018
10681TIP3    H153458   2.859   2.809   1.450  0.2623 -1.4361 -0.9106
10681TIP3    H253459   2.746   2.717   1.409  0.2542 -3.0254  2.3722
10682TIP3   OH253460   2.988   3.344   3.068  0.3300  0.0038  0.4484
10682TIP3    H153461   3.026   3.290   2.999 -0.1123  1.6987 -1.2152
10682TIP3    H253462   3.060   3.400   3.096 -0.0317  0.8834 -0.3081
10683TIP3   OH253463   5.409   2.972  13.560  0.0905  0.1701  0.0528
10683TIP3    H153464   5.408   2.877  13.575  2.4781 -0.1517 -1.2694
10683TIP3    H253465   5.442   2.981  13.471  0.8793  2.2853  0.5125
10684TIP3   OH253466   5.447   4.183   5.445  0.4439  0.6652 -0.2401
10684TIP3    H153467   5.508   4.221   5.507  2.6952 -3.4049  0.3871
10684TIP3    H253468   5.497   4.173   5.364 -0.8501  1.2836 -1.1571
10685TIP3   OH253469   4.744   3.103   3.150 -0.2584  0.0498  0.4527
10685TIP3    H153470   4.710   3.155   3.077 -0.6855 -1.8811 -0.8158
10685TIP3    H253471   4.683   3.120   3.222 -1.3683  0.0293 -0.4468
10686TIP3   OH253472   1.198   6.527   6.747  0.5605 -0.1040  0.0177
10686TIP3    H153473   1.270   6.493   6.694  0.3612 -0.8773  0.2328
10686TIP3    H253474   1.231   6.525   6.837  1.7816  3.3926 -0.1894
10687TIP3   OH253475   2.935   5.604  13.326  0.3251 -0.1485  0.0736
10687TIP3    H153476   2.954   5.517  13.291  0.7589 -0.6941  1.6127
10687TIP3    H253477   3.012   5.627  13.378  0.7198  1.6702 -1.2028
10688TIP3   OH253478   6.683   4.552   2.889 -0.2652 -0.2700  0.3719
10688TIP3    H153479   6.719   4.486   2.829  0.0018  0.0434  0.1889
10688TIP3    H253480   6.743   4.626   2.883 -0.5048 -0.0489  0.6630
10689TIP3   OH253481   2.166   1.261   4.977 -0.0746 -0.2115 -0.2802
10689TIP3    H153482   2.224   1.186   4.960 -0.0608 -0.2548 -0.0483
10689TIP3    H253483   2.079   1.221   4.986 -0.3442 -0.0262 -1.8045
10690TIP3   OH253484   6.153   2.646  16.805  0.1451  0.7818 -0.3370
10690TIP3    H153485   6.097   2.585  16.852  1.1698 -0.8854 -1.1816
10690TIP3    H253486   6.146   2.728  16.854  0.2470 -0.5276  2.0178
10691TIP3   OH253487   1.663   1.876   3.806  0.1381 -0.3522  0.1529
10691TIP3    H153488   1.755   1.855   3.819  0.3875  1.1602  1.0849
10691TIP3    H253489   1.620   1.791   3.795  1.3680 -1.2200  1.6146
10692TIP3   OH253490   6.245   5.474   3.415  0.4461 -0.2503  0.2365
10692TIP3    H153491   6.275   5.506   3.330 -1.9213 -0.3780 -0.7216
10692TIP3    H253492   6.323   5.438   3.456  1.9819  1.3268 -1.1663
10693TIP3   OH253493   4.519   0.026   3.529 -0.1811  0.3952  0.4228
10693TIP3    H153494   4.526   0.016   3.624  0.1069 -1.1545  0.2668
10693TIP3    H253495   4.544   0.117   3.512  1.9272  0.0899  1.6191
10694TIP3   OH253496   0.767   4.274  17.044 -0.1982  0.4348 -0.4425
10694TIP3    H153497   0.675   4.285  17.018 -0.2860 -1.2874 -0.9907
10694TIP3    H253498   0.771   4.313  17.132 -1.9783 -1.2605  0.4832
10695TIP3   OH253499   3.577   4.426   0.289  0.2466  0.1747  0.5410
10695TIP3    H153500   3.510   4.448   0.225  1.0972 -0.4210 -0.5747
10695TIP3    H253501   3.536   4.358   0.343 -0.0706 -0.1556 -0.1065
10696TIP3   OH253502   5.842   4.408   5.990 -0.3501  0.1280 -0.5660
10696TIP3    H153503   5.900   4.385   6.063  0.7783 -0.3487 -1.5729
10696TIP3    H253504   5.757   4.425   6.031  0.5961  1.3317  1.0238
10697TIP3   OH253505   3.069   1.100  12.064  0.7673  0.0140  0.5100
10697TIP3    H153506   3.141   1.153  12.097  1.7056 -1.4818  0.9624
10697TIP3    H253507   3.097   1.071  11.977  1.1944 -1.3887  1.0854
10698TIP3   OH253508   0.575   0.355   4.782 -0.2229 -0.1880 -0.8321
10698TIP3    H153509   0.599   0.388   4.696  0.4353 -0.6572 -0.8380
10698TIP3    H253510   0.615   0.417   4.843  0.7574 -0.7879 -0.8478
10699TIP3   OH253511   3.007   5.507  12.516 -0.0269  0.2651 -0.2187
10699TIP3    H153512   2.920   5.468  12.508  0.2447 -0.1682 -1.2161
10699TIP3    H253513   3.036   5.485  12.605 -0.5795 -0.3380 -0.1822
10700TIP3   OH253514   3.056   0.610   0.607  0.4675 -0.0824 -0.7164
10700TIP3    H153515   3.066   0.703   0.587 -1.5062  0.1245 -0.9503
10700TIP3    H253516   3.143   0.582   0.636  1.3015  1.6280 -1.4217
10701TIP3   OH253517   5.438   3.716  14.764 -0.5433  0.3677  0.2823
10701TIP3    H153518   5.343   3.725  14.773 -0.6581 -1.1254  0.8782
10701TIP3    H253519   5.466   3.796  14.719 -1.9811  1.1546  0.7348
10702TIP3   OH253520   3.907   4.517  17.161 -0.4851 -0.5863  0.0604
10702TIP3    H153521   3.932   4.610  17.167 -4.1099  0.4838  0.7365
10702TIP3    H253522   3.950   4.477  17.237  0.5952  0.6347  0.1431
10703TIP3   OH253523   3.952   3.374  12.463  0.0963 -0.0090  0.2989
10703TIP3    H153524   3.856   3.367  12.461  0.0833  0.2788 -0.8799
10703TIP3    H253525   3.976   3.393  12.372  1.3817 -1.4207  0.3231
10704TIP3   OH253526   4.839   1.908   4.371 -0.3012 -0.2593 -0.6825
10704TIP3    H153527   4.814   1.833   4.427  0.2448 -0.8082 -1.1611
10704TIP3    H253528   4.767   1.970   4.382 -1.4504 -1.4083 -1.2968
10705TIP3   OH253529   0.859   6.061  12.836  0.8476  0.2084 -0.2848
10705TIP3    H153530   0.845   6.024  12.748  0.7784  1.6961 -0.9183
10705TIP3    H253531   0.780   6.113  12.852  1.5447  1.2043 -0.0094
10706TIP3   OH253532   3.711   0.317   0.524  0.2231  0.1111  0.0142
10706TIP3    H153533   3.718   0.245   0.460  0.3705  1.0544 -1.0718
10706TIP3    H253534   3.634   0.367   0.495 -0.2546  0.0561  1.1333
10707TIP3   OH253535   1.674   1.194   0.556  0.2065  0.1816  0.1478
10707TIP3    H153536   1.671   1.240   0.639  0.1712  0.4454  0.0012
10707TIP3    H253537   1.708   1.258   0.493 -0.9768  0.3977 -0.3027
10708TIP3   OH253538   5.442   2.848   3.712 -0.3116 -0.2638  0.2652
10708TIP3    H153539   5.536   2.836   3.705 -0.3516 -0.2997 -0.3231
10708TIP3    H253540   5.406   2.801   3.636 -0.8149 -0.3945  0.5730
10709TIP3   OH253541   4.261   6.626  14.910 -0.7310 -0.1967  0.8921
10709TIP3    H153542   4.301   6.547  14.875  0.6679  0.9929 -0.3233
10709TIP3    H253543   4.196   6.651  14.845  3.1354  3.0639 -2.2584
10710TIP3   OH253544   5.713   6.632   2.138 -0.5064 -0.5673 -0.3010
10710TIP3    H153545   5.655   6.576   2.189 -0.3204 -0.2302  0.2863
10710TIP3    H253546   5.655   6.697   2.097 -0.6243 -0.6644 -0.2873
10711TIP3   OH253547   3.553   5.329  11.928  0.1072 -0.0310 -0.2980
10711TIP3    H153548   3.598   5.354  11.847 -0.4217 -0.2401 -0.6618
10711TIP3    H253549   3.496   5.403  11.947  1.3412  0.6869  0.7310
10712TIP3   OH253550   1.962   5.525   3.559  0.2114 -0.1542 -0.6690
10712TIP3    H153551   2.020   5.542   3.484  0.4300 -1.5741 -0.8533
10712TIP3    H253552   1.874   5.524   3.521  0.0254  1.9564 -0.3967
10713TIP3   OH253553   4.158   1.086  13.845 -0.1038 -0.3215 -0.1985
10713TIP3    H153554   4.229   1.134  13.888  1.2991 -0.6947 -1.9990
10713TIP3    H253555   4.166   0.997  13.879 -0.7983  0.0047  0.8612
10714TIP3   OH253556   3.665   0.479   1.745  0.3120  0.3902  0.3505
10714TIP3    H153557   3.745   0.442   1.783 -0.4128 -0.3672  1.1959
10714TIP3    H253558   3.671   0.573   1.762  0.8710  0.2941  0.7152
10715TIP3   OH253559   3.882   2.426  10.812 -0.0894  0.7912 -0.4265
10715TIP3    H153560   3.799   2.452  10.770 -0.7422  0.1224  0.4089
10715TIP3    H253561   3.869   2.446  10.904 -0.3557 -1.7147  0.1476
10716TIP3   OH253562   0.821   0.303  13.149 -0.4197 -0.1071 -0.2383
10716TIP3    H153563   0.834   0.326  13.057 -1.0551 -0.5329 -0.4407
10716TIP3    H253564   0.864   0.218  13.159  0.9316  0.6053  0.2289
10717TIP3   OH253565   5.187   4.854  13.699 -0.2419 -0.6878 -0.1588
10717TIP3    H153566   5.250   4.885  13.634  0.0760 -1.1956 -0.0972
10717TIP3    H253567   5.171   4.763  13.675 -0.1835 -0.8546  0.4232
10718TIP3   OH253568   4.040   6.469  11.981 -0.3638  0.0333 -0.2469
10718TIP3    H153569   3.988   6.410  12.035  0.8307 -2.5082 -1.6992
10718TIP3    H253570   4.129   6.463  12.018 -0.1590  0.6572 -0.6239
10719TIP3   OH253571   2.155   0.176   4.147 -0.0870 -0.2118 -0.5664
10719TIP3    H153572   2.156   0.083   4.172 -0.2557  0.0243  0.3462
10719TIP3    H253573   2.212   0.218   4.211 -0.7292  0.4532 -0.4293
10720TIP3   OH253574   5.431   5.445   2.617 -0.0557  0.1184  0.0198
10720TIP3    H153575   5.408   5.403   2.699 -0.4084 -1.5033 -0.8593
10720TIP3    H253576   5.523   5.423   2.603  0.2170  1.0165  0.3181
10721TIP3   OH253577   3.581   6.740   4.394  0.5087 -0.2831 -0.1282
10721TIP3    H153578   3.669   6.776   4.387  0.8005 -1.0165 -0.2391
10721TIP3    H253579   3.577   6.671   4.329 -0.3260  0.0862 -0.4858
10722TIP3   OH253580   6.291   1.098  11.030  0.1438 -0.3355  0.0395
10722TIP3    H153581   6.350   1.131  11.098  0.4989  1.6936 -1.1667
10722TIP3    H253582   6.318   1.144  10.951 -2.2029 -0.3642 -0.8486
10723TIP3   OH253583   1.641   0.497   0.801 -0.0756 -0.4400  0.1799
10723TIP3    H153584   1.649   0.517   0.894  2.6347 -0.0030 -0.0882
10723TIP3    H253585   1.614   0.405   0.799  2.1089 -1.1867  1.4626
10724TIP3   OH253586   5.394   1.249   3.647 -0.6965 -0.3520 -0.2574
10724TIP3    H153587   5.326   1.301   3.604 -0.4668 -0.1310 -0.3574
10724TIP3    H253588   5.349   1.203   3.717 -1.6238 -2.7417 -2.2810
10725TIP3   OH253589   2.406   6.144   6.018 -0.0779 -0.2646 -0.2713
10725TIP3    H153590   2.434   6.091   5.944 -1.0144 -0.9935 -0.1339
10725TIP3    H253591   2.449   6.228   6.006  2.4663 -1.4291  0.1665
10726TIP3   OH253592   2.973   6.011  13.985  0.2181 -0.2237 -0.7899
10726TIP3    H153593   3.022   6.071  14.042  1.0704  0.1175 -1.8469
10726TIP3    H253594   2.913   5.966  14.044  1.4064 -0.2341  0.4731
10727TIP3   OH253595   2.577   0.132   0.176  0.1214 -0.7035  0.0589
10727TIP3    H153596   2.655   0.176   0.142  0.7823 -1.9097 -0.0573
10727TIP3    H253597   2.529   0.103   0.098 -0.5608  0.2102  0.1269
10728TIP3   OH253598   4.289   1.731   4.607  0.0238 -0.3276  0.7361
10728TIP3    H153599   4.269   1.808   4.553  2.5668 -1.0867 -1.4352
10728TIP3    H253600   4.203   1.691   4.623 -1.0995  1.5465 -0.1932
10729TIP3   OH253601   4.319   0.869  15.092 -0.3197 -0.1041  0.0296
10729TIP3    H153602   4.361   0.900  15.172 -1.7226  0.9976  0.3851
10729TIP3    H253603   4.306   0.948  15.040 -0.9179 -0.5796 -0.5641
10730TIP3   OH253604   6.138   2.316  14.277 -0.3078  0.1420  0.6719
10730TIP3    H153605   6.168   2.325  14.186 -1.2277 -2.0740  0.1035
10730TIP3    H253606   6.071   2.383  14.286 -1.4085 -0.6916 -0.8504
10731TIP3   OH253607   0.076   4.707  16.880 -0.5796 -0.1280  0.1765
10731TIP3    H153608   0.078   4.736  16.971  1.4184 -1.8501  0.7757
10731TIP3    H253609  -0.012   4.670  16.868 -1.8392  2.5692  0.4976
10732TIP3   OH253610   5.172   6.602   5.913 -0.0618 -0.1340  0.3651
10732TIP3    H153611   5.123   6.637   5.987  0.3796 -0.1669  0.6785
10732TIP3    H253612   5.107   6.557   5.859 -0.1976 -1.1622  1.3652
10733TIP3   OH253613   6.340   1.984  12.251  0.5632  0.0286 -0.8112
10733TIP3    H153614   6.411   1.931  12.215  0.4734 -0.3884 -0.3928
10733TIP3    H253615   6.260   1.939  12.224  0.4434  0.6507 -1.5169
10734TIP3   OH253616   4.614   5.448   2.678  0.5895  0.2669  0.3390
10734TIP3    H153617   4.539   5.474   2.624 -0.3100 -0.2065  1.3130
10734TIP3    H253618   4.680   5.419   2.615 -1.2166 -2.3549 -0.5103
10735TIP3   OH253619   3.748   3.639  12.227 -0.0377 -0.5111  0.4221
10735TIP3    H153620   3.810   3.596  12.286  0.5548  1.8265  1.6202
10735TIP3    H253621   3.755   3.732  12.248 -1.6777  0.1603 -1.6203
10736TIP3   OH253622   5.776   1.353   3.218 -0.6245 -0.3639  0.0269
10736TIP3    H153623   5.709   1.414   3.248 -0.2400  0.5842 -0.9281
10736TIP3    H253624   5.814   1.397   3.141  1.1633 -0.8007  0.6081
10737TIP3   OH253625   0.079   6.731   0.204  0.6671  0.2892 -0.1091
10737TIP3    H153626   0.143   6.690   0.145  1.5624 -0.7328  1.5061
10737TIP3    H253627   0.078   6.675   0.281 -1.0782  1.1457  0.5468
10738TIP3   OH253628   5.576   3.947   3.128 -0.4415  0.7301 -0.1493
10738TIP3    H153629   5.558   3.955   3.035  1.8643 -1.0658 -0.8204
10738TIP3    H253630   5.500   3.987   3.170 -2.2350  0.3092 -2.7531
10739TIP3   OH253631   0.801   2.057  15.680 -0.4354  0.6983  0.1965
10739TIP3    H153632   0.859   2.054  15.604  0.0046 -0.4372  0.5464
10739TIP3    H253633   0.773   1.966  15.693  0.4068  0.6529  2.0581
10740TIP3   OH253634   3.083   4.469   4.080  0.3999  0.2612 -0.2173
10740TIP3    H153635   3.158   4.480   4.139  0.1192  0.9804  0.0184
10740TIP3    H253636   3.009   4.503   4.129 -0.2167 -1.0831 -0.1823
10741TIP3   OH253637   6.104   5.759   4.650  0.2226  0.6736  0.0278
10741TIP3    H153638   6.196   5.734   4.663  0.2557  0.1220 -1.1774
10741TIP3    H253639   6.082   5.727   4.563 -1.7602 -1.1163  1.0996
10742TIP3   OH253640   4.298   5.918   3.475  0.1246  0.1940  0.1427
10742TIP3    H153641   4.346   5.970   3.411 -1.3157  1.1577 -0.2230
10742TIP3    H253642   4.308   5.966   3.557  0.1683  0.1583  0.1578
10743TIP3   OH253643   3.851   1.130  15.568  0.1684 -0.4121 -0.2637
10743TIP3    H153644   3.773   1.088  15.531  0.5840 -0.9311 -0.5560
10743TIP3    H253645   3.900   1.160  15.491 -0.1137  0.6127 -0.0638
10744TIP3   OH253646   0.777   0.059   3.185  0.6277 -0.0966 -0.6826
10744TIP3    H153647   0.866   0.027   3.199  0.7849 -1.2301 -3.5098
10744TIP3    H253648   0.785   0.121   3.112 -0.7509  0.7511 -0.1655
10745TIP3   OH253649   2.644   4.482   2.451  0.1980 -0.2235 -0.0275
10745TIP3    H153650   2.569   4.541   2.441 -1.1469 -1.0168  3.5157
10745TIP3    H253651   2.637   4.422   2.377 -1.0039  1.3702 -1.2903
10746TIP3   OH253652   5.799   1.085  16.066  0.1531 -0.3413 -0.6099
10746TIP3    H153653   5.824   1.032  15.991  1.3694 -0.1772 -0.3353
10746TIP3    H253654   5.788   1.173  16.031 -0.3767 -0.4696 -0.7840
10747TIP3   OH253655   3.050   5.740   4.195  0.0597 -0.0650  0.1009
10747TIP3    H153656   3.038   5.686   4.272 -0.5509 -1.0237 -0.6445
10747TIP3    H253657   3.066   5.828   4.229 -0.4574 -0.4239  1.3106
10748TIP3   OH253658   0.970   2.966  15.296  0.0817 -0.1460 -0.0285
10748TIP3    H153659   1.004   2.886  15.256 -0.7574 -0.9587  0.8272
10748TIP3    H253660   1.012   3.037  15.248  1.7550 -1.0994 -0.0413
10749TIP3   OH253661   3.070   4.731  11.255  0.2477 -0.6571 -0.7473
10749TIP3    H153662   3.123   4.733  11.335 -0.6723 -0.7059 -0.1210
10749TIP3    H253663   3.134   4.724  11.184  1.1021 -0.0341 -0.0523
10750TIP3   OH253664   0.680   1.992   3.710  0.0369  0.0823 -0.4126
10750TIP3    H153665   0.666   1.899   3.696  1.0321  0.0788 -1.5122
10750TIP3    H253666   0.661   2.006   3.803  0.5671 -1.3447 -0.0717
10751TIP3   OH253667   5.820   6.256  11.341  0.2912  0.8828  0.0556
10751TIP3    H153668   5.898   6.206  11.318 -0.5787  0.2365 -1.6435
10751TIP3    H253669   5.749   6.214  11.292 -0.8945  2.2906  0.4941
10752TIP3   OH253670   6.470   4.963   5.452  0.0229 -0.6316 -0.4062
10752TIP3    H153671   6.439   4.875   5.470 -1.0467 -0.6264 -1.9839
10752TIP3    H253672   6.399   5.020   5.483 -0.3520 -0.4711 -1.5114
10753TIP3   OH253673   4.560   5.152   2.808 -0.4909 -0.8315  0.0208
10753TIP3    H153674   4.578   5.095   2.883 -0.4746  0.2593  0.8577
10753TIP3    H253675   4.641   5.200   2.794 -0.3740 -1.2811 -0.9467
10754TIP3   OH253676   1.536   0.767  13.700 -0.4363  0.9647 -0.2634
10754TIP3    H153677   1.589   0.847  13.698 -0.2251  0.8473  0.4430
10754TIP3    H253678   1.571   0.716  13.772 -1.8301  1.1055  0.5547
10755TIP3   OH253679   5.179   6.623  12.636  0.3002  0.1812  0.0311
10755TIP3    H153680   5.099   6.676  12.647  0.5344  0.5843 -0.1860
10755TIP3    H253681   5.166   6.548  12.695 -0.5894 -0.1683 -0.5822
10756TIP3   OH253682   3.060   1.547   1.481 -0.0671 -0.2589  0.0204
10756TIP3    H153683   3.142   1.546   1.531 -1.9440  0.3881  3.3913
10756TIP3    H253684   3.040   1.639   1.469 -0.4529 -0.4036 -0.4715
10757TIP3   OH253685   0.383   5.405   5.116 -0.1651 -0.3624  0.3700
10757TIP3    H153686   0.436   5.377   5.191  1.3789 -1.6227 -1.1175
10757TIP3    H253687   0.404   5.497   5.105  0.2768 -0.3884  0.9538
10758TIP3   OH253688   2.032   0.128   5.598  0.2836 -0.3567 -0.2281
10758TIP3    H153689   2.123   0.125   5.625  0.4625 -4.0490 -0.8186
10758TIP3    H253690   1.986   0.076   5.664 -1.2899  0.7478 -0.3984
10759TIP3   OH253691   5.190   1.164   5.018 -0.6825 -0.1410 -0.0702
10759TIP3    H153692   5.109   1.143   5.066  0.0611  0.3968  1.4653
10759TIP3    H253693   5.257   1.112   5.061  0.2838  1.5166  0.5134
10760TIP3   OH253694   2.036   0.722  16.205 -0.0578 -0.2240  0.5456
10760TIP3    H153695   2.119   0.675  16.197  0.0344 -0.1553  1.0539
10760TIP3    H253696   2.003   0.728  16.116 -1.0072 -2.9406  0.6417
10761TIP3   OH253697   1.649   2.891  13.763 -0.1774 -0.0228  0.5149
10761TIP3    H153698   1.649   2.985  13.783 -1.8650 -0.0692  0.8142
10761TIP3    H253699   1.738   2.862  13.786  0.3554  1.4728  0.4671
10762TIP3   OH253700   5.559   6.675  12.370  0.7851  0.7310  0.1175
10762TIP3    H153701   5.477   6.634  12.345 -0.4437  3.2231 -0.2019
10762TIP3    H253702   5.624   6.605  12.361 -1.2503 -1.3174  0.3966
10763TIP3   OH253703   3.625   5.268  12.798 -0.0871  0.8469 -0.1857
10763TIP3    H153704   3.537   5.280  12.834 -0.3915 -1.1431 -0.1722
10763TIP3    H253705   3.667   5.205  12.856 -0.3185 -1.8183 -2.6955
10764TIP3   OH253706   5.997   6.273  10.154  0.1792  0.1223  0.3143
10764TIP3    H153707   5.999   6.277  10.058 -1.4615 -0.8242  0.1986
10764TIP3    H253708   5.929   6.208  10.173 -0.0407  0.8483  2.1324
10765TIP3   OH253709   6.587   0.971   1.097  0.0748  0.2028 -0.2370
10765TIP3    H153710   6.593   1.013   1.182 -0.4827  1.1850 -0.6663
10765TIP3    H253711   6.652   0.901   1.100 -1.1013 -0.8977  1.5999
10766TIP3   OH253712   6.529   6.087  11.584  0.2669 -0.4597  0.1426
10766TIP3    H153713   6.528   6.087  11.488  2.2840 -0.4096  0.0702
10766TIP3    H253714   6.612   6.128  11.607 -0.8196  0.8900  1.9697
10767TIP3   OH253715   1.473   2.407  11.437  0.2173  0.0224 -0.1360
10767TIP3    H153716   1.477   2.350  11.514  0.9300 -0.1937 -0.3217
10767TIP3    H253717   1.539   2.474  11.453 -1.0129  1.1575  0.3414
10768TIP3   OH253718   2.846   4.839   1.382  0.0126  0.2199  0.4463
10768TIP3    H153719   2.909   4.909   1.368 -0.8629  0.6569 -1.8045
10768TIP3    H253720   2.861   4.778   1.309 -0.7005 -0.7900  1.1204
10769TIP3   OH253721   0.722   1.639   3.028  0.0717  0.3871  0.0079
10769TIP3    H153722   0.702   1.667   2.939 -0.7405 -0.5332 -0.1191
10769TIP3    H253723   0.695   1.712   3.083 -2.0018 -0.0660 -0.3124
10770TIP3   OH253724   0.805   4.221   4.547 -0.7139  0.2199  0.3043
10770TIP3    H153725   0.772   4.175   4.470 -2.4774  1.8315  0.0240
10770TIP3    H253726   0.801   4.314   4.523 -0.3604  0.7078  1.9863
10771TIP3   OH253727   2.812   1.072  12.966  0.0870  0.2672 -0.4091
10771TIP3    H153728   2.904   1.095  12.980 -0.2268  0.6072  1.3205
10771TIP3    H253729   2.786   1.026  13.045 -1.3363  0.4913 -0.7154
10772TIP3   OH253730   2.659   0.439  13.242  0.0867 -0.3835  0.0073
10772TIP3    H153731   2.730   0.389  13.203  0.7030  0.4390  0.0507
10772TIP3    H253732   2.685   0.530  13.232 -0.1831 -0.1133  1.4957
10773TIP3   OH253733   3.596   6.536   4.604  0.6914  0.0747 -0.0057
10773TIP3    H153734   3.606   6.468   4.538  3.2062  0.2930  0.0566
10773TIP3    H253735   3.582   6.617   4.555  1.5194  0.0754 -0.2488
10774TIP3   OH253736   5.015   3.845  12.263 -0.1140  0.2009 -0.2837
10774TIP3    H153737   4.931   3.800  12.273 -1.4940  2.9065  1.8427
10774TIP3    H253738   4.994   3.925  12.215  0.9171  1.5526  1.3783
10775TIP3   OH253739   5.307   2.022   1.297 -0.2451  0.4095  0.2355
10775TIP3    H153740   5.296   1.975   1.215 -0.5485 -0.5208  0.7925
10775TIP3    H253741   5.243   1.982   1.356 -1.6135  2.5268  0.3150
10776TIP3   OH253742   2.837   5.459   4.259  0.6606  0.5389 -0.2099
10776TIP3    H153743   2.828   5.486   4.351  0.8974  0.3261 -0.1236
10776TIP3    H253744   2.930   5.469   4.240  0.5364  1.0606 -0.5795
10777TIP3   OH253745   6.457   4.134   5.639  0.0269 -0.3986 -0.1817
10777TIP3    H153746   6.513   4.191   5.587  0.9773 -0.2669  0.9482
10777TIP3    H253747   6.375   4.183   5.648 -0.4316 -0.7192 -2.0901
10778TIP3   OH253748   5.325   2.455   5.063  0.0362  0.5949  0.1147
10778TIP3    H153749   5.399   2.463   5.003  0.0724  0.3736  0.1265
10778TIP3    H253750   5.304   2.544   5.088  0.7645  0.6135  0.6770
10779TIP3   OH253751   0.536   3.218   1.044 -0.1681  0.1300  0.3698
10779TIP3    H153752   0.451   3.261   1.052  0.7020  2.0885 -0.2694
10779TIP3    H253753   0.584   3.247   1.121  0.4041  0.2104 -0.0146
10780TIP3   OH253754   1.885   6.272  13.638 -0.1324  0.0554  0.5079
10780TIP3    H153755   1.925   6.218  13.706 -1.8073 -3.0968 -0.8083
10780TIP3    H253756   1.956   6.329  13.607  2.3800 -2.7396  0.6763
10781TIP3   OH253757   3.848   1.100  12.178  0.0803  0.1392  0.0196
10781TIP3    H153758   3.799   1.104  12.096  0.0240 -0.7841 -0.0035
10781TIP3    H253759   3.935   1.133  12.156  0.0606 -0.0921 -0.4136
10782TIP3   OH253760   5.915   5.639   2.360 -0.2963  0.1163  0.2522
10782TIP3    H153761   5.946   5.656   2.271 -0.9003 -1.3224 -0.2599
10782TIP3    H253762   5.991   5.604   2.406 -0.4724 -0.9860 -0.2719
10783TIP3   OH253763   1.541   0.350  16.900  0.2847  0.0084  0.0859
10783TIP3    H153764   1.620   0.349  16.846  0.9779  0.3947  1.0761
10783TIP3    H253765   1.550   0.276  16.959 -0.7377 -0.7473 -0.6595
10784TIP3   OH253766   5.926   6.441  16.050 -0.4759  0.0110 -0.1939
10784TIP3    H153767   5.981   6.518  16.065  1.8688 -1.7076  0.6506
10784TIP3    H253768   5.890   6.422  16.137 -0.0934 -0.4865 -0.1382
10785TIP3   OH253769   6.553   0.670   1.792  0.2103 -0.1271 -0.0955
10785TIP3    H153770   6.486   0.646   1.728  0.6292  0.5139 -0.7895
10785TIP3    H253771   6.616   0.722   1.743  0.2919  0.8045  0.9487
10786TIP3   OH253772   3.845   5.883   6.196 -0.5786 -0.0399 -0.1495
10786TIP3    H153773   3.911   5.836   6.247  0.1189 -0.2319 -1.1982
10786TIP3    H253774   3.762   5.862   6.240  0.0595  0.5308  1.4291
10787TIP3   OH253775   2.570   1.250  15.491  0.6181  0.7022  0.2516
10787TIP3    H153776   2.662   1.234  15.515  0.4324  1.4915  1.5429
10787TIP3    H253777   2.521   1.234  15.571 -0.5211 -0.7241 -0.6782
10788TIP3   OH253778   4.613   5.550  16.542  0.0352  0.1552  0.4626
10788TIP3    H153779   4.589   5.458  16.532 -0.1593 -0.1000  2.6417
10788TIP3    H253780   4.599   5.588  16.456 -0.1876 -1.7818 -0.4188
10789TIP3   OH253781   1.810   3.050   1.438 -0.5588 -0.0804  0.2226
10789TIP3    H153782   1.803   3.141   1.467 -1.6340 -0.0173 -0.1849
10789TIP3    H253783   1.744   3.041   1.369  0.0332 -0.9769 -0.2514
10790TIP3   OH253784   5.874   6.774  11.871  0.0836  0.1822  0.3200
10790TIP3    H153785   5.830   6.709  11.925  1.5839  0.1580  1.5701
10790TIP3    H253786   5.966   6.747  11.870  0.0764 -0.1741 -2.7950
10791TIP3   OH253787   5.422   4.956   5.958  0.9438 -0.0593  0.1241
10791TIP3    H153788   5.352   4.897   5.929  1.2046 -0.7138  0.8221
10791TIP3    H253789   5.388   4.997   6.038  0.1044  1.9676 -1.1707
10792TIP3   OH253790   2.307   2.906   4.873  0.4676  0.1711  0.3242
10792TIP3    H153791   2.387   2.892   4.924  0.5905  0.6413  0.2705
10792TIP3    H253792   2.337   2.951   4.794  0.2542 -0.3879 -0.0797
10793TIP3   OH253793   3.931   6.221  12.097 -0.2348 -0.1787 -0.2521
10793TIP3    H153794   3.845   6.208  12.057 -0.4201 -2.4130  0.6891
10793TIP3    H253795   3.974   6.135  12.088  2.8977  1.4016 -2.8263
10794TIP3   OH253796   0.503   3.443  11.334 -0.2983 -0.0143  0.2538
10794TIP3    H153797   0.499   3.351  11.311  1.4853  0.0582 -0.5572
10794TIP3    H253798   0.419   3.479  11.305  0.1635 -0.7921 -2.3422
10795TIP3   OH253799   4.292   4.871   6.237 -0.3380 -0.4697  0.0633
10795TIP3    H153800   4.265   4.922   6.313  0.3142 -1.8484  1.2720
10795TIP3    H253801   4.384   4.893   6.224 -0.8198  0.9018 -1.3130
10796TIP3   OH253802   4.194   5.395   6.036  0.3871 -0.0180 -0.4082
10796TIP3    H153803   4.189   5.300   6.030  3.0663 -0.4382  1.9764
10796TIP3    H253804   4.272   5.419   5.986  0.0411  0.8753 -0.5472
10797TIP3   OH253805   2.031   0.580   4.353 -0.2721 -0.0166  0.0809
10797TIP3    H153806   2.035   0.619   4.266  1.2109 -0.4358 -0.0844
10797TIP3    H253807   1.958   0.519   4.349  1.0010 -1.5527 -1.5837
10798TIP3   OH253808   3.123   3.670   0.919 -0.0585  0.3603  0.1320
10798TIP3    H153809   3.115   3.757   0.879 -0.1196  0.2772 -0.0349
10798TIP3    H253810   3.136   3.611   0.845  1.7363  0.4308  0.3248
10799TIP3   OH253811   2.700   5.348   1.777 -0.7211  0.2430  0.3852
10799TIP3    H153812   2.735   5.429   1.739 -0.3723 -0.1240 -0.0950
10799TIP3    H253813   2.681   5.371   1.868 -0.7990  0.9133  0.2112
10800TIP3   OH253814   4.567   6.508  12.345  0.0952 -0.0490 -0.5654
10800TIP3    H153815   4.662   6.514  12.329  0.3493  1.0674  1.1375
10800TIP3    H253816   4.541   6.597  12.369 -1.3792 -0.3664 -0.8990
10801TIP3   OH253817   2.448   2.641   3.957  0.5723  0.3348  0.2721
10801TIP3    H153818   2.453   2.597   4.042  0.5676  1.0359  0.6469
10801TIP3    H253819   2.409   2.576   3.899  1.3539 -0.4478  0.5983
10802TIP3   OH253820   2.361   4.233   0.717  0.4305  0.3506 -0.6091
10802TIP3    H153821   2.367   4.313   0.768  0.3090 -1.4285  2.4587
10802TIP3    H253822   2.268   4.220   0.702  0.4165  0.5235 -0.6680
10803TIP3   OH253823   4.431   0.072   0.625 -0.5540  0.5484 -0.1298
10803TIP3    H153824   4.470   0.109   0.546 -0.3514  0.7714  0.0750
10803TIP3    H253825   4.481  -0.008   0.641 -1.0717  0.1184 -0.6405
10804TIP3   OH253826   2.760   0.561  16.571 -0.0476 -0.4897 -0.0490
10804TIP3    H153827   2.781   0.653  16.555 -0.4208 -0.0592  1.7075
10804TIP3    H253828   2.720   0.531  16.489 -0.4681  1.0664 -0.4568
10805TIP3   OH253829   3.047   2.689   1.730  0.0731 -0.2175  0.3111
10805TIP3    H153830   3.016   2.775   1.758 -1.4136 -1.4259  2.6292
10805TIP3    H253831   3.137   2.705   1.701 -0.7893  2.4102 -1.1953
10806TIP3   OH253832   3.195   1.642  15.967 -0.4736 -0.0322 -0.4784
10806TIP3    H153833   3.213   1.603  16.053 -1.3146  0.5422 -0.0234
10806TIP3    H253834   3.281   1.655  15.928 -0.1453 -3.6017 -1.2469
10807TIP3   OH253835   1.306   1.839   1.499 -0.0231 -0.0744  0.1799
10807TIP3    H153836   1.210   1.835   1.503 -0.0857  1.1339  0.1141
10807TIP3    H253837   1.334   1.751   1.523 -1.1701 -0.6980 -0.6399
10808TIP3   OH253838   0.955   1.437   0.338  1.0019  0.1254  0.4912
10808TIP3    H153839   1.048   1.415   0.328  1.1703  1.1755 -0.4738
10808TIP3    H253840   0.929   1.467   0.251 -0.3810 -0.6124  0.6246
10809TIP3   OH253841   6.759   3.599  14.629 -0.2817  0.4931 -0.1836
10809TIP3    H153842   6.850   3.602  14.657 -0.5814  0.4680  0.8326
10809TIP3    H253843   6.736   3.690  14.611 -0.7688  0.8456  1.9970
10810TIP3   OH253844   5.420   2.926  13.879  0.2505 -0.5711 -0.1184
10810TIP3    H153845   5.428   3.021  13.886  0.3281 -0.5924  0.0854
10810TIP3    H253846   5.337   2.912  13.833  0.2770 -0.4037 -0.2191
10811TIP3   OH253847   1.512   1.093   0.853 -0.3526  0.1787  0.1742
10811TIP3    H153848   1.583   1.156   0.836 -1.1285  1.2199  0.6604
10811TIP3    H253849   1.552   1.008   0.838  0.2934  0.8044 -2.2090
10812TIP3   OH253850   2.827   5.744   6.182 -0.6024 -0.3434 -0.0601
10812TIP3    H153851   2.820   5.684   6.256 -1.2544 -1.6448 -1.1310
10812TIP3    H253852   2.889   5.812   6.211  1.7741 -2.5979  0.4989
10813TIP3   OH253853   3.160   6.553   1.879  0.0821  0.3129  0.4679
10813TIP3    H153854   3.149   6.460   1.861 -1.2361  0.2108  1.6506
10813TIP3    H253855   3.123   6.597   1.803 -2.3771 -0.1251  1.3382
10814TIP3   OH253856   6.757   0.474  12.508  0.5378 -0.3283  0.3575
10814TIP3    H153857   6.838   0.521  12.532  1.7357 -1.7815 -0.6418
10814TIP3    H253858   6.711   0.533  12.449  1.9758 -0.3376 -0.8228
10815TIP3   OH253859   2.877   3.420  15.867  0.5267  0.4948 -0.1941
10815TIP3    H153860   2.825   3.477  15.810  0.2485  1.4668  0.9882
10815TIP3    H253861   2.966   3.456  15.862  0.6042  0.2716 -0.4093
10816TIP3   OH253862   4.744   2.856   4.019 -0.3322 -0.0420 -0.2374
10816TIP3    H153863   4.820   2.894   3.975  0.6758 -0.7726  0.8261
10816TIP3    H253864   4.771   2.843   4.110 -1.3357 -1.3370 -0.0743
10817TIP3   OH253865   1.527   1.487   1.416  0.3926  0.1701 -0.4475
10817TIP3    H153866   1.489   1.418   1.362  1.5502 -0.5559 -0.3457
10817TIP3    H253867   1.476   1.484   1.497  0.5573 -0.6932 -0.3672
10818TIP3   OH253868   1.242   1.656  12.108  0.0086 -0.3026 -0.3225
10818TIP3    H153869   1.220   1.592  12.041  0.7110 -0.8563 -0.0353
10818TIP3    H253870   1.236   1.741  12.063  0.2298 -0.6518 -1.0170
10819TIP3   OH253871   1.335   2.722   5.641 -0.2784 -0.1733  0.4511
10819TIP3    H153872   1.386   2.799   5.665  1.0235 -1.1351  0.8408
10819TIP3    H253873   1.301   2.742   5.553  1.2622  0.2550 -0.0649
10820TIP3   OH253874   4.762   0.973   1.110 -0.3871 -0.8314 -0.1564
10820TIP3    H153875   4.818   0.945   1.183 -0.0577  0.2295  0.0155
10820TIP3    H253876   4.796   1.059   1.085 -4.5920  2.1965  2.9656
10821TIP3   OH253877   3.471   4.791  11.640  0.6726 -0.1699  0.7278
10821TIP3    H153878   3.445   4.882  11.646 -0.9878 -0.4058 -1.6912
10821TIP3    H253879   3.566   4.792  11.655  0.6307  1.8690  1.0590
10822TIP3   OH253880   2.819   1.847   0.105  0.3916  0.3881 -0.0819
10822TIP3    H153881   2.824   1.804   0.191 -2.5032  1.4724  0.7491
10822TIP3    H253882   2.832   1.775   0.043  1.4239 -0.6238  1.2181
10823TIP3   OH253883   5.784   4.688  12.503 -0.2711 -0.0084  0.3584
10823TIP3    H153884   5.761   4.779  12.483 -0.1671 -0.2282 -0.8307
10823TIP3    H253885   5.798   4.647  12.417  0.6242 -0.9024  0.9125
10824TIP3   OH253886   5.144   2.010  10.785 -0.1404 -0.2874  0.2398
10824TIP3    H153887   5.201   2.086  10.768  0.3701 -0.5460  0.7895
10824TIP3    H253888   5.139   1.966  10.700  1.1298 -0.6972  0.3507
10825TIP3   OH253889   2.501   1.572   4.623 -0.0762  0.0711  0.7063
10825TIP3    H153890   2.488   1.629   4.547  0.8128 -0.7459 -0.0930
10825TIP3    H253891   2.584   1.603   4.660 -0.0912 -0.0686  0.8512
10826TIP3   OH253892   0.702   1.831  14.827  0.1885  0.0455 -0.0978
10826TIP3    H153893   0.743   1.910  14.862  0.2360 -0.8719  2.0870
10826TIP3    H253894   0.745   1.816  14.743  1.1513  1.5568  0.1028
10827TIP3   OH253895   0.819   4.795  12.074  0.1137 -0.9369 -0.4514
10827TIP3    H153896   0.767   4.802  12.154  0.5596  1.2650 -0.3047
10827TIP3    H253897   0.756   4.804  12.003  0.0086 -0.6176 -0.3161
10828TIP3   OH253898   1.767   3.168   0.716 -0.8210 -0.5664 -0.2823
10828TIP3    H153899   1.705   3.170   0.643 -0.5060  2.2967 -0.6107
10828TIP3    H253900   1.735   3.235   0.776  1.5717  0.6130 -0.1977
10829TIP3   OH253901   4.447   5.987  10.429 -0.3041  0.3991  0.3962
10829TIP3    H153902   4.401   6.067  10.454 -2.0273 -0.6219  0.5943
10829TIP3    H253903   4.461   5.940  10.512 -0.2542 -0.0013  0.1643
10830TIP3   OH253904   3.372   3.612  15.634  0.3717 -0.7292  0.0473
10830TIP3    H153905   3.368   3.591  15.541  1.5584 -0.2049 -0.1518
10830TIP3    H253906   3.426   3.692  15.638  0.6123 -0.9240  1.2016
10831TIP3   OH253907   5.163   2.529   3.047 -0.3064  0.7411  0.0613
10831TIP3    H153908   5.089   2.588   3.035 -0.6384  0.3894  0.3865
10831TIP3    H253909   5.211   2.565   3.121 -0.5964  0.5120  0.3593
10832TIP3   OH253910   4.707   4.617   5.914  0.4787  0.1511  0.3747
10832TIP3    H153911   4.719   4.617   5.819  0.3281 -1.8814  0.3319
10832TIP3    H253912   4.657   4.698   5.931 -0.4136  0.0264 -1.3913
10833TIP3   OH253913   1.549   3.001  12.490 -0.7812 -0.0135  0.3409
10833TIP3    H153914   1.605   3.078  12.482 -2.2159  1.2182  1.3736
10833TIP3    H253915   1.590   2.948  12.559 -0.1238  0.1448  0.0758
10834TIP3   OH253916   0.054   5.478  15.164  0.1705  0.4950 -0.0093
10834TIP3    H153917   0.055   5.569  15.133 -1.6215  0.4588 -0.2876
10834TIP3    H253918   0.050   5.425  15.084  2.5461  0.0636  0.0915
10835TIP3   OH253919   0.402   3.854  12.447 -0.0430  0.0350 -0.4921
10835TIP3    H153920   0.444   3.892  12.369  1.9404  0.1973  0.5904
10835TIP3    H253921   0.475   3.825  12.502 -1.2088  2.4433  2.6146
10836TIP3   OH253922   1.824   5.625   1.625 -0.1203 -0.0175 -0.3061
10836TIP3    H153923   1.750   5.590   1.675  2.2715 -3.2651  1.2996
10836TIP3    H253924   1.795   5.621   1.534 -1.8888 -1.2593  0.2661
10837TIP3   OH253925   3.284   6.647  16.302 -0.0309  0.2823  0.1188
10837TIP3    H153926   3.260   6.600  16.382 -0.6834  1.2167  0.4779
10837TIP3    H253927   3.258   6.737  16.318  1.4169  0.8381 -0.4725
10838TIP3   OH253928   0.882   6.263   1.092 -0.1923 -0.0339  0.4102
10838TIP3    H153929   0.814   6.207   1.129 -0.2869 -0.4287 -0.3560
10838TIP3    H253930   0.866   6.263   0.998  0.9498 -0.2533  0.1905
10839TIP3   OH253931   4.572   6.269  15.670  1.1636 -0.1294 -0.0869
10839TIP3    H153932   4.576   6.363  15.652  0.0000  0.1851  1.1365
10839TIP3    H253933   4.615   6.259  15.755 -1.3003 -0.2187  1.2477
10840TIP3   OH253934   5.368   4.108  11.869  0.5244 -0.3299  0.4174
10840TIP3    H153935   5.287   4.068  11.835  0.8080 -0.1134 -0.5563
10840TIP3    H253936   5.375   4.076  11.959 -0.3197 -0.8485  0.3096
10841TIP3   OH253937   4.768   6.073  14.353  0.1382 -0.6715  0.3527
10841TIP3    H153938   4.804   6.143  14.298  0.5097  1.7163  3.3867
10841TIP3    H253939   4.684   6.052  14.312  0.8846  0.1066 -1.7306
10842TIP3   OH253940   0.800   6.057   2.902  0.5457  0.3709 -0.2776
10842TIP3    H153941   0.734   6.005   2.857 -0.2961  0.7214  0.5163
10842TIP3    H253942   0.776   6.053   2.995  2.0143 -0.0160  0.1219
10843TIP3   OH253943   6.104   6.649   6.463  0.4331  0.0446  0.4206
10843TIP3    H153944   6.101   6.739   6.495  1.1917  0.1407  0.2373
10843TIP3    H253945   6.117   6.597   6.542  0.4257  0.1312  0.4791
10844TIP3   OH253946   4.587   2.964   1.317 -0.0922 -0.4253  0.2535
10844TIP3    H153947   4.648   2.989   1.247  1.9127  1.7146  2.5648
10844TIP3    H253948   4.588   2.869   1.316  1.3248 -0.4482 -1.4340
10845TIP3   OH253949   3.487   1.499   5.733  0.0840 -0.5524 -0.2360
10845TIP3    H153950   3.563   1.498   5.675  2.6189  0.8005  2.7701
10845TIP3    H253951   3.457   1.590   5.732 -0.2486 -0.6559  0.0848
10846TIP3   OH253952   3.670   3.798   1.171  0.0131 -0.4480  0.1233
10846TIP3    H153953   3.642   3.706   1.170 -0.1693 -0.4520 -2.3300
10846TIP3    H253954   3.670   3.823   1.263 -0.1981 -2.8293  0.8266
10847TIP3   OH253955   2.280   6.203   2.119  0.4183  0.1641  0.2008
10847TIP3    H153956   2.250   6.118   2.148  1.2512  0.8866  3.5953
10847TIP3    H253957   2.376   6.195   2.114  0.3784  0.2630 -2.0530
10848TIP3   OH253958   5.040   2.941   2.961  0.0278 -0.6378  0.5718
10848TIP3    H153959   5.124   2.903   2.936  0.3437 -0.3722  1.1986
10848TIP3    H253960   4.983   2.866   2.979  0.2092 -0.8133  0.4177
10849TIP3   OH253961   6.654   2.327   0.188  0.2899 -0.5683 -0.1269
10849TIP3    H153962   6.593   2.266   0.229 -1.3502  0.4998 -0.8926
10849TIP3    H253963   6.652   2.306   0.095  0.5944 -0.0936 -0.2481
10850TIP3   OH253964   0.874   2.773   1.166 -0.1697  0.0234 -0.1503
10850TIP3    H153965   0.919   2.722   1.234 -2.9560 -1.1210  0.9659
10850TIP3    H253966   0.850   2.709   1.100 -2.8237 -0.0423  0.7788
10851TIP3   OH253967   2.583   1.117  16.203  0.3098  0.4741  0.0298
10851TIP3    H153968   2.670   1.159  16.203  0.1852  0.8781 -2.3842
10851TIP3    H253969   2.524   1.187  16.232  0.6086  0.7161  0.0690
10852TIP3   OH253970   0.998   1.065   3.291  0.4039  0.2796  0.3828
10852TIP3    H153971   0.968   1.046   3.380 -2.1766  1.7346 -0.0748
10852TIP3    H253972   0.989   0.982   3.244 -1.8638  0.3393  0.6058
10853TIP3   OH253973   4.218   2.557  10.680 -0.0908 -0.1918 -0.2914
10853TIP3    H153974   4.153   2.579  10.613 -0.4126 -1.2852 -0.3570
10853TIP3    H253975   4.170   2.565  10.763  0.1158  0.4690 -0.2276
10854TIP3   OH253976   5.181   6.249  16.776 -0.4170  0.0596  0.5882
10854TIP3    H153977   5.272   6.279  16.769 -0.7272  1.0483  0.6668
10854TIP3    H253978   5.171   6.226  16.869  0.2093 -1.6283  0.2795
10855TIP3   OH253979   1.133   5.443   5.807  0.7238 -0.5246 -0.5997
10855TIP3    H153980   1.140   5.360   5.854  0.5147 -0.4177 -0.3779
10855TIP3    H253981   1.149   5.510   5.873  0.1928 -0.3639 -0.6217
10856TIP3   OH253982   0.094   5.812   0.772  0.9564 -0.2293 -0.1194
10856TIP3    H153983   0.060   5.893   0.810  3.1291  1.0773 -0.7715
10856TIP3    H253984   0.121   5.760   0.848  0.1266 -0.0863  0.2831
10857TIP3   OH253985   5.532   0.597   1.646  0.0790  0.3392 -0.3325
10857TIP3    H153986   5.496   0.672   1.598  1.1447  1.3578  0.3720
10857TIP3    H253987   5.576   0.545   1.579 -1.0099  0.1159 -0.8978
10858TIP3   OH253988   5.557   0.219   1.417 -0.3634  0.0392 -0.4196
10858TIP3    H153989   5.461   0.219   1.410 -0.2604 -1.0593 -2.7615
10858TIP3    H253990   5.582   0.128   1.403  1.0754  0.5394 -1.2953
10859TIP3   OH253991   2.674   3.470  10.272  0.4823 -0.2313  0.6129
10859TIP3    H153992   2.707   3.559  10.282  0.3790 -0.3113  1.8783
10859TIP3    H253993   2.584   3.482  10.240  0.0826  0.1881  1.8144
10860TIP3   OH253994   2.767   6.530   5.795  0.5884 -0.1883  0.4550
10860TIP3    H153995   2.680   6.521   5.758  1.1958 -2.0949 -0.6665
10860TIP3    H253996   2.795   6.619   5.771 -0.1281 -0.3982 -1.2776
10861TIP3   OH253997   0.194   4.922  14.874  0.4954 -0.1269 -0.1697
10861TIP3    H153998   0.246   4.863  14.929 -0.6610 -1.7597 -0.7542
10861TIP3    H253999   0.218   4.899  14.785 -0.1549  0.1171 -0.4117
10862TIP3   OH254000   4.603   6.027  15.531 -0.2271 -0.6067 -0.0315
10862TIP3    H154001   4.668   6.075  15.481  0.7416 -1.3347  0.5040
10862TIP3    H254002   4.577   6.087  15.601  1.2408 -0.9619  0.8529
10863TIP3   OH254003   2.771   2.675  11.352  0.0915  0.0735  0.0549
10863TIP3    H154004   2.686   2.632  11.354 -0.5135  1.2533  1.5629
10863TIP3    H254005   2.832   2.607  11.324 -1.3856 -0.6591 -1.5679
10864TIP3   OH254006   3.295   3.817  16.822  0.7384  0.2753  0.3679
10864TIP3    H154007   3.389   3.826  16.807  0.4224  1.8728 -0.9557
10864TIP3    H254008   3.257   3.813  16.734 -0.3216 -2.4826  0.8445
10865TIP3   OH254009   2.197   3.340   4.683 -0.2951  0.0557 -0.0461
10865TIP3    H154010   2.159   3.364   4.598 -1.0364 -2.1464 -0.3900
10865TIP3    H254011   2.292   3.344   4.668  0.1508  7.0380  1.2143
10866TIP3   OH254012   6.271   4.526   6.016  0.0550 -0.3885  0.4315
10866TIP3    H154013   6.321   4.577   5.952 -0.6682  0.4199  0.4855
10866TIP3    H254014   6.333   4.506   6.086  0.4692  0.0172  0.1818
10867TIP3   OH254015   3.421   1.102   0.325  0.2870 -0.2702  0.4137
10867TIP3    H154016   3.403   1.008   0.329  0.5810 -0.2820  1.9056
10867TIP3    H254017   3.405   1.125   0.233 -1.5948 -1.3889  0.4195
10868TIP3   OH254018   1.972   4.220   2.973 -0.0057 -0.0815 -0.2110
10868TIP3    H154019   1.992   4.279   3.045 -0.7128  2.0120 -1.6210
10868TIP3    H254020   1.923   4.148   3.013  0.9052  0.2380  1.5847
10869TIP3   OH254021   3.236   4.495  12.894 -0.0685  0.1473 -0.6735
10869TIP3    H154022   3.148   4.510  12.860  0.5230 -0.6838 -2.7395
10869TIP3    H254023   3.273   4.583  12.902 -1.3911  0.5908  1.2817
10870TIP3   OH254024   1.014   5.501  10.554  0.2109 -0.0413 -0.5135
10870TIP3    H154025   0.965   5.580  10.530  0.8840  0.0964 -1.5197
10870TIP3    H254026   1.105   5.522  10.530  0.8161 -0.2295  1.4255
10871TIP3   OH254027   6.224   4.703  11.933 -0.5584  0.0584  0.3567
10871TIP3    H154028   6.309   4.661  11.944 -0.8966 -0.7940 -0.1223
10871TIP3    H254029   6.179   4.648  11.869 -0.6048  1.8190 -1.1889
10872TIP3   OH254030   6.193   0.986   0.933 -0.2827 -0.1920  0.2775
10872TIP3    H154031   6.189   1.060   0.872  1.2015  0.1339  0.5326
10872TIP3    H254032   6.190   1.025   1.020 -1.2143 -0.5732  0.4290
10873TIP3   OH254033   1.706   2.002   3.545 -0.1231  0.8934  0.0165
10873TIP3    H154034   1.681   1.989   3.637  3.5773  1.7271  1.3424
10873TIP3    H254035   1.709   2.097   3.535 -0.5527  0.8092 -1.0332
10874TIP3   OH254036   5.815   2.727   5.732  0.4934  0.0784  0.3470
10874TIP3    H154037   5.876   2.688   5.795 -0.8815 -0.3447  1.4479
10874TIP3    H254038   5.728   2.706   5.766 -0.3059  2.1316 -0.2595
10875TIP3   OH254039   0.074   1.792  15.503  0.0330  0.5805  0.1444
10875TIP3    H154040   0.087   1.844  15.424 -1.2107  0.8760  0.1082
10875TIP3    H254041   0.140   1.723  15.498  0.5339  1.1035 -0.7086
10876TIP3   OH254042   5.853   0.378   0.538 -0.2996  0.2850  0.2363
10876TIP3    H154043   5.923   0.440   0.560 -1.5764  1.1493  2.1460
10876TIP3    H254044   5.890   0.292   0.557  0.9554  0.5377 -0.9083
10877TIP3   OH254045   5.882   0.047  13.392 -0.4087 -0.3107 -0.1258
10877TIP3    H154046   5.920   0.015  13.474  0.7919  1.9533  0.2755
10877TIP3    H254047   5.952   0.100  13.353 -1.6100  0.1825 -1.6911
10878TIP3   OH254048   5.660   1.069  14.664  0.4491  0.4766 -0.1249
10878TIP3    H154049   5.722   1.000  14.690 -0.4521 -0.1718  0.3709
10878TIP3    H254050   5.575   1.037  14.695  0.1539  2.3258  1.1012
10879TIP3   OH254051   5.697   0.780  14.107 -0.4206  0.4431  0.5387
10879TIP3    H154052   5.664   0.691  14.120  0.1461  0.2379  0.6083
10879TIP3    H254053   5.621   0.830  14.078 -0.8216  0.0125  0.8307
10880TIP3   OH254054   6.550   0.814  16.169 -0.6643  0.1502  0.5494
10880TIP3    H154055   6.618   0.837  16.105  1.4194 -0.1587  2.5358
10880TIP3    H254056   6.570   0.724  16.194 -1.5933  0.1773  1.4480
10881TIP3   OH254057   1.960   1.208  11.745  0.3452 -0.2750 -0.3028
10881TIP3    H154058   1.949   1.165  11.660 -0.1508 -0.0985 -0.3303
10881TIP3    H254059   1.876   1.197  11.789  0.8047 -0.9492  0.4432
10882TIP3   OH254060   2.366   1.676  13.859 -0.2922 -0.2631  0.1517
10882TIP3    H154061   2.418   1.755  13.872  1.9237 -1.5253 -0.5540
10882TIP3    H254062   2.344   1.647  13.947 -1.3441  1.2254  0.4159
10883TIP3   OH254063   4.709   1.002   2.298  0.0615 -0.6620 -0.4740
10883TIP3    H154064   4.641   1.053   2.342 -1.3029 -1.2399 -1.8119
10883TIP3    H254065   4.766   0.971   2.369 -0.2068  1.0595  0.5308
10884TIP3   OH254066   1.200   5.917  13.814 -0.0163 -0.4608  0.3222
10884TIP3    H154067   1.178   5.919  13.721  0.4879 -0.7779  0.1876
10884TIP3    H254068   1.256   5.839  13.823  2.5187  1.2263  0.2761
10885TIP3   OH254069   6.783   5.385  14.172 -0.2919  0.0152  0.3732
10885TIP3    H154070   6.841   5.351  14.104  1.0770  2.8328 -0.0462
10885TIP3    H254071   6.837   5.383  14.252 -1.0300 -1.0052  0.8544
10886TIP3   OH254072   5.131   1.767  12.782 -0.0774 -0.0392 -0.3892
10886TIP3    H154073   5.091   1.854  12.781  0.6557  0.3161 -1.7806
10886TIP3    H254074   5.056   1.707  12.777 -0.5773  0.5070  0.3369
10887TIP3   OH254075   6.334   3.724  12.849 -1.0772  0.0201 -0.3462
10887TIP3    H154076   6.344   3.742  12.942 -0.5509  2.2970 -0.8033
10887TIP3    H254077   6.240   3.706  12.838 -1.5102  1.7528  0.3237
10888TIP3   OH254078   0.111   3.131   3.459 -0.3473  0.5266 -0.5582
10888TIP3    H154079   0.086   3.119   3.551 -1.6549 -1.4690 -1.1001
10888TIP3    H254080   0.206   3.142   3.461 -0.4948  2.0513  1.1171
10889TIP3   OH254081   2.377   5.914   3.077 -0.3065  0.5575 -0.7139
10889TIP3    H154082   2.460   5.909   3.031  0.7762 -0.8201  1.2652
10889TIP3    H254083   2.377   6.000   3.118  0.2800  0.4329 -0.4577
10890TIP3   OH254084   6.723   2.163  12.412  0.5889 -0.1087  0.8370
10890TIP3    H154085   6.775   2.244  12.412  0.4677 -0.0276  0.2427
10890TIP3    H254086   6.706   2.146  12.504  3.5126 -1.3173  1.2679
10891TIP3   OH254087   5.388   6.467   6.465 -0.4282  0.5757 -0.0578
10891TIP3    H154088   5.450   6.447   6.395 -0.8860  1.5701 -0.7703
10891TIP3    H254089   5.306   6.485   6.420 -1.2343 -0.6162  0.8711
10892TIP3   OH254090   6.692   2.802   0.363  0.5464  0.6144  0.3339
10892TIP3    H154091   6.698   2.717   0.319 -0.8701  0.9211 -0.5024
10892TIP3    H254092   6.783   2.831   0.370  0.9325 -0.2234 -0.8823
10893TIP3   OH254093   2.659   0.935   5.840  0.0784  0.2483 -0.2684
10893TIP3    H154094   2.616   0.908   5.921  0.2410  0.5972 -0.0655
10893TIP3    H254095   2.721   1.002   5.867 -0.3059  0.8113 -0.7678
10894TIP3   OH254096   4.097   5.879   1.886 -0.5019  0.0651  0.2704
10894TIP3    H154097   4.046   5.827   1.948  1.1666  0.1405  1.7644
10894TIP3    H254098   4.183   5.888   1.926 -0.0719  2.1493 -0.9593
10895TIP3   OH254099   0.526   6.557   0.752  0.0643 -0.1279 -0.4222
10895TIP3    H154100   0.579   6.588   0.826  1.3889 -1.3640 -0.8134
10895TIP3    H254101   0.519   6.633   0.694 -0.3301  0.6308  0.5830
10896TIP3   OH254102   6.105   6.095   2.543 -0.4424  0.9886  0.2479
10896TIP3    H154103   6.068   6.183   2.552 -2.0224  0.2805  1.2585
10896TIP3    H254104   6.029   6.037   2.553  0.7487 -0.5127  0.9171
10897TIP3   OH254105   0.535   5.430   5.421 -0.0282 -0.3960  0.5080
10897TIP3    H154106   0.565   5.343   5.447  0.6461  0.1924  1.7891
10897TIP3    H254107   0.443   5.433   5.448 -0.1910 -0.8741  0.0158
10898TIP3   OH254108   3.115   1.762  15.693 -0.0311  0.5746 -0.1090
10898TIP3    H154109   3.139   1.670  15.706  0.9482  0.5481 -1.8267
10898TIP3    H254110   3.198   1.810  15.702 -0.0992  1.0069 -1.5502
10899TIP3   OH254111   0.535   1.857   1.488  0.0791 -0.1172 -0.3901
10899TIP3    H154112   0.489   1.821   1.565 -0.7813  0.3346 -0.6764
10899TIP3    H254113   0.475   1.922   1.453 -0.1402 -1.2485 -2.2494
10900TIP3   OH254114   6.602   5.036  15.145 -0.0565  0.5636  0.4516
10900TIP3    H154115   6.611   4.942  15.163 -0.2029  0.0060 -2.0361
10900TIP3    H254116   6.525   5.062  15.195 -1.5146 -1.2625 -0.6837
10901TIP3   OH254117   3.573   0.692   4.680 -0.8268 -0.3311 -0.3454
10901TIP3    H154118   3.600   0.753   4.749 -1.7191 -1.1833  0.7985
10901TIP3    H254119   3.480   0.711   4.666 -1.3958 -2.0830  0.7786
10902TIP3   OH254120   0.170   1.488   0.908  0.5848  0.0427  0.2302
10902TIP3    H154121   0.197   1.399   0.932  2.4880  0.6045  0.3143
10902TIP3    H254122   0.168   1.536   0.990 -0.8696  0.0203  0.2440
10903TIP3   OH254123   6.657   6.660  16.842 -0.2600 -0.0360  0.0698
10903TIP3    H154124   6.632   6.572  16.871  1.1605 -1.1138 -1.7345
10903TIP3    H254125   6.753   6.656  16.833 -0.2185  1.5522 -0.5133
10904TIP3   OH254126   1.621   6.170   3.955 -0.0898 -0.3731 -0.2736
10904TIP3    H154127   1.692   6.143   4.013  0.5832 -0.5347 -1.1603
10904TIP3    H254128   1.604   6.093   3.900  0.0145  0.1277 -1.0183
10905TIP3   OH254129   6.168   0.242  13.660 -0.4081  0.6099 -0.1806
10905TIP3    H154130   6.218   0.274  13.584  0.5828  1.5248  0.8213
10905TIP3    H254131   6.229   0.250  13.733 -1.1495 -0.8459  0.6181
10906TIP3   OH254132   4.278   5.250   0.805  0.6305  0.0009  0.5551
10906TIP3    H154133   4.195   5.293   0.825  1.0619  0.9243  0.4044
10906TIP3    H254134   4.254   5.174   0.751 -0.0226  0.9388 -0.5174
10907TIP3   OH254135   1.312   1.265  13.329  0.5006 -0.0653 -0.0050
10907TIP3    H154136   1.296   1.220  13.246 -0.7050 -2.5063  1.4416
10907TIP3    H254137   1.235   1.246  13.382  1.1657  1.5646  1.6638
10908TIP3   OH254138   6.775   4.416   4.375 -0.0656 -0.3660 -0.3038
10908TIP3    H154139   6.858   4.459   4.396  0.0621  0.0139 -1.4915
10908TIP3    H254140   6.740   4.466   4.301 -1.3590 -0.5254  0.1734
10909TIP3   OH254141   3.737   0.025   4.647  0.1183  0.0816 -0.4304
10909TIP3    H154142   3.827   0.012   4.677  0.7834  2.3390 -1.2615
10909TIP3    H254143   3.744   0.031   4.552 -0.6390  1.9309 -0.3973
10910TIP3   OH254144   1.354   2.109  13.946 -0.3306  0.2637 -0.4653
10910TIP3    H154145   1.326   2.075  13.860 -1.3076  0.6070 -0.3031
10910TIP3    H254146   1.339   2.036  14.006  0.7994 -0.1333 -0.6526
10911TIP3   OH254147   6.379   0.867   3.645 -0.2380 -0.0070  0.0520
10911TIP3    H154148   6.401   0.908   3.562 -0.9258  0.1356 -0.0721
10911TIP3    H254149   6.286   0.844   3.636 -0.4349  0.3928  0.9289
10912TIP3   OH254150   6.351   2.489   1.676 -0.4076 -0.0862 -0.1711
10912TIP3    H154151   6.353   2.470   1.770 -0.2013  2.1043  0.3357
10912TIP3    H254152   6.434   2.535   1.660 -1.5223  1.8094 -0.8427
10913TIP3   OH254153   2.601   4.171   5.710 -0.7422 -0.6326  0.1669
10913TIP3    H154154   2.665   4.234   5.676 -1.4597 -0.0969 -0.2209
10913TIP3    H254155   2.598   4.188   5.804  0.2749 -1.2149  0.3166
10914TIP3   OH254156   4.791   1.954   3.066 -0.7350  0.1049  0.1062
10914TIP3    H154157   4.761   1.874   3.108  0.9800  0.3188  1.8971
10914TIP3    H254158   4.751   2.024   3.117  0.6627  0.3663  0.9111
10915TIP3   OH254159   3.238   5.122   3.995  0.6029  0.7040  0.0093
10915TIP3    H154160   3.157   5.093   4.039  0.8360  1.0650  0.6871
10915TIP3    H254161   3.237   5.076   3.911  0.9641 -1.3164  1.0350
10916TIP3   OH254162   2.433   6.209  12.496 -0.3433  0.0597  0.2358
10916TIP3    H154163   2.429   6.122  12.536 -0.7453  0.3618  0.8684
10916TIP3    H254164   2.507   6.252  12.538  0.5388 -0.3488 -0.8634
10917TIP3   OH254165   3.296   2.204   0.528 -0.4844  0.4294 -0.5723
10917TIP3    H154166   3.204   2.194   0.552 -0.9654 -0.1281 -2.4535
10917TIP3    H254167   3.294   2.232   0.436  1.2309 -0.0054 -0.7854
10918TIP3   OH254168   5.600   3.909  15.326 -0.1580  0.0123  0.1403
10918TIP3    H154169   5.673   3.955  15.368 -0.0274 -0.7410  0.7557
10918TIP3    H254170   5.604   3.936  15.234  0.4879  0.4954  0.3049
10919TIP3   OH254171   4.076   3.303   5.662  0.0043  0.3101  0.1461
10919TIP3    H154172   4.141   3.249   5.707  0.1096  0.4807  0.1973
10919TIP3    H254173   4.119   3.331   5.581 -0.7191 -1.2709 -0.8215
10920TIP3   OH254174   3.326   5.907  14.870 -0.6477 -0.2974  0.3073
10920TIP3    H154175   3.412   5.930  14.835 -1.5439  2.3695 -0.3845
10920TIP3    H254176   3.341   5.824  14.917  2.0925 -0.3298 -0.4207
10921TIP3   OH254177   2.049   5.065   0.498 -0.6018 -0.2668  0.3074
10921TIP3    H154178   2.116   5.035   0.437 -3.8312 -1.9068 -2.8007
10921TIP3    H254179   2.021   4.986   0.545 -1.3135  0.1044  0.5327
10922TIP3   OH254180   1.461   1.774  14.851  0.0352  0.0342  0.6672
10922TIP3    H154181   1.544   1.729  14.834 -1.1215 -1.3616 -1.8887
10922TIP3    H254182   1.479   1.866  14.833  1.2514 -0.0957  1.1368
10923TIP3   OH254183   4.825   4.957  14.250 -0.1618  0.2551 -0.8510
10923TIP3    H154184   4.777   5.040  14.246 -0.0049  0.4791  1.1166
10923TIP3    H254185   4.813   4.927  14.340  1.3727 -0.9095 -0.9980
10924TIP3   OH254186   0.641   4.825   4.902  0.0597  0.5881  0.0403
10924TIP3    H154187   0.728   4.806   4.867  0.1432  3.2970 -1.4280
10924TIP3    H254188   0.582   4.814   4.828 -1.0510 -1.9178  1.1858
10925TIP3   OH254189   0.428   6.122   2.952  0.2219 -0.2118 -0.1828
10925TIP3    H154190   0.498   6.162   3.003 -0.7126  0.8050  0.3383
10925TIP3    H254191   0.376   6.195   2.920 -1.0164 -0.9734  0.0231
10926TIP3   OH254192   1.015   4.346   2.117 -0.1900  0.0677  0.0765
10926TIP3    H154193   0.962   4.273   2.087  1.7636 -0.7779 -1.5236
10926TIP3    H254194   1.101   4.308   2.134  0.5389  1.7774  0.4159
10927TIP3   OH254195   6.547   1.594  12.167  0.2242  0.7438 -0.4325
10927TIP3    H154196   6.598   1.610  12.088  0.2706  0.4611 -0.4606
10927TIP3    H254197   6.567   1.668  12.224  1.6904 -0.0269  0.0849
10928TIP3   OH254198   4.189   6.121  14.784  0.8168  0.2428 -0.0500
10928TIP3    H154199   4.124   6.056  14.758 -0.3201  0.6963  1.5328
10928TIP3    H254200   4.235   6.080  14.857  1.6507  0.3373 -0.5049
10929TIP3   OH254201   6.121   6.049  12.110  0.2086 -0.7607  0.4489
10929TIP3    H154202   6.089   6.009  12.029 -1.0395 -1.0384  1.0490
10929TIP3    H254203   6.146   6.138  12.084 -0.5118 -0.7294 -0.1748
10930TIP3   OH254204   1.849   4.133   2.424  0.0181 -0.0824 -0.6009
10930TIP3    H154205   1.797   4.056   2.447  3.3282 -2.2296  0.2797
10930TIP3    H254206   1.879   4.117   2.335  3.4606 -1.6422  0.6909
10931TIP3   OH254207   1.580   5.250  13.383  0.2819 -0.3301  0.0022
10931TIP3    H154208   1.563   5.157  13.396  0.7016 -0.3399  0.5025
10931TIP3    H254209   1.622   5.279  13.464 -2.1077  0.8632  0.9219
10932TIP3   OH254210   3.721   0.642   6.491  0.2350  0.2568 -0.5001
10932TIP3    H154211   3.712   0.550   6.468  0.9384 -0.3255  1.3698
10932TIP3    H254212   3.633   0.669   6.518  0.1755 -0.0785 -0.3565
10933TIP3   OH254213   5.802   4.739   2.025  0.3144  0.0061  0.0126
10933TIP3    H154214   5.732   4.723   1.962 -0.8329 -0.5872  1.4036
10933TIP3    H254215   5.869   4.674   2.004 -0.7748 -1.2871  0.4373
10934TIP3   OH254216   3.071   1.224  15.742  0.3683  0.0426  0.7649
10934TIP3    H154217   3.088   1.139  15.783  1.2798 -0.0585  0.1983
10934TIP3    H254218   3.010   1.268  15.801 -0.4349 -1.1667  0.8644
10935TIP3   OH254219   6.700   2.758  12.724  0.1783 -0.1322 -0.1089
10935TIP3    H154220   6.720   2.832  12.781 -0.0955  1.2423 -1.7121
10935TIP3    H254221   6.784   2.736  12.683  1.0556 -3.0771  2.8848
10936TIP3   OH254222   3.846   2.986   5.812  0.1452  0.0866  0.6648
10936TIP3    H154223   3.756   2.969   5.842  0.1339  0.0626  0.6171
10936TIP3    H254224   3.901   2.946   5.879  0.1239  0.3797  0.8605
10937TIP3   OH254225   1.814   3.702   3.545 -0.0582 -0.4309 -0.2784
10937TIP3    H154226   1.803   3.741   3.458 -0.2136 -0.3875 -0.2389
10937TIP3    H254227   1.798   3.773   3.606 -0.3210 -0.5489 -0.2070
10938TIP3   OH254228   3.201   2.814  11.579 -0.2986  1.2324 -0.2393
10938TIP3    H154229   3.120   2.809  11.528  1.0890  0.6789 -2.5343
10938TIP3    H254230   3.210   2.727  11.618 -1.1239  1.5067  0.5988
10939TIP3   OH254231   4.789   6.123  15.117  0.0407  0.2190  0.6197
10939TIP3    H154232   4.864   6.067  15.099 -1.8627 -2.6998  1.0822
10939TIP3    H254233   4.786   6.130  15.212  0.3735  1.3561  0.5633
10940TIP3   OH254234   3.739   5.891  14.282 -0.0721  0.2512 -0.2095
10940TIP3    H154235   3.659   5.918  14.236  0.4712 -0.7057 -1.7964
10940TIP3    H254236   3.798   5.863  14.212  2.9136  3.8632  0.5248
10941TIP3   OH254237   1.839   3.738   1.564 -0.4321  0.4424 -0.6975
10941TIP3    H154238   1.751   3.776   1.558  0.4564  2.5346 -1.3433
10941TIP3    H254239   1.879   3.757   1.479  1.5783  2.0354  0.5277
10942TIP3   OH254240   1.480   3.833  16.269  0.0057  0.2095 -0.3066
10942TIP3    H154241   1.529   3.756  16.299  1.3840  1.9615  2.3253
10942TIP3    H254242   1.415   3.848  16.338 -0.8537  0.9011 -1.2411
10943TIP3   OH254243   6.380   1.478  15.351  0.3756  0.3565  0.0182
10943TIP3    H154244   6.332   1.397  15.331  0.4173  0.4662 -0.5364
10943TIP3    H254245   6.460   1.448  15.394 -0.0761  0.1592  0.7314
10944TIP3   OH254246   0.587   1.589   1.122 -0.0866  0.0968  0.6014
10944TIP3    H154247   0.507   1.553   1.160  0.3606  0.9741  2.5170
10944TIP3    H254248   0.574   1.683   1.122  0.6051  0.2025  0.1166
10945TIP3   OH254249   6.072   5.635   1.514  0.5009  0.7138  0.4074
10945TIP3    H154250   6.154   5.675   1.542 -0.8649  2.4303  2.2711
10945TIP3    H254251   6.019   5.708   1.482  0.1179 -0.5336 -2.0522
10946TIP3   OH254252   5.656   2.251  16.150  0.5524  0.3800 -0.5014
10946TIP3    H154253   5.730   2.202  16.113  1.5565  0.6238  1.0857
10946TIP3    H254254   5.644   2.215  16.238 -0.0919  1.5134 -0.0922
10947TIP3   OH254255   4.431   3.179  11.990 -0.4368  0.1629  0.0683
10947TIP3    H154256   4.408   3.164  12.081  0.4361  0.5445  0.3591
10947TIP3    H254257   4.505   3.121  11.974 -0.3938  0.3197 -0.3147
10948TIP3   OH254258   2.151   4.887   3.786 -0.0687 -0.2290 -0.5335
10948TIP3    H154259   2.156   4.804   3.833  2.4668  0.5599  0.7368
10948TIP3    H254260   2.091   4.870   3.713 -2.1750 -2.2054  1.5079
10949TIP3   OH254261   5.788   2.414  15.489  0.2831  0.4748 -0.1182
10949TIP3    H154262   5.704   2.394  15.448 -0.1190  1.0026  0.4364
10949TIP3    H254263   5.828   2.480  15.432  0.6196 -0.2321 -0.7289
10950TIP3   OH254264   0.215   5.312  16.352  0.0569  0.6818  0.4545
10950TIP3    H154265   0.141   5.255  16.375  0.0692  0.3184 -0.3650
10950TIP3    H254266   0.183   5.366  16.281  1.0386 -0.5939 -1.0356
10951TIP3   OH254267   6.420   1.914  10.278 -0.5289 -0.6322  0.4968
10951TIP3    H154268   6.478   1.841  10.256  1.1047  0.8920 -0.6250
10951TIP3    H254269   6.460   1.953  10.356  0.0175  0.4433 -0.2948
10952TIP3   OH254270   1.177   1.032  14.840  0.6516  0.4332 -0.0632
10952TIP3    H154271   1.262   1.070  14.817  0.7585 -0.2636 -0.8890
10952TIP3    H254272   1.184   1.011  14.933  1.8726 -0.7881 -0.3912
10953TIP3   OH254273   0.326   6.034  11.621 -0.5624  0.2453 -0.1385
10953TIP3    H154274   0.306   6.040  11.527 -1.1828 -0.0881 -0.0335
10953TIP3    H254275   0.240   6.029  11.663 -0.2758 -0.0829  0.4177
10954TIP3   OH254276   5.116   1.207  11.022 -0.1502  0.1279  0.1184
10954TIP3    H154277   5.194   1.225  11.075  0.7254 -0.1000 -1.0715
10954TIP3    H254278   5.094   1.116  11.042 -0.0689  0.1694  0.3992
10955TIP3   OH254279   1.145   5.022  16.440  0.2574 -0.4718  0.2666
10955TIP3    H154280   1.215   4.998  16.501 -0.0046 -0.4921  0.5634
10955TIP3    H254281   1.138   5.117  16.448  0.8408 -0.3613 -0.4114
10956TIP3   OH254282   2.073   5.243   2.565  0.3643  0.7247  0.1759
10956TIP3    H154283   2.004   5.285   2.513 -1.0891  0.2063  1.5659
10956TIP3    H254284   2.102   5.169   2.512 -1.2807  0.0383  0.1417
10957TIP3   OH254285   1.163   1.173  12.926  0.7766  0.3256  0.4085
10957TIP3    H154286   1.142   1.119  13.002 -0.1636 -1.1883 -0.8670
10957TIP3    H254287   1.124   1.258  12.946 -2.0151 -0.8554  0.4495
10958TIP3   OH254288   4.330   3.664   1.645 -0.3009  0.6546  0.2551
10958TIP3    H154289   4.403   3.668   1.707 -0.3521  1.3635  0.2822
10958TIP3    H254290   4.370   3.635   1.563  0.3486  2.6305 -0.1808
10959TIP3   OH254291   3.469   0.367   5.667  0.1081  0.0747 -0.2055
10959TIP3    H154292   3.510   0.287   5.636  1.2129  0.5958 -0.1338
10959TIP3    H254293   3.399   0.338   5.726 -2.4858 -1.0031 -3.4981
10960TIP3   OH254294   4.165   4.295   5.555  0.4396 -0.0675  0.2077
10960TIP3    H154295   4.168   4.338   5.641  1.5255 -1.0688  0.6987
10960TIP3    H254296   4.095   4.231   5.563  1.4185 -1.0996  0.8412
10961TIP3   OH254297   3.631   4.021  14.792  0.1438  0.1022  0.4600
10961TIP3    H154298   3.568   3.982  14.730  1.6659 -1.2219 -0.3243
10961TIP3    H254299   3.623   4.115  14.777 -0.9235 -0.0820 -0.3489
10962TIP3   OH254300   5.029   1.825   3.496 -0.3412  0.3650 -0.1505
10962TIP3    H154301   4.999   1.793   3.581 -1.8360  0.6304 -0.5490
10962TIP3    H254302   5.116   1.786   3.485 -0.2001  0.1753  1.4036
10963TIP3   OH254303   3.751   1.723  16.797  0.4783  0.0777 -1.1043
10963TIP3    H154304   3.695   1.801  16.797 -1.1318 -1.0173 -1.5782
10963TIP3    H254305   3.762   1.701  16.705  1.1330 -0.1207 -0.9836
10964TIP3   OH254306   2.627   5.956  12.903 -0.2622 -0.0918  0.4303
10964TIP3    H154307   2.656   5.878  12.856 -1.4570  0.7689 -1.8551
10964TIP3    H254308   2.532   5.944  12.914 -0.2039  0.3109  1.5273
10965TIP3   OH254309   0.269   1.995   2.420 -0.3045 -1.1214  0.4597
10965TIP3    H154310   0.285   2.062   2.486  0.3235 -0.7978 -0.0174
10965TIP3    H254311   0.262   1.913   2.470 -1.1711 -0.6997  1.0511
10966TIP3   OH254312   5.543   1.299  12.832 -0.5048 -0.1442  0.7395
10966TIP3    H154313   5.510   1.265  12.915  0.8402  0.1175  1.4067
10966TIP3    H254314   5.534   1.394  12.839 -0.6869 -0.1391  0.4499
10967TIP3   OH254315   6.065   4.680   5.761 -0.0412 -0.1051  0.4366
10967TIP3    H154316   6.057   4.717   5.673 -1.5855 -0.2932  0.4703
10967TIP3    H254317   6.147   4.631   5.759  0.3560  0.5610 -0.6390
10968TIP3   OH254318   1.192   5.667  15.245 -0.5205  0.3454  0.2234
10968TIP3    H154319   1.124   5.604  15.268 -0.1869  0.0389  0.3783
10968TIP3    H254320   1.244   5.622  15.178 -0.7386  0.7515 -0.2207
10969TIP3   OH254321   0.087   0.420   1.527 -0.7601  0.5657  0.4195
10969TIP3    H154322   0.142   0.345   1.506 -2.5209 -0.0745 -2.4015
10969TIP3    H254323   0.092   0.427   1.623  1.4819 -1.4959  0.5478
10970TIP3   OH254324   4.161   6.079  15.262 -0.2868 -0.5051 -0.4685
10970TIP3    H154325   4.114   6.139  15.321  1.9033  0.4168  0.4586
10970TIP3    H254326   4.163   6.125  15.178 -1.0693 -0.5909 -0.5428
10971TIP3   OH254327   3.820   0.678   3.287  0.2609 -0.5499 -0.8820
10971TIP3    H154328   3.784   0.738   3.352  0.5640 -3.2940  2.0042
10971TIP3    H254329   3.871   0.735   3.228  0.0130  2.0736  1.2524
10972TIP3   OH254330   5.813   3.801  16.527 -0.5234 -0.1063  0.1326
10972TIP3    H154331   5.752   3.730  16.548 -0.0053 -0.4639  0.4692
10972TIP3    H254332   5.838   3.785  16.435 -0.5676 -0.2475  0.1436
10973TIP3   OH254333   4.455   4.576  11.479  0.0572 -0.3101 -0.4191
10973TIP3    H154334   4.386   4.580  11.545  0.6886 -0.9012  0.2980
10973TIP3    H254335   4.518   4.512  11.513  0.6738 -0.2163 -1.3310
10974TIP3   OH254336   2.282   2.901   1.106  0.0346  0.2149  0.2356
10974TIP3    H154337   2.365   2.914   1.152  0.7330 -1.4314 -0.4705
10974TIP3    H254338   2.300   2.928   1.016  0.2464 -1.3643 -0.2356
10975TIP3   OH254339   2.409   5.976  12.642  0.0005 -0.5673  0.4888
10975TIP3    H154340   2.384   6.005  12.729  0.9599  0.0664  0.5702
10975TIP3    H254341   2.327   5.950  12.600 -1.1804  3.3046 -0.0039
10976TIP3   OH254342   2.968   2.266   1.916  0.0467  0.4669 -0.1717
10976TIP3    H154343   2.928   2.182   1.897  0.7928  0.1483 -0.3573
10976TIP3    H254344   3.020   2.251   1.996  1.4291  0.3261 -1.0568
10977TIP3   OH254345   2.572   1.576  15.880 -0.0129  0.5794  0.5045
10977TIP3    H154346   2.536   1.546  15.796  0.0316  0.5296  0.5033
10977TIP3    H254347   2.612   1.498  15.918  2.5834  1.1812 -0.7637
10978TIP3   OH254348   4.614   5.658  12.069 -0.3154 -0.9248 -0.2994
10978TIP3    H154349   4.603   5.727  12.135  0.4146  0.3431 -1.4518
10978TIP3    H254350   4.682   5.601  12.105  0.2421 -0.1147 -0.0352
10979TIP3   OH254351   3.649   0.885  15.279  0.0794  0.4303  0.6071
10979TIP3    H154352   3.657   0.937  15.358 -0.7680 -0.1844  1.1043
10979TIP3    H254353   3.684   0.799  15.302 -0.6619  0.0866  0.4804
10980TIP3   OH254354   2.678   0.981   3.752 -0.7275 -0.7564 -0.1509
10980TIP3    H154355   2.769   0.955   3.735 -0.7855 -0.9192 -0.2166
10980TIP3    H254356   2.653   1.032   3.676 -0.8585 -1.1499 -0.3744
10981TIP3   OH254357   5.587   1.991  15.042 -0.4226 -0.1671  0.2987
10981TIP3    H154358   5.599   1.934  15.118  1.7881  2.2545  1.9377
10981TIP3    H254359   5.639   1.949  14.973  0.1056 -0.8333  1.0757
10982TIP3   OH254360   5.845   3.568   2.137 -0.4041 -0.0343  0.2320
10982TIP3    H154361   5.892   3.648   2.165 -0.1351 -0.2214  0.3222
10982TIP3    H254362   5.808   3.533   2.218  2.0665 -1.6889  0.7753
10983TIP3   OH254363   0.304   2.164   6.125  0.1533  0.3692  0.1176
10983TIP3    H154364   0.245   2.094   6.155 -1.7890  1.8207 -0.0735
10983TIP3    H254365   0.362   2.180   6.199  1.5532 -2.2931 -0.2972
10984TIP3   OH254366   3.043   0.331   4.647 -0.9915 -0.9995  0.2892
10984TIP3    H154367   2.949   0.327   4.663 -1.2194  0.9475 -0.2927
10984TIP3    H254368   3.059   0.421   4.617  1.3760 -0.5319  2.5349
10985TIP3   OH254369   2.064   4.755  13.111 -0.4764  0.0173 -0.2731
10985TIP3    H154370   2.141   4.797  13.074  0.0588 -1.2449 -0.6288
10985TIP3    H254371   2.043   4.684  13.050 -0.3718 -1.2516  1.1015
10986TIP3   OH254372   5.644   0.504   4.519  0.0349  0.0108 -0.6467
10986TIP3    H154373   5.558   0.470   4.542 -0.3485 -0.2353 -2.3475
10986TIP3    H254374   5.638   0.598   4.538 -0.3479 -0.1238 -0.0612
10987TIP3   OH254375   2.730   3.078  11.476 -0.0320 -0.1499  0.2672
10987TIP3    H154376   2.665   3.019  11.439  0.4866  0.2087 -1.2722
10987TIP3    H254377   2.698   3.165  11.455  0.0626  0.0799  1.0495
10988TIP3   OH254378   2.873   6.103  11.072 -0.3088 -0.3121  0.2235
10988TIP3    H154379   2.875   6.013  11.106 -1.8920 -0.1799  0.7439
10988TIP3    H254380   2.819   6.151  11.135  0.8672  1.1126  0.1674
10989TIP3   OH254381   5.556   5.258  13.126  0.3533 -0.4728 -0.4471
10989TIP3    H154382   5.534   5.173  13.088 -1.2590 -0.3031  0.0276
10989TIP3    H254383   5.503   5.321  13.077 -0.3752 -0.0468  0.8254
10990TIP3   OH254384   5.753   3.300  11.844 -0.3213 -0.3190 -0.7210
10990TIP3    H154385   5.706   3.361  11.900 -0.2367 -1.0621  0.1807
10990TIP3    H254386   5.841   3.296  11.882 -0.5815 -1.6823 -0.2064
10991TIP3   OH254387   1.866   4.257  14.328  0.1144 -0.1242 -0.0824
10991TIP3    H154388   1.891   4.242  14.420 -0.6305  0.0071  0.1404
10991TIP3    H254389   1.886   4.174  14.285 -0.6806 -0.6034  0.4504
10992TIP3   OH254390   3.721   2.581  13.202  0.1490 -0.2126  0.0209
10992TIP3    H154391   3.636   2.606  13.166  0.9591  1.5716 -0.8013
10992TIP3    H254392   3.701   2.527  13.278 -1.7043 -0.1465 -0.3836
10993TIP3   OH254393   3.143   2.571   5.626  0.0704 -0.0007 -0.2559
10993TIP3    H154394   3.137   2.666   5.622  1.2662  0.1068  0.1901
10993TIP3    H254395   3.212   2.548   5.564 -0.2076 -0.5825 -0.3640
10994TIP3   OH254396   2.371   2.108  13.594  0.3071 -0.0019 -0.4639
10994TIP3    H154397   2.444   2.165  13.621 -0.0679  0.2297  0.0895
10994TIP3    H254398   2.304   2.122  13.661 -0.8286  0.8912 -1.7488
10995TIP3   OH254399   5.990   0.645   0.491 -0.4606 -0.1958  0.3244
10995TIP3    H154400   5.915   0.683   0.536 -0.2765  0.9260 -0.2815
10995TIP3    H254401   5.958   0.627   0.403 -0.1581 -0.1745  0.2091
10996TIP3   OH254402   4.434   1.671  12.719 -0.2700  0.5581 -0.0831
10996TIP3    H154403   4.394   1.593  12.680  0.8116  0.0462 -0.1980
10996TIP3    H254404   4.497   1.700  12.653  0.3065  0.7323  0.5433
10997TIP3   OH254405   0.728   4.603   0.812  0.1754  0.6487 -0.0403
10997TIP3    H154406   0.772   4.545   0.750  1.1802 -0.6841  1.8149
10997TIP3    H254407   0.760   4.691   0.790  1.4263  0.0632 -0.6504
10998TIP3   OH254408   5.245   6.021   4.495  0.5588  0.4100  0.5174
10998TIP3    H154409   5.335   5.995   4.475  0.1685  0.0676 -0.8905
10998TIP3    H254410   5.249   6.117   4.496  1.3167  0.4015  2.4369
10999TIP3   OH254411   2.500   1.893   4.796 -0.1706 -0.3970 -0.1247
10999TIP3    H154412   2.509   1.973   4.744 -0.1632  0.7310  1.5379
10999TIP3    H254413   2.588   1.874   4.828 -0.1965 -0.9931 -0.4023
11000TIP3   OH254414   6.465   1.644   4.335  0.1502  0.5574  0.1774
11000TIP3    H154415   6.410   1.574   4.371  0.9167 -0.4520 -0.5722
11000TIP3    H254416   6.419   1.672   4.256  0.4559  0.0284 -0.1981
11001TIP3   OH254417   5.654   0.494  13.696 -0.1875  0.2998  0.2589
11001TIP3    H154418   5.745   0.497  13.728  0.0317  0.9999 -0.4067
11001TIP3    H254419   5.620   0.581  13.713 -0.7154  0.0673  0.4162
11002TIP3   OH254420   0.540   6.475   5.110  0.0627 -0.1219  0.1213
11002TIP3    H154421   0.479   6.437   5.047 -0.4039  0.4687  0.2013
11002TIP3    H254422   0.521   6.569   5.108  0.3096 -0.0480  0.8521
11003TIP3   OH254423   2.746   0.657   4.410  0.2359 -0.1401  0.7206
11003TIP3    H154424   2.809   0.600   4.366 -0.7030 -0.3001 -0.4698
11003TIP3    H254425   2.770   0.746   4.383 -0.7628 -0.2866 -0.7263
11004TIP3   OH254426   3.659   3.420   5.291 -0.0727 -0.3241  0.7317
11004TIP3    H154427   3.660   3.375   5.375  0.1969 -1.5540  0.1025
11004TIP3    H254428   3.572   3.459   5.285 -0.1961 -0.4714  1.4455
11005TIP3   OH254429   4.043   5.737  17.182  0.5066 -0.4255 -0.3970
11005TIP3    H154430   4.062   5.822  17.222  1.2415  0.4029 -2.3728
11005TIP3    H254431   3.948   5.735  17.172  0.4338 -0.1050  0.2154
11006TIP3   OH254432   4.239   5.992   5.657 -0.2587  0.6760 -0.9471
11006TIP3    H154433   4.300   5.929   5.620  0.4260  0.7210  0.0780
11006TIP3    H254434   4.152   5.957   5.636  0.1098  0.1239 -1.5801
11007TIP3   OH254435   3.004   6.666   4.511  0.4745  0.0193  0.1251
11007TIP3    H154436   2.967   6.723   4.578  0.2856  2.2813 -1.7749
11007TIP3    H254437   3.095   6.652   4.539  1.1397  2.9449 -0.2496
11008TIP3   OH254438   3.176   0.239  14.888 -0.4745 -0.1314 -0.4679
11008TIP3    H154439   3.159   0.225  14.981 -0.7270 -0.1507 -0.5157
11008TIP3    H254440   3.132   0.166  14.844 -0.2962 -0.1613 -0.5966
11009TIP3   OH254441   3.594   1.360  11.632  0.0898 -0.0195  0.3906
11009TIP3    H154442   3.653   1.366  11.557  0.4352 -0.6478  0.5976
11009TIP3    H254443   3.646   1.390  11.707  0.2931 -0.9501  0.6388
11010TIP3   OH254444   0.973   3.546  11.445  0.3772  0.0288  0.4929
11010TIP3    H154445   0.985   3.485  11.517 -0.3527  0.3967  0.9500
11010TIP3    H254446   0.920   3.617  11.483  2.6240  1.8273  0.4666
11011TIP3   OH254447   2.491   4.699  15.917  0.2898 -0.3744 -0.0151
11011TIP3    H154448   2.485   4.794  15.908  2.1488 -0.3007 -1.0077
11011TIP3    H254449   2.582   4.679  15.896  0.4133 -2.2038  1.9537
11012TIP3   OH254450   2.386   2.940  11.236 -0.2913  0.3062 -0.8917
11012TIP3    H154451   2.360   2.990  11.158  3.2443  1.9963 -1.1573
11012TIP3    H254452   2.456   2.883  11.205 -0.9796 -1.3846  0.4904
11013TIP3   OH254453   5.180   5.995  10.795 -0.3281  0.1759 -0.3436
11013TIP3    H154454   5.160   5.906  10.764 -0.1339 -0.0517  0.1780
11013TIP3    H254455   5.156   5.994  10.887 -2.7223  1.4047 -0.8615
11014TIP3   OH254456   6.143   0.739  14.805 -0.0750  0.6361 -0.1951
11014TIP3    H154457   6.119   0.773  14.719  2.2106  0.6423 -0.9140
11014TIP3    H254458   6.235   0.712  14.795 -0.2078 -0.7897  1.8226
11015TIP3   OH254459   0.619   3.085  16.000  0.8502  0.1176  0.1686
11015TIP3    H154460   0.650   2.995  15.986  0.7550  0.4105 -2.2520
11015TIP3    H254461   0.603   3.090  16.095  2.0751 -2.0035  0.5511
11016TIP3   OH254462   5.737   4.885  12.042 -0.3223  0.1666 -0.1682
11016TIP3    H154463   5.661   4.829  12.028 -0.4994  0.0800  1.0193
11016TIP3    H254464   5.808   4.824  12.062 -0.0746  0.2771 -0.7069
11017TIP3   OH254465   6.475   3.380   4.745 -0.1069  0.1208 -0.2047
11017TIP3    H154466   6.542   3.397   4.810 -0.3527  0.3820 -0.0204
11017TIP3    H254467   6.444   3.466   4.718 -0.3457  0.0044 -0.3109
11018TIP3   OH254468   4.494   1.869  13.336  0.0415  0.3254 -0.1003
11018TIP3    H154469   4.521   1.960  13.346  0.6124 -0.0253  2.3750
11018TIP3    H254470   4.564   1.828  13.286  1.6443  0.5600  1.7999
11019TIP3   OH254471   2.545   0.082  12.601 -0.7046 -0.1029 -0.0811
11019TIP3    H154472   2.516   0.172  12.617 -0.8377 -0.3570  1.2045
11019TIP3    H254473   2.529   0.068  12.508 -3.0672  0.3710  0.1982
11020TIP3   OH254474   5.142   3.501  16.624  0.3138 -0.0893 -0.1486
11020TIP3    H154475   5.232   3.502  16.592  0.3252 -1.4718 -0.2312
11020TIP3    H254476   5.148   3.468  16.713 -0.1272 -0.5594 -0.2811
11021TIP3   OH254477   6.641   6.756  14.601  0.2320  0.0780 -0.3968
11021TIP3    H154478   6.650   6.793  14.689  0.9387  1.0922 -0.8768
11021TIP3    H254479   6.674   6.666  14.609 -0.5014 -0.1261  0.5523
11022TIP3   OH254480   2.636   5.343   4.720  0.5287  0.3363 -0.0688
11022TIP3    H154481   2.707   5.401   4.693  1.5668 -0.6889  0.3334
11022TIP3    H254482   2.640   5.345   4.816 -0.7459  1.1457 -0.0175
11023TIP3   OH254483   6.597   0.386   5.606 -0.4047 -0.9816 -0.4174
11023TIP3    H154484   6.634   0.301   5.627  2.4319  0.3987  0.5725
11023TIP3    H254485   6.634   0.446   5.671 -1.6764  1.1764 -1.5586
11024TIP3   OH254486   5.926   0.629   2.968 -0.0903 -0.0855  0.5471
11024TIP3    H154487   5.899   0.721   2.972  0.1692  0.0748 -0.8911
11024TIP3    H254488   6.020   0.631   2.985  0.2446  0.1403 -1.1251
11025TIP3   OH254489   1.426   0.058  15.035 -0.0624 -0.0539 -0.1971
11025TIP3    H154490   1.519   0.080  15.033 -0.5233  2.1277 -0.0837
11025TIP3    H254491   1.417  -0.017  14.977  1.7350 -0.1660 -0.3636
11026TIP3   OH254492   3.391   5.734   4.416 -0.3426 -0.1609 -0.0665
11026TIP3    H154493   3.357   5.773   4.496  2.0359  0.6349  0.6318
11026TIP3    H254494   3.394   5.640   4.435 -1.6160 -0.2083  0.0097
11027TIP3   OH254495   3.170   5.897   5.747 -0.1818 -0.6146  0.2669
11027TIP3    H154496   3.243   5.946   5.785  0.2135 -0.6564 -0.4248
11027TIP3    H254497   3.123   5.862   5.823  1.0824 -1.4117  0.7096
11028TIP3   OH254498   3.778   0.633  15.305 -0.4039 -0.8106  0.1799
11028TIP3    H154499   3.732   0.570  15.249 -0.0527  0.4454 -1.6120
11028TIP3    H254500   3.871   0.615  15.288 -0.2997 -0.1121 -0.0136
11029TIP3   OH254501   6.398   2.754   5.314 -0.0652 -0.4592  0.3762
11029TIP3    H154502   6.468   2.698   5.280 -0.4471 -0.4132 -0.5238
11029TIP3    H254503   6.423   2.772   5.405  0.2522 -1.7793  0.5697
11030TIP3   OH254504   4.727   2.927   4.612  0.3097  0.3999  0.2411
11030TIP3    H154505   4.656   2.893   4.667  0.0247 -1.3926 -1.1548
11030TIP3    H254506   4.686   2.941   4.527  1.7267 -1.2837 -0.7826
11031TIP3   OH254507   2.132   1.338   5.555 -0.0804 -0.7198  0.3161
11031TIP3    H154508   2.138   1.398   5.630  0.1622  1.5738 -1.4452
11031TIP3    H254509   2.203   1.365   5.497 -1.5224 -1.0297 -1.7025
11032TIP3   OH254510   1.949   0.068  11.381 -0.4894 -0.4318  0.4437
11032TIP3    H154511   1.964  -0.020  11.416 -0.0975  0.1470  1.8094
11032TIP3    H254512   1.956   0.125  11.458 -0.8704  0.7793 -0.4000
11033TIP3   OH254513   5.981   0.057   2.494  0.1154  0.0905  0.3609
11033TIP3    H154514   5.915   0.110   2.449 -0.8760 -0.2319  1.3975
11033TIP3    H254515   5.991  -0.020   2.438 -0.5673  0.0327  0.3147
11034TIP3   OH254516   1.136   3.659   0.222 -0.6805  0.1545 -0.4654
11034TIP3    H154517   1.111   3.750   0.240  1.8038  0.6550  0.8800
11034TIP3    H254518   1.228   3.654   0.247 -0.6512 -2.6790 -0.8357
11035TIP3   OH254519   4.908   5.909   4.281 -0.6765 -0.0669 -0.2043
11035TIP3    H154520   4.904   5.987   4.335 -0.0470  0.4448 -0.8820
11035TIP3    H254521   4.833   5.916   4.223  0.9179  1.5070 -2.1942
11036TIP3   OH254522   2.232   0.515  13.960 -1.0762 -0.4428 -0.0832
11036TIP3    H154523   2.164   0.511  13.893 -2.4978 -0.7311  1.3300
11036TIP3    H254524   2.185   0.520  14.043  0.6272  0.2352  0.9105
11037TIP3   OH254525   3.012   2.511   1.469  0.0752  0.2327 -0.2139
11037TIP3    H154526   3.012   2.553   1.383  3.6532 -0.5483 -0.7400
11037TIP3    H254527   3.017   2.584   1.531 -2.4772  0.7986 -0.5256
11038TIP3   OH254528   2.344   6.084   0.943 -0.1512  0.4359 -0.4436
11038TIP3    H154529   2.365   5.997   0.910 -0.0789  0.8635 -1.5546
11038TIP3    H254530   2.426   6.133   0.937  0.8660 -0.3769  3.6246
11039TIP3   OH254531   3.961   2.404  15.327 -0.4252 -0.1126 -0.4041
11039TIP3    H154532   3.976   2.337  15.394  0.2387  0.4758  0.0544
11039TIP3    H254533   3.881   2.376  15.283  0.5705 -1.9700 -1.1757
11040TIP3   OH254534   4.727   1.727   3.549  0.0798  0.5962  0.4919
11040TIP3    H154535   4.759   1.696   3.465 -0.3970  0.8267  0.2226
11040TIP3    H254536   4.681   1.808   3.529  0.7517  1.1370  1.1018
11041TIP3   OH254537   3.992   5.464  13.660  0.1207 -0.3586 -0.4611
11041TIP3    H154538   4.084   5.492  13.664 -0.3224  1.0450  0.6326
11041TIP3    H254539   3.942   5.545  13.674 -1.2637 -1.5428  1.9488
11042TIP3   OH254540   3.249   3.629   4.281 -0.3514 -0.1811 -0.7164
11042TIP3    H154541   3.167   3.655   4.241  1.1057  1.5180 -2.8400
11042TIP3    H254542   3.249   3.674   4.366 -1.1826  0.6320 -1.1225
11043TIP3   OH254543   1.737   0.038  14.676 -0.4472 -0.3333  0.1118
11043TIP3    H154544   1.804  -0.016  14.718 -0.7372 -1.3199 -0.6526
11043TIP3    H254545   1.768   0.128  14.688  1.7213 -0.8091 -1.3647
11044TIP3   OH254546   0.442   6.084   0.557  0.0529 -0.0623  0.3532
11044TIP3    H154547   0.518   6.026   0.555  1.0273  1.1464 -1.8785
11044TIP3    H254548   0.479   6.171   0.572 -1.1892  0.2551  1.7741
11045TIP3   OH254549   5.469   5.854  16.845  0.4911  0.2305 -0.5252
11045TIP3    H154550   5.538   5.906  16.886  0.3526 -0.8970  1.2593
11045TIP3    H254551   5.508   5.767  16.832 -0.1722 -0.0449 -0.7303
11046TIP3   OH254552   6.676   4.972  17.030 -0.1501 -0.2306 -0.1124
11046TIP3    H154553   6.626   4.959  17.111  1.2305 -1.6908  0.5640
11046TIP3    H254554   6.753   5.022  17.058  0.0494 -0.2380 -0.6382
11047TIP3   OH254555   4.938   1.502  15.897 -0.5433  1.0142 -0.2051
11047TIP3    H154556   4.952   1.597  15.902  0.2802  0.9752 -1.2728
11047TIP3    H254557   5.026   1.465  15.907 -0.5715  0.4739 -1.6753
11048TIP3   OH254558   1.330   6.603   3.274 -0.2860  0.1525 -0.4502
11048TIP3    H154559   1.331   6.566   3.186 -0.4139  0.4724 -0.5880
11048TIP3    H254560   1.391   6.548   3.324  0.8731  0.8036 -1.0884
11049TIP3   OH254561   5.888   4.885   1.551 -0.0142 -0.1420 -0.6997
11049TIP3    H154562   5.904   4.909   1.642 -1.9220 -0.6205 -0.1996
11049TIP3    H254563   5.823   4.948   1.520  0.0070 -0.4839 -1.4796
11050TIP3   OH254564   5.226   5.504  13.945 -0.2868  0.1889  0.5791
11050TIP3    H154565   5.228   5.409  13.955  0.8216  0.3173  1.8457
11050TIP3    H254566   5.183   5.535  14.025  3.9685  0.9676  2.8836
11051TIP3   OH254567   0.274   0.542   4.832 -0.4622 -0.0801  0.0172
11051TIP3    H154568   0.257   0.565   4.923 -0.2637 -2.6929  0.7857
11051TIP3    H254569   0.355   0.491   4.834 -0.7489 -0.6698 -1.5294
11052TIP3   OH254570   5.700   5.971   0.954 -0.4396 -0.0254 -0.0819
11052TIP3    H154571   5.792   5.978   0.979 -0.6089  0.6545  0.3945
11052TIP3    H254572   5.683   6.051   0.903 -1.0174  0.3655  0.7021
11053TIP3   OH254573   6.043   1.379  13.987 -0.7935  0.2124  0.0311
11053TIP3    H154574   6.046   1.285  13.968 -1.5892  0.4019 -1.0534
11053TIP3    H254575   6.124   1.395  14.037  0.2155 -0.7222 -1.2408
11054TIP3   OH254576   6.097   2.015   5.632  0.5900  0.1969  0.4474
11054TIP3    H154577   6.009   2.032   5.665  0.1690 -1.5111  0.3202
11054TIP3    H254578   6.082   1.964   5.552  1.6918  0.2378  0.2055
11055TIP3   OH254579   0.257   2.056   4.650  0.2028 -0.0776  0.7816
11055TIP3    H154580   0.348   2.051   4.677  1.9235  0.2871 -3.9194
11055TIP3    H254581   0.226   1.966   4.651  1.4049 -0.5060  0.3003
11056TIP3   OH254582   1.318   4.990   4.119 -0.1957 -0.2540 -0.0138
11056TIP3    H154583   1.343   5.057   4.055  0.7578 -0.6961 -0.1103
11056TIP3    H254584   1.224   5.003   4.130 -0.2179  0.4104 -0.8361
11057TIP3   OH254585   4.615   4.552  15.604 -0.3588  0.2307 -0.2781
11057TIP3    H154586   4.618   4.489  15.677  2.3890  1.0850  0.4753
11057TIP3    H254587   4.695   4.604  15.615 -0.0154  0.6321 -3.7234
11058TIP3   OH254588   0.646   1.160  12.939  0.3976 -0.8590  0.0296
11058TIP3    H154589   0.604   1.076  12.957 -2.6356  0.2333 -1.2333
11058TIP3    H254590   0.613   1.185  12.852 -0.0134  2.3035  0.9778
11059TIP3   OH254591   4.367   0.997   0.488  0.1271  0.1817  0.5175
11059TIP3    H154592   4.378   1.055   0.564 -0.0654 -0.2381  0.8714
11059TIP3    H254593   4.272   0.990   0.477  0.0999 -1.2664  1.4200
11060TIP3   OH254594   3.096   6.563  13.862 -0.6229  0.0380 -0.1887
11060TIP3    H154595   3.117   6.654  13.883  0.1331 -0.1240 -0.2209
11060TIP3    H254596   3.026   6.569  13.797 -1.4853  0.5743  0.7776
11061TIP3   OH254597   0.830   1.477   1.878 -0.5042  0.5733 -0.2171
11061TIP3    H154598   0.790   1.506   1.960  1.1273  0.0616  0.8100
11061TIP3    H254599   0.901   1.539   1.864 -1.1248  1.0030 -1.5850
11062TIP3   OH254600   2.362   4.285  15.464  0.0094  0.4177 -0.3402
11062TIP3    H154601   2.431   4.344  15.495 -0.8847  1.8958 -1.0575
11062TIP3    H254602   2.401   4.197  15.471  0.3946  0.7113  3.5827
11063TIP3   OH254603   2.996   6.612   5.129 -0.4479  0.3982  0.0010
11063TIP3    H154604   2.905   6.638   5.114 -0.8078 -0.0222  1.2800
11063TIP3    H254605   3.029   6.677   5.191 -0.1548  0.0591  0.2045
11064TIP3   OH254606   0.378   2.990  11.257  0.4230  0.1188 -0.2687
11064TIP3    H154607   0.318   3.047  11.209  0.7034 -0.4075 -1.2754
11064TIP3    H254608   0.417   2.935  11.190 -0.3122 -1.7188  0.7338
11065TIP3   OH254609   0.477   6.405   4.389 -0.1790 -0.3928  0.0866
11065TIP3    H154610   0.483   6.473   4.455  1.3508 -1.4198  1.0883
11065TIP3    H254611   0.385   6.401   4.366 -0.1297  3.3432 -1.5015
11066TIP3   OH254612   1.765   0.243   1.823  0.3175 -0.1315 -0.1688
11066TIP3    H154613   1.675   0.212   1.825  0.4143 -0.4200 -0.2097
11066TIP3    H254614   1.783   0.271   1.913 -0.6452  2.3570 -0.6891
11067TIP3   OH254615   6.105   3.668  16.149  0.1416  0.1398  0.8179
11067TIP3    H154616   6.163   3.592  16.139  0.7399  0.5656  1.0318
11067TIP3    H254617   6.146   3.721  16.217 -0.1565  0.7658  0.5141
11068TIP3   OH254618   3.067   2.721  16.697 -0.3603  0.1026  0.1237
11068TIP3    H154619   3.012   2.644  16.709  1.1730 -0.8866  1.1672
11068TIP3    H254620   3.053   2.773  16.776 -1.8011  1.2174 -0.8137
11069TIP3   OH254621   1.798   6.754   2.305  0.0161 -0.6023 -0.2363
11069TIP3    H154622   1.849   6.832   2.328  1.7860 -2.3555  2.2903
11069TIP3    H254623   1.863   6.692   2.271 -1.2026 -1.3866 -1.2174
11070TIP3   OH254624   1.404   3.317   3.044 -0.3234  0.3307  0.2477
11070TIP3    H154625   1.411   3.413   3.047 -1.1151  0.3836  1.0657
11070TIP3    H254626   1.407   3.290   3.136 -1.7183 -0.2749  0.1526
11071TIP3   OH254627   6.301   4.760  12.853  0.4048  0.4549  0.3197
11071TIP3    H154628   6.231   4.695  12.852 -1.0403  1.9525 -0.3225
11071TIP3    H254629   6.379   4.712  12.825 -0.0612 -1.5225  2.1411
11072TIP3   OH254630   3.189   0.058  13.537 -0.2993 -0.1795 -0.3438
11072TIP3    H154631   3.141   0.126  13.489  1.5545  0.4512 -1.4072
11072TIP3    H254632   3.198  -0.014  13.475  0.1946 -0.2509 -0.1963
11073TIP3   OH254633   6.503   1.359   1.590 -0.6639 -0.0025 -0.1112
11073TIP3    H154634   6.501   1.413   1.511  2.4570  0.9292  0.3243
11073TIP3    H254635   6.594   1.329   1.597 -1.6174 -2.9343  1.2959
11074TIP3   OH254636   1.789   3.186  15.737 -0.2457  0.0407  0.7906
11074TIP3    H154637   1.710   3.135  15.753 -0.4811  0.2118  0.1773
11074TIP3    H254638   1.799   3.186  15.642  0.5675 -0.1012  0.8679
11075TIP3   OH254639   3.314   0.866  14.387 -0.6262  0.7838 -0.4959
11075TIP3    H154640   3.283   0.814  14.312 -1.1517 -0.1039  0.3147
11075TIP3    H254641   3.332   0.801  14.455  0.5585  1.5172 -0.0850
11076TIP3   OH254642   5.464   0.860  12.664  0.4903 -0.1573 -0.5649
11076TIP3    H154643   5.559   0.862  12.676  0.2701 -0.8555  1.7455
11076TIP3    H254644   5.437   0.776  12.700 -0.8727 -0.8167 -2.8858
11077TIP3   OH254645   2.710   1.965   6.124  0.3699  0.0326  0.2698
11077TIP3    H154646   2.644   2.028   6.098  1.7130  1.3732 -0.0459
11077TIP3    H254647   2.663   1.900   6.176 -1.2881  0.5393 -0.5538
11078TIP3   OH254648   5.947   1.305   4.571  0.7238  0.1151  0.1724
11078TIP3    H154649   5.978   1.306   4.661 -1.0004 -1.7277  0.8723
11078TIP3    H254650   5.913   1.393   4.556  0.1344  0.1627  1.6688
11079TIP3   OH254651   2.616   5.349  13.642 -0.2434  0.3917  0.4770
11079TIP3    H154652   2.611   5.289  13.567 -1.7764  0.0106  0.8587
11079TIP3    H254653   2.550   5.415  13.624  0.7761  1.4605  0.5379
11080TIP3   OH254654   5.123   1.240   1.324  0.3464 -0.5730 -0.6244
11080TIP3    H154655   5.134   1.153   1.363 -0.0737 -0.6790 -0.7350
11080TIP3    H254656   5.028   1.251   1.318  0.4027 -0.1893 -0.7974
11081TIP3   OH254657   5.911   0.908  12.368  0.5037  0.1315  0.3655
11081TIP3    H154658   5.905   0.833  12.309  0.2460 -1.6342  2.5227
11081TIP3    H254659   5.887   0.983  12.313  0.4058 -1.3813 -1.7808
11082TIP3   OH254660   0.303   2.795  16.300  0.2206  0.2250  0.7824
11082TIP3    H154661   0.354   2.737  16.356  2.2154 -0.3449 -1.4654
11082TIP3    H254662   0.367   2.857  16.265 -0.9955  0.7454 -0.6268
11083TIP3   OH254663   6.722   4.193   4.995  0.0071 -0.5244  0.2697
11083TIP3    H154664   6.765   4.146   4.924 -0.0667  0.5261 -0.4883
11083TIP3    H254665   6.789   4.199   5.064  0.9379  0.6123 -0.6830
11084TIP3   OH254666   6.091   2.109   2.418 -0.1374 -0.6159 -0.1551
11084TIP3    H154667   6.120   2.019   2.431  0.1734 -0.5811 -0.5694
11084TIP3    H254668   6.167   2.153   2.380 -0.2948 -0.1844  0.0261
11085TIP3   OH254669   4.859   2.644   5.806  0.3226 -0.2648 -0.1711
11085TIP3    H154670   4.862   2.572   5.869  0.5735  0.5016  0.7256
11085TIP3    H254671   4.863   2.723   5.860  0.6605  0.4185 -1.1638
11086TIP3   OH254672   1.359   3.230  14.685  0.3248  0.0612 -0.1193
11086TIP3    H154673   1.297   3.167  14.647 -0.5176  0.5597  0.4010
11086TIP3    H254674   1.440   3.217  14.635  0.2528 -1.6001  0.1493
11087TIP3   OH254675   4.085   2.404   5.055  0.1031 -0.3410 -0.1143
11087TIP3    H154676   3.995   2.371   5.058 -0.4859  1.0599 -1.2657
11087TIP3    H254677   4.101   2.420   4.962  0.0971  3.1324  0.3551
11088TIP3   OH254678   6.394   4.989  12.625 -0.1748  0.0633 -0.0594
11088TIP3    H154679   6.356   4.905  12.604 -0.0177  0.1300 -0.6236
11088TIP3    H254680   6.478   4.990  12.578  0.7577 -0.2748  1.5234
11089TIP3   OH254681   5.658   0.779   2.083  0.3141  0.2109  0.0273
11089TIP3    H154682   5.644   0.761   1.990  1.7115  0.4937 -0.2649
11089TIP3    H254683   5.723   0.713   2.110 -0.9531 -0.6471  1.1199
11090TIP3   OH254684   0.326   5.028   4.637  0.2561 -0.0019  0.1332
11090TIP3    H154685   0.290   4.983   4.713 -0.1991 -0.3621 -0.2884
11090TIP3    H254686   0.315   4.966   4.565  0.0964  0.5784 -0.3540
11091TIP3   OH254687   4.332   5.620  14.490  0.0789  0.2212 -0.1533
11091TIP3    H154688   4.240   5.607  14.467 -0.0701  2.3384 -0.9849
11091TIP3    H254689   4.330   5.641  14.584  0.1372 -3.0175  0.6977
11092TIP3   OH254690   0.217   0.440   4.412 -0.1341 -0.3274  0.3026
11092TIP3    H154691   0.237   0.439   4.319 -0.2762 -0.7838  0.2719
11092TIP3    H254692   0.148   0.374   4.422  0.5388 -0.9712  0.8675
11093TIP3   OH254693   6.689   1.870  11.360  0.2748 -0.1070 -0.0804
11093TIP3    H154694   6.607   1.918  11.372  0.5238  0.1686  0.5498
11093TIP3    H254695   6.716   1.844  11.448  1.5785  1.0342 -0.1032
11094TIP3   OH254696   1.897   1.245   3.578  0.6856  0.2319 -0.1642
11094TIP3    H154697   1.879   1.319   3.520  0.4371  0.1036 -0.2554
11094TIP3    H254698   1.982   1.265   3.617 -0.1243  1.3860  1.0972
11095TIP3   OH254699   2.201   5.782  11.470 -0.0546 -0.1791  0.6257
11095TIP3    H154700   2.233   5.743  11.388 -0.8204 -0.1754  0.3106
11095TIP3    H254701   2.240   5.870  11.471  1.3543 -0.7842  1.1387
11096TIP3   OH254702   5.894   0.111   5.373 -0.1789 -0.1461 -0.6982
11096TIP3    H154703   5.822   0.175   5.376 -0.3408 -0.2953 -1.2588
11096TIP3    H254704   5.964   0.152   5.422 -0.5641  0.1152 -0.3593
11097TIP3   OH254705   3.813   4.264  14.960  0.1192 -0.1421 -0.3217
11097TIP3    H154706   3.847   4.223  15.040 -1.8690  0.9425  1.1896
11097TIP3    H254707   3.789   4.353  14.987 -3.3739 -0.6423 -1.2401
11098TIP3   OH254708   3.362   1.386  12.394 -0.6695 -0.5368  0.0408
11098TIP3    H154709   3.425   1.375  12.322 -1.1128  1.1692 -0.6622
11098TIP3    H254710   3.395   1.462  12.442 -1.2384 -0.7180  0.7193
11099TIP3   OH254711   4.999   5.725   5.539  0.0191 -0.0797 -0.0643
11099TIP3    H154712   5.013   5.781   5.463 -0.9308 -0.2609 -0.3810
11099TIP3    H254713   5.023   5.779   5.614  0.1386  0.3839 -0.4333
11100TIP3   OH254714   5.532   1.402  13.918  0.1491  0.5467  0.0586
11100TIP3    H154715   5.622   1.426  13.943 -0.1948  1.7390  0.2233
11100TIP3    H254716   5.496   1.482  13.881 -0.5682 -0.1765 -0.8449
11101TIP3   OH254717   3.013   4.508   2.096  0.0257  0.4137  0.1646
11101TIP3    H154718   2.970   4.531   2.179 -0.3333 -2.2885  0.8495
11101TIP3    H254719   3.103   4.490   2.120 -0.0650 -0.3215 -0.0055
11102TIP3   OH254720   1.250   3.703   1.227 -0.5755  0.0621 -0.4019
11102TIP3    H154721   1.282   3.643   1.294  0.2366 -0.0360 -0.8653
11102TIP3    H254722   1.270   3.790   1.261 -0.1808  0.0136 -0.5082
11103TIP3   OH254723   0.954   6.193   4.233 -0.0744  0.1291  0.6245
11103TIP3    H154724   0.914   6.110   4.258  0.6519 -0.5533 -0.4318
11103TIP3    H254725   0.902   6.224   4.159 -0.1142  0.4384  0.7795
11104TIP3   OH254726   5.953   2.144  16.507  0.7488 -0.3763  0.0333
11104TIP3    H154727   5.858   2.147  16.497  0.7985 -1.7092 -1.3272
11104TIP3    H254728   5.968   2.090  16.585  0.3476 -2.3850 -1.1894
11105TIP3   OH254729   4.375   5.140  11.588  0.0394 -0.2403  0.0175
11105TIP3    H154730   4.418   5.203  11.646  0.9680 -0.0061 -0.8846
11105TIP3    H254731   4.316   5.193  11.535  0.3878 -0.2013 -0.3399
11106TIP3   OH254732   2.729   0.782  12.230  0.0062 -0.0253  0.0200
11106TIP3    H154733   2.776   0.834  12.164 -0.8481  0.6980 -0.0348
11106TIP3    H254734   2.637   0.789  12.205 -0.0726 -2.5034 -0.6530
11107TIP3   OH254735   4.466   1.317  14.440  0.2571  0.1209  0.1955
11107TIP3    H154736   4.429   1.270  14.366  0.5973 -0.2715  0.2699
11107TIP3    H254737   4.506   1.395  14.401  0.4786 -0.1099 -0.0425
11108TIP3   OH254738   3.479   2.319  13.886  0.5181 -0.3622 -0.3624
11108TIP3    H154739   3.535   2.280  13.954  2.6148  1.1143 -1.1426
11108TIP3    H254740   3.499   2.270  13.807 -0.9176 -1.1832 -0.2613
11109TIP3   OH254741   0.090   5.486   5.697  0.4988 -0.5749  0.3508
11109TIP3    H154742   0.074   5.429   5.773  2.1430 -1.4248  0.1119
11109TIP3    H254743   0.147   5.555   5.731 -0.5325  0.2940  0.3618
11110TIP3   OH254744   4.017   0.338  12.520  0.1707 -0.4254 -0.1015
11110TIP3    H154745   4.038   0.387  12.441  1.3614  0.3115  0.6579
11110TIP3    H254746   4.011   0.403  12.589  1.9564 -1.3016  0.9628
11111TIP3   OH254747   1.930   4.373   4.955  0.2077  0.6149 -0.1509
11111TIP3    H154748   1.841   4.337   4.951  0.3489  0.1270  0.9225
11111TIP3    H254749   1.960   4.355   5.044  1.8860 -0.4372 -0.8635
11112TIP3   OH254750   5.235   2.866  15.391  0.4694 -0.0525 -0.0033
11112TIP3    H154751   5.202   2.796  15.447 -0.9207  1.0577  0.6273
11112TIP3    H254752   5.195   2.945  15.425  0.8723  0.8783 -1.5735
11113TIP3   OH254753   3.511   4.004   3.974 -0.2072  0.1405  0.0402
11113TIP3    H154754   3.527   3.959   3.890  1.2242  0.5951  0.0338
11113TIP3    H254755   3.489   3.933   4.035  0.4053 -0.4040 -0.3489
11114TIP3   OH254756   1.111   3.659  12.499 -0.3453  0.4036 -0.2064
11114TIP3    H154757   1.093   3.704  12.416 -0.8055 -0.2674 -0.4907
11114TIP3    H254758   1.187   3.703  12.535 -1.1165  1.7812 -0.1804
11115TIP3   OH254759   2.755   2.083  15.304 -0.6057  0.5920 -0.3154
11115TIP3    H154760   2.719   2.081  15.392 -0.6317 -2.9207 -0.2786
11115TIP3    H254761   2.697   2.142  15.256 -1.0362  1.9703  1.7844
11116TIP3   OH254762   0.903   2.123  11.622  0.0089  0.0773  0.1086
11116TIP3    H154763   0.951   2.085  11.549 -1.1535  0.0793 -0.6773
11116TIP3    H254764   0.854   2.050  11.660 -2.1047  0.6693 -1.3070
11117TIP3   OH254765   5.637   6.432  12.372  0.2692 -0.0020  0.1129
11117TIP3    H154766   5.621   6.375  12.447 -0.0629 -1.3329 -0.9300
11117TIP3    H254767   5.662   6.372  12.301  4.2193  1.4056  0.0475
11118TIP3   OH254768   1.094   5.949  13.556  0.0765  0.3494 -0.0841
11118TIP3    H154769   1.041   6.016  13.513 -0.2432 -1.6711 -3.1116
11118TIP3    H254770   1.043   5.869  13.550  1.2251 -0.6132  1.7910
11119TIP3   OH254771   1.531   2.754   1.466  0.0501 -0.1259 -0.1829
11119TIP3    H154772   1.480   2.830   1.438 -0.4483 -0.6405 -0.6915
11119TIP3    H254773   1.621   2.786   1.472 -0.2188  0.6109  0.0354
11120TIP3   OH254774   2.610   0.502  16.321 -0.4230  0.2405 -0.0032
11120TIP3    H154775   2.684   0.500  16.260  0.7162 -0.5068  1.3483
11120TIP3    H254776   2.545   0.443  16.281 -0.5732  1.3622 -1.4921
11121TIP3   OH254777   5.528   2.428  12.043 -0.0109  0.2408  0.6653
11121TIP3    H154778   5.478   2.358  12.085  0.3461  1.1496  2.7525
11121TIP3    H254779   5.553   2.393  11.958  0.2349 -2.2202  1.6702
11122TIP3   OH254780   0.559   3.587   5.790 -0.3598  0.0960  0.0288
11122TIP3    H154781   0.480   3.638   5.769  0.9158  3.1536  1.9793
11122TIP3    H254782   0.617   3.650   5.833  2.5321 -2.4324  0.1136
11123TIP3   OH254783   3.329   0.563   4.745 -0.4201 -0.2623 -0.4899
11123TIP3    H154784   3.287   0.521   4.670  0.7239 -1.6621 -0.3991
11123TIP3    H254785   3.289   0.650   4.750 -0.7782 -0.2650 -2.4906
11124TIP3   OH254786   1.648   0.313  11.549 -0.0924  0.2645  0.1369
11124TIP3    H154787   1.723   0.371  11.534 -0.4846  0.8256  0.2849
11124TIP3    H254788   1.673   0.262  11.626  0.8138 -0.7305 -0.7858
11125TIP3   OH254789   2.975   6.336  14.228  0.5576  0.2922  0.8064
11125TIP3    H154790   3.049   6.340  14.168 -0.4290  1.4697 -0.4026
11125TIP3    H254791   2.991   6.257  14.281  2.8275  0.7158  0.8514
11126TIP3   OH254792   2.789   3.976   5.493 -0.6767  1.1215  0.4175
11126TIP3    H154793   2.740   3.943   5.568  0.6011 -1.0820  0.3550
11126TIP3    H254794   2.877   3.991   5.527  0.2213 -0.9810 -0.8251
11127TIP3   OH254795   4.638   4.962  12.917 -0.6123 -0.2548  0.4451
11127TIP3    H154796   4.586   4.890  12.881 -0.8970  0.9350 -1.7385
11127TIP3    H254797   4.724   4.923  12.935 -0.6031 -1.0795 -1.1439
11128TIP3   OH254798   4.308   2.106  15.235  0.0646 -0.6128 -0.2620
11128TIP3    H154799   4.336   2.165  15.165 -1.3715 -0.4997 -0.7757
11128TIP3    H254800   4.361   2.027  15.223 -0.7577 -0.9354 -2.0528
11129TIP3   OH254801   6.609   0.017   4.346 -0.3289  0.3618 -0.0714
11129TIP3    H154802   6.618   0.084   4.414 -0.3419 -0.7461  1.0472
11129TIP3    H254803   6.671   0.044   4.278 -0.8840  1.9134  0.0019
11130TIP3   OH254804   0.920   2.962  14.979  0.0642  0.1708 -0.1229
11130TIP3    H154805   0.882   2.886  15.022 -0.3364 -0.7357 -1.9883
11130TIP3    H254806   1.010   2.966  15.012 -0.2999 -0.3096  0.9750
11131TIP3   OH254807   4.048   5.481  14.476 -0.6291  0.3356  0.0823
11131TIP3    H154808   4.073   5.441  14.559  0.2753  1.0476  0.1723
11131TIP3    H254809   3.994   5.556  14.501 -2.4649 -0.8439 -0.0918
11132TIP3   OH254810   3.514   1.865  17.134  0.0262 -0.4765 -0.3985
11132TIP3    H154811   3.540   1.955  17.153  3.0579 -0.8767 -2.0011
11132TIP3    H254812   3.515   1.821  17.219  2.4996  0.1357 -0.0510
11133TIP3   OH254813   5.462   5.910  10.726  0.0522  0.8402  0.3405
11133TIP3    H154814   5.425   5.822  10.714 -0.0336  0.8639  0.4324
11133TIP3    H254815   5.385   5.968  10.728  0.0847  0.8694  0.7224
11134TIP3   OH254816   4.705   0.494   3.437  0.2774  0.3854 -0.3109
11134TIP3    H154817   4.789   0.499   3.481  1.4402  0.2597 -2.3777
11134TIP3    H254818   4.714   0.552   3.361 -1.8434  1.1124 -0.0728
11135TIP3   OH254819   2.342   6.224  11.354  0.5602  0.6532  0.1405
11135TIP3    H154820   2.392   6.228  11.436 -1.0404  0.0141  1.1961
11135TIP3    H254821   2.271   6.287  11.366 -0.2739 -0.1745 -0.3431
11136TIP3   OH254822   4.331   2.565  13.201 -0.2137 -0.1158  0.3496
11136TIP3    H154823   4.301   2.631  13.263 -2.1258 -1.8205  1.3257
11136TIP3    H254824   4.306   2.481  13.240 -1.7883 -1.2786 -2.8190
11137TIP3   OH254825   6.633   4.616  16.813  0.1133 -0.6955  0.2289
11137TIP3    H154826   6.578   4.664  16.752 -0.5986 -1.2413  0.4298
11137TIP3    H254827   6.580   4.606  16.892  0.3033 -1.6476  0.2585
11138TIP3   OH254828   4.959   2.546   3.837 -0.2059 -0.6655 -0.4499
11138TIP3    H154829   4.960   2.599   3.916  0.1822 -0.7999 -0.3599
11138TIP3    H254830   5.051   2.543   3.809 -0.3199 -0.7220 -0.8355
11139TIP3   OH254831   5.897   1.491   5.417 -0.4355 -0.6421 -0.0714
11139TIP3    H154832   5.868   1.420   5.474  0.7231 -1.5205 -0.5518
11139TIP3    H254833   5.823   1.551   5.415 -0.6920 -0.7961  2.0048
11140TIP3   OH254834   1.784   6.174   0.401  0.1392 -0.3665  0.8167
11140TIP3    H154835   1.789   6.083   0.371 -1.2580 -0.2109  0.0173
11140TIP3    H254836   1.706   6.177   0.455 -1.0154  0.7612 -0.8148
11141TIP3   OH254837   4.015   2.853  16.390  0.1245  0.1327 -0.1927
11141TIP3    H154838   3.952   2.925  16.379  0.6525  0.6312 -0.0037
11141TIP3    H254839   4.087   2.875  16.331 -0.5171 -1.2002 -1.5378
11142TIP3   OH254840   0.307   2.635  13.160  0.4644  0.0734 -0.6014
11142TIP3    H154841   0.332   2.645  13.252 -1.5266  0.8720 -0.0947
11142TIP3    H254842   0.344   2.712  13.117  2.1089 -0.7147 -0.6808
11143TIP3   OH254843   0.282   2.642  12.743 -0.0423  0.0618 -0.2318
11143TIP3    H154844   0.207   2.635  12.685 -0.7018  2.3241  0.2378
11143TIP3    H254845   0.249   2.620  12.830 -0.8128  3.0282  0.3460
11144TIP3   OH254846   6.086   1.617   2.294  0.1974 -0.4723  0.0914
11144TIP3    H154847   6.101   1.678   2.366 -0.9397  0.6752 -0.5974
11144TIP3    H254848   6.166   1.565   2.289  1.1620  0.8806  0.7983
11145TIP3   OH254849   6.138   5.493   2.457 -0.7459  0.3483 -0.0253
11145TIP3    H154850   6.190   5.494   2.377 -0.2412  4.4373  0.1219
11145TIP3    H254851   6.201   5.473   2.526 -0.5304 -0.0652 -0.3364
11146TIP3   OH254852   0.472   4.367   5.680 -0.1268 -0.4180  0.7357
11146TIP3    H154853   0.483   4.461   5.687  0.2882 -0.2274 -1.8187
11146TIP3    H254854   0.378   4.354   5.665  0.1284 -0.1812 -1.2847
11147TIP3   OH254855   0.282   1.558  11.730  0.3802  0.2231 -0.3424
11147TIP3    H154856   0.309   1.646  11.701  0.6967 -0.1226 -1.1201
11147TIP3    H254857   0.196   1.545  11.690  0.4226  0.1008 -0.3940
11148TIP3   OH254858   3.068   4.249   0.947 -0.2086 -0.0751 -0.1415
11148TIP3    H154859   3.161   4.263   0.963 -0.6173  0.9335  1.6580
11148TIP3    H254860   3.056   4.266   0.854  1.6685 -1.9552 -0.8146
11149TIP3   OH254861   4.258   2.383  13.658  0.4145  0.2973  0.0303
11149TIP3    H154862   4.241   2.289  13.649  0.1927  0.2625  0.7528
11149TIP3    H254863   4.176   2.425  13.630 -0.0824  0.2091  1.2869
11150TIP3   OH254864   6.680   2.352   3.282  0.3038 -0.3521 -1.0318
11150TIP3    H154865   6.607   2.408   3.306 -0.1964 -0.7043 -1.6915
11150TIP3    H254866   6.682   2.355   3.186  1.6279  0.2447 -1.0165
11151TIP3   OH254867   0.414   0.288   1.288  0.1615 -0.5453  0.1530
11151TIP3    H154868   0.461   0.370   1.274  0.6333 -0.6738  0.9535
11151TIP3    H254869   0.455   0.226   1.228 -1.5028  0.2407 -1.9758
11152TIP3   OH254870   6.624   5.234  15.708  0.8046 -0.2055  0.1632
11152TIP3    H154871   6.662   5.241  15.796  0.8575 -0.4186  0.1588
11152TIP3    H254872   6.666   5.303  15.658 -0.4423  1.0060  0.7313
11153TIP3   OH254873   1.005   1.883   1.520  0.1009 -0.0886  0.2882
11153TIP3    H154874   0.952   1.829   1.462  2.3011 -0.6948 -1.2892
11153TIP3    H254875   0.954   1.962   1.533 -0.9297 -0.3861 -1.6404
11154TIP3   OH254876   0.056   6.400  15.494  0.2111 -0.2594  0.1717
11154TIP3    H154877  -0.025   6.394  15.547 -1.0343 -0.3342 -1.6540
11154TIP3    H254878   0.031   6.452  15.418  2.2058  0.6087  0.0566
11155TIP3   OH254879   0.978   2.265  12.996 -0.5416  0.0258  0.4263
11155TIP3    H154880   1.066   2.299  13.013  0.3441 -1.4538 -0.9585
11155TIP3    H254881   0.920   2.330  13.035  1.1485  0.7301  1.9559
11156TIP3   OH254882   5.257   6.339   4.918 -0.8700 -0.9155  0.2623
11156TIP3    H154883   5.322   6.369   4.982 -1.5537 -0.2287  0.6517
11156TIP3    H254884   5.255   6.244   4.929 -1.4894 -0.7609  1.7934
11157TIP3   OH254885   3.874   4.807   3.321  0.5213 -0.1947  0.4634
11157TIP3    H154886   3.953   4.778   3.275  0.2430  2.7621 -2.2288
11157TIP3    H254887   3.864   4.899   3.296 -3.4594 -0.2602  1.1685
11158TIP3   OH254888   4.609   5.920   2.423  0.0743 -0.6477 -0.7050
11158TIP3    H154889   4.697   5.957   2.427  0.2660 -1.1771  0.0480
11158TIP3    H254890   4.563   5.976   2.361  0.3256  0.9551  0.4859
11159TIP3   OH254891   6.386   6.071  10.688 -0.1724 -0.1468  0.9561
11159TIP3    H154892   6.386   6.080  10.593  0.9862 -0.9865  0.8607
11159TIP3    H254893   6.423   6.153  10.720  2.8178 -1.1891  0.4787
11160TIP3   OH254894   2.145   0.149   3.848 -0.1780 -0.5381  0.4992
11160TIP3    H154895   2.110   0.165   3.936 -0.9435 -0.4214  0.1810
11160TIP3    H254896   2.071   0.111   3.799  0.4172 -1.1859  0.0797
11161TIP3   OH254897   1.968   3.459   3.516 -0.4342  0.1553  0.4645
11161TIP3    H154898   2.027   3.478   3.589  1.5797 -0.1180 -1.0060
11161TIP3    H254899   1.906   3.533   3.516 -0.5365  0.1263  2.4373
11162TIP3   OH254900   6.279   4.319   5.705 -0.3253 -0.1555 -0.0707
11162TIP3    H154901   6.349   4.373   5.742 -0.5188 -0.4105  0.7035
11162TIP3    H254902   6.198   4.362   5.735 -0.4810 -0.7388  0.3733
11163TIP3   OH254903   1.371   2.564   4.135  0.3592 -0.5881 -0.2371
11163TIP3    H154904   1.390   2.497   4.201 -0.7862 -2.0374 -1.2962
11163TIP3    H254905   1.304   2.620   4.175  0.1037 -1.1004  0.0632
11164TIP3   OH254906   3.215   6.355  16.120  0.0987  0.1270 -0.0388
11164TIP3    H154907   3.141   6.414  16.129 -0.1196  0.0644 -1.2431
11164TIP3    H254908   3.221   6.337  16.026  2.6310  1.4429 -0.2292
11165TIP3   OH254909   3.656   0.782   2.111  0.5019 -0.1605 -0.1724
11165TIP3    H154910   3.610   0.826   2.183 -0.6520 -0.4777 -0.6983
11165TIP3    H254911   3.743   0.822   2.111  0.3094  0.3125  0.9741
11166TIP3   OH254912   2.730   1.135  14.329  0.1252 -0.1122  0.1769
11166TIP3    H154913   2.674   1.058  14.326  0.8978 -0.6603 -0.9112
11166TIP3    H254914   2.812   1.107  14.288  0.8755  0.9227  0.9133
11167TIP3   OH254915   4.036   3.015  10.871 -0.1187 -0.4196  0.1051
11167TIP3    H154916   4.008   2.999  10.781  1.3804  0.5137 -0.5564
11167TIP3    H254917   4.023   3.109  10.884  0.2144 -0.4520  0.6816
11168TIP3   OH254918   0.268   3.398  13.541 -0.1311  0.0117 -0.1164
11168TIP3    H154919   0.198   3.333  13.534  1.9764 -2.3882 -0.7671
11168TIP3    H254920   0.343   3.357  13.496  1.6398  2.5038  0.3436
11169TIP3   OH254921   4.780   5.026  15.846 -0.5904  0.4913 -0.3215
11169TIP3    H154922   4.850   5.092  15.846  0.0929 -0.0865  2.6822
11169TIP3    H254923   4.708   5.067  15.894 -0.5282 -0.5457  0.7017
11170TIP3   OH254924   1.905   4.175  16.585  0.1589 -0.1639 -0.5455
11170TIP3    H154925   1.999   4.166  16.602  0.7152 -0.2108 -3.2224
11170TIP3    H254926   1.866   4.099  16.628  1.4085 -0.5181  0.0240
11171TIP3   OH254927   0.616   4.009  16.353 -0.1397 -0.4039  0.4425
11171TIP3    H154928   0.671   4.035  16.426  1.5349 -2.5541  0.0454
11171TIP3    H254929   0.579   4.091  16.320 -0.5596  0.6770  3.3180
11172TIP3   OH254930   1.791   4.850  11.786 -0.4558  0.2437 -0.4984
11172TIP3    H154931   1.749   4.826  11.868  0.3204  0.2889 -0.0766
11172TIP3    H254932   1.765   4.941  11.771  0.3676  0.6322  0.3362
11173TIP3   OH254933   1.838   5.289   1.924 -0.0654 -0.5299 -0.1701
11173TIP3    H154934   1.796   5.204   1.939 -0.3909 -0.5505 -1.1692
11173TIP3    H254935   1.801   5.346   1.992  0.6782 -1.3377  0.9637
11174TIP3   OH254936   5.630   4.769  16.327 -0.2342 -0.3274 -0.2322
11174TIP3    H154937   5.592   4.843  16.278  0.1986 -0.7873 -1.2914
11174TIP3    H254938   5.724   4.783  16.322 -0.1703 -0.6798 -0.0165
11175TIP3   OH254939   3.112   0.932  12.599 -0.4042  0.1903 -0.3211
11175TIP3    H154940   3.105   1.010  12.544 -0.6425  0.1281 -0.3822
11175TIP3    H254941   3.021   0.905  12.613 -0.3530  0.3063  0.2502
11176TIP3   OH254942   2.750   1.695   6.500 -0.2943 -0.2971  0.2941
11176TIP3    H154943   2.663   1.665   6.526 -0.1652  0.6469  1.8896
11176TIP3    H254944   2.737   1.786   6.473  0.5665  0.7875  3.1737
11177TIP3   OH254945   2.196   1.274   1.198  0.0816 -0.2754 -0.8178
11177TIP3    H154946   2.241   1.262   1.281 -0.2471 -1.1423 -0.7478
11177TIP3    H254947   2.246   1.220   1.136 -1.5931 -2.3825 -0.4525
11178TIP3   OH254948   6.660   5.486  16.754  0.6311  0.4283 -0.4610
11178TIP3    H154949   6.674   5.577  16.779  0.9101  0.3275 -0.2536
11178TIP3    H254950   6.597   5.491  16.682  0.6719  0.7864 -0.4741
11179TIP3   OH254951   4.280   5.456   4.413  0.3065 -0.0503 -0.4783
11179TIP3    H154952   4.185   5.465   4.420  0.0853 -1.9522 -0.4952
11179TIP3    H254953   4.314   5.500   4.491 -0.7893 -1.7737  1.0556
11180TIP3   OH254954   2.104   3.262  13.942  0.0118 -0.2095  0.5409
11180TIP3    H154955   2.095   3.310  13.860 -0.2808  2.2352  1.9151
11180TIP3    H254956   2.176   3.201  13.926  0.5778  0.8464 -1.2333
11181TIP3   OH254957   0.822   3.406  13.786  0.0736  0.1382 -0.1645
11181TIP3    H154958   0.745   3.434  13.836  0.1933  0.2766 -0.0570
11181TIP3    H254959   0.786   3.369  13.705 -0.0546  1.3645 -0.6916
11182TIP3   OH254960   5.202   0.071  13.011 -0.2994 -0.4511 -0.3238
11182TIP3    H154961   5.139   0.104  13.075  0.7723  0.1004  0.4813
11182TIP3    H254962   5.284   0.065  13.059  0.3054 -1.0143 -1.3862
11183TIP3   OH254963   2.994   1.816   1.498  0.0008 -0.5192 -0.4060
11183TIP3    H154964   3.016   1.827   1.405 -1.4044 -1.7506 -0.9354
11183TIP3    H254965   2.912   1.863   1.509  1.6421  2.2701  1.0391
11184TIP3   OH254966   5.764   3.934  16.942  0.4646  0.0050 -0.1912
11184TIP3    H154967   5.720   3.971  16.865 -2.9079 -1.3864  0.8953
11184TIP3    H254968   5.761   4.005  17.006  1.7419  0.5862 -0.7304
11185TIP3   OH254969   4.139   1.785   4.170  0.2059  0.1246 -0.3035
11185TIP3    H154970   4.088   1.865   4.180  0.6798  0.2441  1.4118
11185TIP3    H254971   4.074   1.714   4.176  0.1487  0.2875  1.5266
11186TIP3   OH254972   0.680   2.708   6.237 -0.4402 -0.2315 -0.4865
11186TIP3    H154973   0.610   2.753   6.284 -0.1428 -0.9291  0.6876
11186TIP3    H254974   0.658   2.615   6.244  0.7302 -0.4900  0.1782
11187TIP3   OH254975   2.060   5.240   0.208 -0.0345 -0.0253  0.4247
11187TIP3    H154976   2.027   5.151   0.218  0.5235 -0.4986 -1.6642
11187TIP3    H254977   2.146   5.238   0.250 -0.2360 -0.3256  0.8321
11188TIP3   OH254978   5.104   1.008  16.346 -0.1876  0.5956 -0.4321
11188TIP3    H154979   5.118   0.914  16.354 -0.1855  0.4823 -1.6406
11188TIP3    H254980   5.012   1.021  16.370  0.2562  0.5357  1.4382
11189TIP3   OH254981   0.658   4.477   3.128 -0.0950  0.3153  0.1342
11189TIP3    H154982   0.714   4.454   3.054 -1.1178 -0.1188 -0.5232
11189TIP3    H254983   0.618   4.394   3.154 -1.0174  0.7391  0.0954
11190TIP3   OH254984   4.585   0.731   2.914 -0.5767 -0.1457  0.2310
11190TIP3    H154985   4.677   0.740   2.890 -0.9468  2.1961 -0.5658
11190TIP3    H254986   4.560   0.644   2.883  1.5351 -1.1599  1.1896
11191TIP3   OH254987   2.148   2.351   5.604  0.3123 -0.7223 -0.3829
11191TIP3    H154988   2.123   2.266   5.640  0.4876 -0.2307  0.9554
11191TIP3    H254989   2.217   2.382   5.662  0.9352 -0.0841 -1.4317
11192TIP3   OH254990   0.463   3.824  15.066 -0.2146  0.4925  0.2613
11192TIP3    H154991   0.465   3.744  15.013  0.4715 -0.8298  2.1549
11192TIP3    H254992   0.393   3.877  15.027  0.0419 -0.5216 -1.7209
11193TIP3   OH254993   1.658   2.389   2.434 -0.4079 -0.7518  0.0262
11193TIP3    H154994   1.580   2.347   2.399  1.0943 -2.5121 -1.4132
11193TIP3    H254995   1.663   2.472   2.387 -1.8606 -0.1984  0.7937
11194TIP3   OH254996   1.863   3.656  13.224  0.0029  0.2247  0.0936
11194TIP3    H154997   1.813   3.605  13.161 -0.3820  0.7442 -0.0325
11194TIP3    H254998   1.839   3.621  13.309  1.6319 -1.4758 -0.0772
11195TIP3   OH254999   0.196   3.641  12.389  0.3410 -0.5685  0.3144
11195TIP3    H155000   0.228   3.727  12.361 -0.5603  0.3170  1.8739
11195TIP3    H255001   0.180   3.651  12.483 -2.6256 -1.5214  0.0097
11196TIP3   OH255002   4.467   1.129  12.358 -0.6466  0.5058 -0.6126
11196TIP3    H155003   4.522   1.178  12.297 -0.0543  0.5440 -0.0600
11196TIP3    H255004   4.424   1.196  12.412 -0.2116  0.4431 -0.1778
11197TIP3   OH255005   5.840   6.517   3.116 -0.1288  0.0182 -0.1541
11197TIP3    H155006   5.825   6.470   3.198  0.1035 -1.5683 -0.9809
11197TIP3    H255007   5.934   6.512   3.103 -0.2524 -0.5554 -0.9464
11198TIP3   OH255008   0.017   6.680   1.635  0.1257  0.8514 -0.0045
11198TIP3    H155009   0.104   6.656   1.666 -0.0957  0.7219  0.5240
11198TIP3    H255010   0.020   6.664   1.541  0.2301 -0.5011  0.2157
11199TIP3   OH255011   0.948   5.345  12.452 -0.3901  0.4442 -0.1160
11199TIP3    H155012   0.991   5.360  12.536  1.4814  1.2135 -1.1600
11199TIP3    H255013   0.963   5.425  12.403  0.1119 -0.6423 -1.8223
11200TIP3   OH255014   3.714   2.729  12.408 -0.4604  0.2867 -0.1115
11200TIP3    H155015   3.805   2.698  12.409 -0.4727  0.2538  0.3763
11200TIP3    H255016   3.696   2.748  12.316 -0.1288 -0.2040 -0.2839
11201TIP3   OH255017   0.520   0.810   5.847 -0.3192  0.2349 -0.2072
11201TIP3    H155018   0.505   0.879   5.783  0.0275 -1.4604 -2.2512
11201TIP3    H255019   0.612   0.785   5.834 -0.6138 -1.0363 -0.0189
11202TIP3   OH255020   5.794   6.417  10.792 -0.5381  0.0783  0.0052
11202TIP3    H155021   5.793   6.437  10.699 -0.9818 -0.9398 -0.2093
11202TIP3    H255022   5.861   6.349  10.802  0.5769  1.2098  0.6603
11203TIP3   OH255023   6.635   5.949   0.619  0.4250  0.3247  0.1281
11203TIP3    H155024   6.639   5.913   0.707 -1.7071  0.3099  0.2632
11203TIP3    H255025   6.609   5.875   0.564  0.2484  0.6788 -0.2724
11204TIP3   OH255026   5.189   0.970  16.020  0.1929  0.7532  0.4332
11204TIP3    H155027   5.151   0.939  15.938 -0.1737  0.9126  0.5414
11204TIP3    H255028   5.258   0.907  16.040  1.4583  1.6315 -0.8843
11205TIP3   OH255029   4.333   1.961   2.562 -0.2958 -0.7132 -0.5266
11205TIP3    H155030   4.408   1.933   2.509  0.6234  0.9208 -0.1416
11205TIP3    H255031   4.257   1.926   2.515  0.6243 -1.5163 -1.4963
11206TIP3   OH255032   1.849   0.953  13.158 -0.7081 -0.2117  0.3239
11206TIP3    H155033   1.867   1.045  13.177 -0.6396 -0.0966 -0.2806
11206TIP3    H255034   1.922   0.905  13.199  0.8651  0.2269 -1.7929
11207TIP3   OH255035   3.047   1.372  13.790  0.2223  0.5559 -0.0220
11207TIP3    H155036   3.074   1.412  13.707 -2.1183 -1.0952 -1.7061
11207TIP3    H255037   2.966   1.417  13.813 -0.1510 -0.2735  0.3285
11208TIP3   OH255038   2.974   1.979   5.201 -0.3443 -0.0508  0.1518
11208TIP3    H155039   2.956   2.042   5.271 -0.3866 -0.4149  0.4723
11208TIP3    H255040   2.966   2.029   5.120 -2.2317 -0.0710  0.2978
11209TIP3   OH255041   3.167   6.655   5.760 -0.6682  0.3386 -0.0501
11209TIP3    H155042   3.202   6.674   5.847 -1.3919  1.1594  0.0790
11209TIP3    H255043   3.122   6.736   5.734 -1.4639 -0.2886 -0.6885
11210TIP3   OH255044   4.396   4.588   0.836 -0.5846  0.0110 -0.2374
11210TIP3    H155045   4.465   4.652   0.817  1.4984 -1.7410  1.0266
11210TIP3    H255046   4.341   4.630   0.902  1.6981  0.0192  1.8076
11211TIP3   OH255047   2.151   3.533  16.837  0.0045  0.3074 -0.2058
11211TIP3    H155048   2.116   3.619  16.813  2.7366  1.0331 -2.1134
11211TIP3    H255049   2.236   3.552  16.877  0.8054 -1.4947 -0.9623
11212TIP3   OH255050   2.890   0.441   5.609 -0.2662  0.6855  0.5471
11212TIP3    H155051   2.971   0.407   5.571 -1.2540 -2.4401  0.9781
11212TIP3    H255052   2.822   0.416   5.547 -1.1946  0.8693  1.4723
11213TIP3   OH255053   5.585   0.627   4.203 -0.1048  0.0813  0.5308
11213TIP3    H155054   5.583   0.699   4.139  4.3389  0.8219  0.9147
11213TIP3    H255055   5.575   0.670   4.288 -1.1158 -0.2773  0.6042
11214TIP3   OH255056   2.831   2.651  15.868 -0.2890  0.3472 -0.1274
11214TIP3    H155057   2.850   2.704  15.946 -0.6810 -0.8396  0.8036
11214TIP3    H255058   2.907   2.664  15.811  0.2743  0.7888  0.7021
11215TIP3   OH255059   0.139   2.077   1.614  0.1403  0.3348 -0.2369
11215TIP3    H155060   0.078   2.112   1.549 -0.8253  1.1104  1.0523
11215TIP3    H255061   0.158   2.151   1.672  3.1531  0.4256 -1.1664
11216TIP3   OH255062   2.714   4.925   5.944  0.8624 -0.5505  0.3373
11216TIP3    H155063   2.782   4.872   5.985  2.1100 -0.0035 -0.9631
11216TIP3    H255064   2.737   4.927   5.851  0.5945  1.8630  0.2704
11217TIP3   OH255065   0.161   2.525  12.958 -0.1118  0.3566 -0.1435
11217TIP3    H155066   0.142   2.432  12.971 -0.3439  0.4413  0.1330
11217TIP3    H255067   0.194   2.554  13.043  1.2665  0.2173 -0.5997
11218TIP3   OH255068   4.927   3.464  14.857  0.4418  0.0599  0.3249
11218TIP3    H155069   4.892   3.545  14.820 -0.9149 -0.4896  0.3682
11218TIP3    H255070   4.854   3.402  14.854  0.9711 -0.6848  1.7977
11219TIP3   OH255071   0.498   5.855  13.914 -0.1748 -0.1213  0.1826
11219TIP3    H155072   0.566   5.814  13.968 -0.2254 -1.5822 -0.7903
11219TIP3    H255073   0.542   5.929  13.872  0.1253  0.4327  1.4310
11220TIP3   OH255074   5.866   5.943  16.009  0.0122 -0.1275 -0.0755
11220TIP3    H155075   5.922   5.968  15.936 -0.4157  0.6848 -0.1293
11220TIP3    H255076   5.827   6.025  16.040 -1.0874 -0.6599  0.0151
11221TIP3   OH255077   3.882   6.153  16.245 -0.1691  0.0991  0.0118
11221TIP3    H155078   3.820   6.145  16.172 -0.6343 -0.1917  0.4350
11221TIP3    H255079   3.865   6.076  16.299 -1.9625  1.7891  2.0600
11222TIP3   OH255080   6.371   3.074  12.359 -0.3390 -0.3796  0.1220
11222TIP3    H155081   6.409   3.162  12.354 -1.1350  0.0400  1.0748
11222TIP3    H255082   6.438   3.022  12.402 -0.0672 -0.1078  0.0309
11223TIP3   OH255083   2.556   0.779   2.034  0.6393  0.4912 -0.8695
11223TIP3    H155084   2.593   0.708   1.980 -1.0685  0.9926 -2.8394
11223TIP3    H255085   2.579   0.755   2.124  1.5279 -1.6946 -1.6008
11224TIP3   OH255086   3.885   5.542   5.409 -0.4261  0.3020 -0.2312
11224TIP3    H155087   3.840   5.530   5.325 -0.4453  0.7717 -0.2900
11224TIP3    H255088   3.815   5.562   5.471 -0.6237 -1.7593  0.2729
11225TIP3   OH255089   3.517   3.280  11.895  0.5028  0.2706 -0.3949
11225TIP3    H155090   3.428   3.264  11.926 -0.2187  0.8461 -2.0331
11225TIP3    H255091   3.555   3.340  11.958 -0.4726  0.4579  0.0290
11226TIP3   OH255092   0.534   2.675   5.916 -0.0003  0.1409 -0.0157
11226TIP3    H155093   0.564   2.595   5.873 -1.2896 -0.8437  0.8283
11226TIP3    H255094   0.476   2.644   5.986  1.7861  1.6766  2.2716
11227TIP3   OH255095   0.742   2.010   1.846 -0.2975 -0.1795  0.2774
11227TIP3    H155096   0.718   1.967   1.929  0.6388  1.3089  1.3609
11227TIP3    H255097   0.836   2.022   1.852 -0.4480  1.3966 -0.2938
11228TIP3   OH255098   4.406   2.554   2.777 -0.2409  0.4655 -0.2794
11228TIP3    H155099   4.486   2.504   2.797 -0.1248  0.4483 -0.7767
11228TIP3    H255100   4.433   2.645   2.783 -0.7114  0.5099  1.7013
11229TIP3   OH255101   0.802   1.838   5.721 -0.0523  0.0951  0.1432
11229TIP3    H155102   0.881   1.872   5.679 -1.0998 -0.8394 -2.9229
11229TIP3    H255103   0.830   1.759   5.767  0.7809 -0.5016 -1.3190
11230TIP3   OH255104   4.465   4.884  14.857  0.0507  0.0634  0.1275
11230TIP3    H155105   4.486   4.937  14.934  0.2044 -1.4986  1.1851
11230TIP3    H255106   4.510   4.801  14.871 -0.4687 -0.5040 -1.3330
11231TIP3   OH255107   5.008   0.475  16.808  0.0388  0.4717  0.0189
11231TIP3    H155108   5.036   0.526  16.732 -1.0980 -1.7485 -2.0300
11231TIP3    H255109   4.948   0.532  16.855  0.2510  1.6756 -1.1145
11232TIP3   OH255110   5.279   3.346   2.435 -0.2436 -0.3344 -0.2836
11232TIP3    H155111   5.201   3.366   2.488 -2.2744 -0.4992 -3.0101
11232TIP3    H255112   5.319   3.432   2.418 -2.0275  0.2535 -1.9101
11233TIP3   OH255113   5.779   1.832  14.919  0.7338  0.7127  0.0474
11233TIP3    H155114   5.822   1.781  14.988  0.9009 -1.3083 -1.4626
11233TIP3    H255115   5.691   1.795  14.913  0.6371  1.0489 -0.6453
11234TIP3   OH255116   6.591   3.866   1.887 -0.5737 -0.5775 -0.1092
11234TIP3    H155117   6.542   3.819   1.954 -1.2041 -0.0639 -0.2035
11234TIP3    H255118   6.577   3.817   1.806 -0.8723 -0.4718 -0.1211
11235TIP3   OH255119   5.898   5.263   1.487 -0.5751 -0.5125 -0.0661
11235TIP3    H155120   5.907   5.326   1.557 -0.8056  1.3267 -1.6084
11235TIP3    H255121   5.812   5.223   1.500 -0.7444  0.0441  0.5067
11236TIP3   OH255122   4.045   6.286   3.534  0.2615  0.2340  0.2750
11236TIP3    H155123   4.063   6.208   3.482  2.1034  0.6523  0.2436
11236TIP3    H255124   4.013   6.350   3.470  0.3083  0.0185  0.0344
11237TIP3   OH255125   4.320   6.711  15.275 -0.6183 -0.0441  0.4293
11237TIP3    H155126   4.284   6.764  15.346  0.2042  0.1990  0.6727
11237TIP3    H255127   4.347   6.630  15.317  1.5363  0.7909  0.7660
11238TIP3   OH255128   1.751   5.751  12.301 -0.1627  0.1286  0.0339
11238TIP3    H155129   1.707   5.830  12.272 -0.4138  0.2900  0.8395
11238TIP3    H255130   1.746   5.754  12.396  0.8324 -0.2816  0.1148
11239TIP3   OH255131   4.161   0.875   2.108  0.1479  0.3347 -0.0822
11239TIP3    H155132   4.145   0.882   2.202 -0.3366 -2.5402  0.1412
11239TIP3    H255133   4.251   0.842   2.102 -0.2098 -0.5790 -0.5636
11240TIP3   OH255134   2.294   2.075  16.005  0.5999  0.5483 -0.7421
11240TIP3    H155135   2.265   2.090  15.915 -2.0071 -1.0089 -0.2628
11240TIP3    H255136   2.358   2.004  15.999  0.0538  0.0967 -1.3382
11241TIP3   OH255137   5.619   1.252  15.267 -0.3099  0.2115 -0.0192
11241TIP3    H155138   5.696   1.230  15.320 -0.4141 -1.8776 -0.6747
11241TIP3    H255139   5.607   1.346  15.282 -0.6629 -0.2900  4.1251
11242TIP3   OH255140   6.758   6.487  12.214  0.2150 -0.1196  0.1915
11242TIP3    H155141   6.719   6.449  12.135  0.8068  1.5195 -0.9419
11242TIP3    H255142   6.831   6.539  12.182  0.9278  0.0028  1.9173
11243TIP3   OH255143   1.945   1.920   0.877 -0.3561 -0.0944 -0.1288
11243TIP3    H155144   1.940   1.932   0.782 -1.2978 -1.2470 -0.2506
11243TIP3    H255145   1.864   1.874   0.899  0.3950 -0.8896  1.0738
11244TIP3   OH255146   2.212   5.695   1.033 -0.0960 -0.0714  0.4358
11244TIP3    H155147   2.178   5.751   1.103  1.1378  2.2312 -0.7050
11244TIP3    H255148   2.250   5.620   1.079 -0.0581  0.9608  2.1616
11245TIP3   OH255149   3.004   0.219  10.786  0.3336 -0.4281  0.4832
11245TIP3    H155150   3.061   0.142  10.784  0.5490 -0.3890  2.4680
11245TIP3    H255151   3.056   0.287  10.830  0.9125  1.5947 -2.9851
11246TIP3   OH255152   6.747   1.264  13.211  0.1080  0.4046  0.6809
11246TIP3    H155153   6.758   1.191  13.150 -1.5317  2.2642 -2.0899
11246TIP3    H255154   6.695   1.229  13.283  0.4288 -1.4383  0.0561
11247TIP3   OH255155   3.214   6.622  12.233  0.1295  0.2497  0.1269
11247TIP3    H155156   3.302   6.584  12.221  0.4467  1.2718 -0.9978
11247TIP3    H255157   3.227   6.693  12.295 -0.4072 -1.1918  1.9782
11248TIP3   OH255158   1.324   0.126  16.982 -0.2933  0.0934 -0.0775
11248TIP3    H155159   1.249   0.094  17.033  0.1167 -0.6138  0.0949
11248TIP3    H255160   1.397   0.071  17.010  0.4347  1.1634  0.2050
11249TIP3   OH255161   5.123   6.682  15.974 -0.2813 -0.1450 -0.3270
11249TIP3    H155162   5.105   6.736  15.897 -0.3102 -0.2885 -0.4210
11249TIP3    H255163   5.184   6.615  15.942  1.1022  0.8206  0.1648
11250TIP3   OH255164   0.007   1.136   1.211  0.2252 -0.4620 -0.6509
11250TIP3    H155165   0.040   1.048   1.196  0.1090 -0.6589  0.2050
11250TIP3    H255166   0.014   1.180   1.126  1.5177 -0.8811 -0.7696
11251TIP3   OH255167   2.344   4.146  11.377 -0.4405  0.2508 -0.2264
11251TIP3    H155168   2.382   4.148  11.464  1.7595 -1.9033 -1.0070
11251TIP3    H255169   2.302   4.232  11.366  2.5964  2.1300  1.4942
11252TIP3   OH255170   2.923   5.649   4.892  0.3913 -0.4804 -0.1080
11252TIP3    H155171   2.887   5.649   4.981 -1.5742 -0.3235 -0.8442
11252TIP3    H255172   2.850   5.621   4.837  0.9650  1.2983 -1.8919
11253TIP3   OH255173   2.707   0.421   0.442 -0.2374 -0.2871  0.6362
11253TIP3    H155174   2.668   0.501   0.477 -0.7720  0.4826 -1.5211
11253TIP3    H255175   2.637   0.357   0.444 -0.6482  0.1250 -0.1712
11254TIP3   OH255176   1.717   1.965  13.428 -0.0876 -0.3407 -0.0695
11254TIP3    H155177   1.786   1.972  13.494 -1.2277  0.7852  1.0778
11254TIP3    H255178   1.749   2.017  13.354  0.9413 -1.1110 -0.1910
11255TIP3   OH255179   6.054   4.127  11.254 -0.4291  0.8198  0.0811
11255TIP3    H155180   6.061   4.186  11.179  0.1305  2.5604  1.4318
11255TIP3    H255181   6.143   4.118  11.286 -0.4745 -0.9600 -0.1871
11256TIP3   OH255182   5.884   1.695  15.113 -0.0293  0.2342 -0.2271
11256TIP3    H155183   5.919   1.664  15.197 -0.5099  1.5005  0.4705
11256TIP3    H255184   5.926   1.640  15.048 -0.2807 -1.3518  0.8958
11257TIP3   OH255185   2.386   6.332  16.541 -0.0372 -0.1317  0.2749
11257TIP3    H155186   2.440   6.340  16.463 -0.3321  1.3978  0.1848
11257TIP3    H255187   2.444   6.294  16.607  0.8829  0.5867 -0.0914
11258TIP3   OH255188   3.133   6.187  14.467  0.6859 -0.5230 -0.6942
11258TIP3    H155189   3.218   6.229  14.455  0.5268 -0.2746 -0.9873
11258TIP3    H255190   3.151   6.108  14.518  1.3651 -1.4671 -2.3320
11259TIP3   OH255191   0.537   6.116   1.547 -0.4607 -0.2994  0.1214
11259TIP3    H155192   0.620   6.075   1.524  0.4244  1.8225 -0.7434
11259TIP3    H255193   0.473   6.075   1.489  0.7809  1.0436 -2.3782
11260TIP3   OH255194   2.056   1.620   1.606 -0.1438  0.1567  0.0022
11260TIP3    H155195   2.006   1.553   1.560  0.1989 -0.2218  0.1772
11260TIP3    H255196   2.012   1.629   1.691  0.0351 -0.1176  0.1247
11261TIP3   OH255197   6.764   3.046  12.100  0.8521 -0.5548 -0.3554
11261TIP3    H155198   6.753   2.996  12.019  0.2084 -2.3275  0.7731
11261TIP3    H255199   6.840   3.006  12.143  0.2620 -0.6411  0.6257
11262TIP3   OH255200   1.091   5.632   4.049 -0.0458  0.4043 -0.1603
11262TIP3    H155201   1.126   5.711   4.089 -0.3161  1.0044 -1.0539
11262TIP3    H255202   1.001   5.656   4.025  0.9239  1.0999 -3.6598
11263TIP3   OH255203   3.330   1.428   4.720 -0.1560  0.4908  0.9692
11263TIP3    H155204   3.421   1.454   4.708 -0.0420 -0.2852  0.0032
11263TIP3    H255205   3.334   1.343   4.763 -0.3969  0.1730  0.3803
11264TIP3   OH255206   1.974   6.787   5.330  0.4747  0.7387 -0.1668
11264TIP3    H155207   1.943   6.697   5.332 -1.4490  1.3108 -1.4486
11264TIP3    H255208   1.940   6.826   5.411  0.6432  0.5186  0.0104
11265TIP3   OH255209   2.322   5.255   0.617 -0.1774 -0.2906  0.5093
11265TIP3    H155210   2.405   5.227   0.656 -1.1795 -1.6630  1.7817
11265TIP3    H255211   2.255   5.209   0.667 -1.9234  2.9933  1.4576
11266TIP3   OH255212   3.045   2.288   6.073 -0.3582  0.4566 -0.2816
11266TIP3    H155213   3.065   2.360   6.014  0.6665  0.7297  0.3758
11266TIP3    H255214   3.057   2.325   6.161 -0.5695 -0.3028  0.0766
11267TIP3   OH255215   2.734   2.799  10.893  0.4434  0.2680 -0.2447
11267TIP3    H155216   2.728   2.888  10.859  1.0476  0.0645 -0.9077
11267TIP3    H255217   2.682   2.746  10.831 -0.7198  0.2925  0.6816
11268TIP3   OH255218   3.630   3.322  16.133 -0.3696  0.2598 -0.2384
11268TIP3    H155219   3.720   3.317  16.100 -0.5542 -0.2034 -0.6783
11268TIP3    H255220   3.589   3.240  16.105 -0.6517  0.0315  0.7826
11269TIP3   OH255221   1.650   2.814  12.006  0.3200  0.1225 -0.0151
11269TIP3    H155222   1.743   2.828  12.024  0.1227 -0.4901  1.6990
11269TIP3    H255223   1.637   2.720  12.021 -0.5695  0.1907 -0.3137
11270TIP3   OH255224   2.718   1.642   1.280 -0.1290 -0.5083  0.0821
11270TIP3    H155225   2.636   1.634   1.328 -1.5150 -0.1471 -2.0557
11270TIP3    H255226   2.725   1.735   1.260 -1.1249 -0.9449 -2.7435
11271TIP3   OH255227   4.988   1.163  16.076 -0.6015  0.3370  0.6051
11271TIP3    H155228   5.055   1.097  16.092 -0.8687  0.0113  0.4009
11271TIP3    H255229   5.035   1.236  16.037 -0.6312 -0.5997 -1.3012
11272TIP3   OH255230   3.910   5.542  13.218  0.3164  0.3897 -0.0347
11272TIP3    H155231   3.902   5.468  13.278 -0.7373  0.7857  0.3429
11272TIP3    H255232   4.001   5.569  13.226  0.0373  0.9257  2.0316
11273TIP3   OH255233   4.011   2.794   1.885 -0.0794 -0.1757  0.6250
11273TIP3    H155234   4.090   2.765   1.931 -0.1340 -0.0927  0.7705
11273TIP3    H255235   4.020   2.889   1.880 -0.0271 -0.1936  0.3787
11274TIP3   OH255236   3.987   1.154  15.813  0.1965  0.2066 -0.4233
11274TIP3    H155237   3.951   1.082  15.864 -0.7275  1.0516  0.1559
11274TIP3    H255238   3.925   1.165  15.741 -0.1022  0.9356 -0.0607
11275TIP3   OH255239   2.885   0.922  14.566  0.0210 -0.0858 -0.1839
11275TIP3    H155240   2.851   0.889  14.482 -0.1562  0.7018 -0.4240
11275TIP3    H255241   2.808   0.928  14.622  0.2185 -1.1458  0.2299
11276TIP3   OH255242   5.295   1.146   3.903  0.0490 -0.8049 -0.4298
11276TIP3    H155243   5.319   1.214   3.966 -0.7010 -1.1695  0.2786
11276TIP3    H255244   5.216   1.179   3.860 -2.2154 -2.4048  2.0804
11277TIP3   OH255245   5.889   0.295  11.343 -0.1927 -0.2042 -0.1624
11277TIP3    H155246   5.895   0.203  11.317 -0.2577 -0.2610  0.0268
11277TIP3    H255247   5.800   0.321  11.320  0.3403  0.2974 -1.8305
11278TIP3   OH255248   4.461   6.783   4.750  0.3111 -0.2228  0.1534
11278TIP3    H155249   4.533   6.737   4.706  0.4522  0.8174 -0.7570
11278TIP3    H255250   4.455   6.741   4.836  2.0476 -0.3125  0.2772
11279TIP3   OH255251   2.882   1.942  16.198 -0.3042  0.7007 -0.3731
11279TIP3    H155252   2.916   1.894  16.274  0.4145  2.4793  0.4722
11279TIP3    H255253   2.869   1.874  16.132  1.6984 -0.5472  0.3986
11280TIP3   OH255254   5.924   4.708   4.004 -0.2680  0.0859  0.1965
11280TIP3    H155255   6.007   4.663   4.023 -0.8589 -0.4655  1.5992
11280TIP3    H255256   5.869   4.691   4.080 -1.0315  2.0188  0.1443
11281TIP3   OH255257   5.407   4.059  16.965 -0.1489  0.3285  0.1776
11281TIP3    H155258   5.482   4.074  16.907  1.0886  0.0038  1.6157
11281TIP3    H255259   5.343   4.013  16.910  1.0824 -0.2202 -0.8641
11282TIP3   OH255260   3.081   0.493   5.902 -0.2455 -0.5592 -0.2691
11282TIP3    H155261   3.120   0.406   5.908  0.9993 -0.0871 -1.2676
11282TIP3    H255262   3.040   0.506   5.988 -0.8753 -2.2999 -0.2603
11283TIP3   OH255263   1.783   6.491  16.499 -0.4971 -0.1783 -0.4353
11283TIP3    H155264   1.765   6.410  16.547 -1.1731  0.3511  0.2291
11283TIP3    H255265   1.713   6.550  16.525  1.0693  1.2867  0.6461
11284TIP3   OH255266   5.289   5.443   4.923 -0.2579  0.2073  0.0005
11284TIP3    H155267   5.275   5.533   4.951  1.1796  0.5032 -0.1626
11284TIP3    H255268   5.218   5.426   4.861 -1.4908  0.6642  1.2462
11285TIP3   OH255269   4.317   6.643  12.083  0.4787 -0.3669 -0.4042
11285TIP3    H155270   4.365   6.650  12.001  0.7145 -1.2240 -0.3467
11285TIP3    H255271   4.306   6.549  12.097 -2.9334 -0.2677 -1.4285
11286TIP3   OH255272   4.177   5.059   1.456  0.0500 -0.4020  0.0468
11286TIP3    H155273   4.152   5.106   1.376 -2.7278 -1.6783  0.0801
11286TIP3    H255274   4.200   4.971   1.425  1.7546 -0.1188  0.3960
11287TIP3   OH255275   6.255   0.472   3.741  0.4280  0.2232 -0.5355
11287TIP3    H155276   6.260   0.506   3.830  0.7918 -0.6917 -0.2011
11287TIP3    H255277   6.180   0.517   3.702 -1.3089 -1.1735  1.0275
11288TIP3   OH255278   3.319   2.112   5.600  0.6050  0.1839  0.3370
11288TIP3    H155279   3.343   2.033   5.552  0.2195  0.0496  0.3655
11288TIP3    H255280   3.239   2.089   5.647  0.9325  0.3383  0.9811
11289TIP3   OH255281   2.997   3.039  14.141 -0.0707 -0.1491  0.0870
11289TIP3    H155282   2.937   3.088  14.085 -0.5525 -0.5210  0.2688
11289TIP3    H255283   3.074   3.022  14.085 -0.7181 -0.8725 -0.6116
11290TIP3   OH255284   2.767   6.005   4.782 -0.9825 -0.5860 -0.7569
11290TIP3    H155285   2.847   6.020   4.732  0.8371 -2.5361  1.3085
11290TIP3    H255286   2.768   6.072   4.851 -1.5732 -0.1224 -1.1907
11291TIP3   OH255287   6.362   0.144  10.858 -0.0705 -0.0951 -0.1785
11291TIP3    H155288   6.274   0.153  10.823  0.3445  0.0062 -1.2514
11291TIP3    H255289   6.375   0.222  10.913 -0.2998  0.4040 -0.8201
11292TIP3   OH255290   6.388   3.726   1.492  0.6127  0.1986 -0.0149
11292TIP3    H155291   6.305   3.744   1.447  1.0597  0.9953 -0.5316
11292TIP3    H255292   6.377   3.638   1.527 -0.6078  0.4425  0.2651
11293TIP3   OH255293   0.085   6.484   3.440 -0.3867  0.1080 -0.1825
11293TIP3    H155294  -0.004   6.454   3.424 -0.3539  0.2949 -0.7479
11293TIP3    H255295   0.106   6.452   3.528 -0.8175 -0.3908 -0.2549
11294TIP3   OH255296   2.775   3.213   5.167  0.2498  0.3195  0.2032
11294TIP3    H155297   2.765   3.278   5.097 -1.7358 -0.9696 -0.7929
11294TIP3    H255298   2.751   3.130   5.126  1.0338 -0.8144  1.9102
11295TIP3   OH255299   5.273   1.353  17.125  0.4651  0.5353  0.3382
11295TIP3    H155300   5.189   1.395  17.145 -0.3510 -1.3314  1.0443
11295TIP3    H255301   5.250   1.278  17.070  1.7574  0.4683 -0.1290
11296TIP3   OH255302   4.728   3.436  11.747  0.3595 -0.4221  0.3624
11296TIP3    H155303   4.752   3.497  11.677  2.7257 -0.9180  0.6474
11296TIP3    H255304   4.635   3.453  11.763 -0.3547 -0.4889 -3.0546
11297TIP3   OH255305   4.184   0.666   4.486  0.6410  0.5188 -0.1536
11297TIP3    H155306   4.239   0.651   4.409  0.5309 -1.1849  0.0607
11297TIP3    H255307   4.103   0.620   4.467  0.2176  0.9520  0.5558
11298TIP3   OH255308   6.480   1.754  16.853  0.4502  0.7759  0.5710
11298TIP3    H155309   6.402   1.700  16.864  0.3386  0.1862 -2.4067
11298TIP3    H255310   6.457   1.816  16.784  2.9545 -0.1839 -1.2322
11299TIP3   OH255311   1.626   2.178   0.314 -0.3569  0.6665 -0.3876
11299TIP3    H155312   1.556   2.237   0.344 -1.2491 -0.6344  0.1824
11299TIP3    H255313   1.587   2.131   0.241 -0.6458 -1.1303  0.8607
11300TIP3   OH255314   5.392   4.814  15.268 -0.5232 -0.3209 -0.2498
11300TIP3    H155315   5.431   4.738  15.226 -3.9430 -2.2449 -0.2273
11300TIP3    H255316   5.386   4.790  15.361  0.9696  1.2301  0.3069
11301TIP3   OH255317   6.707   4.368  16.058  0.2682  0.3158  0.8877
11301TIP3    H155318   6.682   4.457  16.032  0.6836  0.6753  1.6704
11301TIP3    H255319   6.699   4.368  16.153 -1.0462 -0.9088  0.8089
11302TIP3   OH255320   0.732   6.691   4.430 -0.4040 -0.4621 -0.3585
11302TIP3    H155321   0.735   6.777   4.472 -1.9301 -0.0777 -0.9519
11302TIP3    H255322   0.756   6.708   4.339  3.4512 -1.3785  0.3164
11303TIP3   OH255323   5.553   5.432   5.546  0.0711 -0.5301  0.1482
11303TIP3    H155324   5.479   5.489   5.569 -0.6051 -1.5023  0.4474
11303TIP3    H255325   5.601   5.421   5.628 -0.6197 -1.5355  0.4396
11304TIP3   OH255326   6.613   3.819   3.376 -0.2657 -0.3468  0.0295
11304TIP3    H155327   6.562   3.753   3.424 -0.8265 -0.1475 -0.2822
11304TIP3    H255328   6.561   3.899   3.383  0.4099  0.0701  0.3991
11305TIP3   OH255329   6.023   1.018   4.961  0.1123  0.1357  0.3315
11305TIP3    H155330   6.043   0.930   4.993  0.4524  0.6887  1.6920
11305TIP3    H255331   6.079   1.029   4.885  2.3674  0.2873  1.9207
11306TIP3   OH255332   2.730   4.090  17.081 -0.5273  0.2407  0.5284
11306TIP3    H155333   2.715   3.996  17.070  2.4505 -0.2829  0.1830
11306TIP3    H255334   2.757   4.100  17.173  0.3039  0.5596  0.2604
11307TIP3   OH255335   5.612   3.543  13.857  0.2407  0.0064 -0.0025
11307TIP3    H155336   5.622   3.448  13.853 -2.5295 -0.3192 -2.0912
11307TIP3    H255337   5.681   3.577  13.801  0.9181 -0.8052  0.3226
11308TIP3   OH255338   5.989   5.019  13.443  0.3563  0.1364  0.5013
11308TIP3    H155339   6.076   5.034  13.408  0.5523  1.3578  1.4302
11308TIP3    H255340   5.931   5.068  13.386  0.0330 -1.9349 -1.0680
11309TIP3   OH255341   4.425   3.808  14.331  0.0959 -0.5692  0.0741
11309TIP3    H155342   4.467   3.856  14.260  0.1185  0.7012  0.9073
11309TIP3    H255343   4.442   3.716  14.312 -1.4796 -0.4058 -2.5562
11310TIP3   OH255344   1.763   4.464   3.417 -0.3234  0.0684  0.4022
11310TIP3    H155345   1.784   4.440   3.508  2.8979  0.2318 -0.1847
11310TIP3    H255346   1.798   4.552   3.407 -2.0064  0.6709 -0.6324
11311TIP3   OH255347   4.773   0.158   5.716 -0.6051 -0.4424 -0.0695
11311TIP3    H155348   4.822   0.232   5.752 -2.3278 -0.5778  2.9784
11311TIP3    H255349   4.826   0.081   5.737  0.7742 -0.2103 -2.4642
11312TIP3   OH255350   4.363   3.495  11.445 -0.0060  0.2060  0.4499
11312TIP3    H155351   4.286   3.518  11.496  0.1901  1.4705  0.2111
11312TIP3    H255352   4.395   3.414  11.484 -1.2994 -0.2031  0.7075
11313TIP3   OH255353   4.222   1.025   3.652  0.2900  0.4194 -0.2174
11313TIP3    H155354   4.203   1.008   3.744 -0.2905 -1.2674 -0.6032
11313TIP3    H255355   4.309   0.988   3.638  0.1563  0.1894 -0.4592
11314TIP3   OH255356   5.396   5.063   4.761  0.0667  0.3114 -0.0145
11314TIP3    H155357   5.405   5.023   4.848  2.2948  1.7523  0.4889
11314TIP3    H255358   5.350   4.997   4.709 -2.4855 -0.1237  2.5133
11315TIP3   OH255359   4.162   2.310  17.085 -0.1552  0.6041 -0.8029
11315TIP3    H155360   4.075   2.270  17.085 -0.3571  1.0390 -1.5100
11315TIP3    H255361   4.214   2.253  17.143 -0.7170 -0.0686 -0.9442
11316TIP3   OH255362   3.036   1.274   4.657  0.2170  0.7652 -0.1190
11316TIP3    H155363   3.093   1.243   4.586  1.8431  2.9054  0.1308
11316TIP3    H255364   3.097   1.311   4.721 -1.2590 -0.3983  2.0902
11317TIP3   OH255365   1.930   2.499   5.565 -0.4080  0.1846  1.2125
11317TIP3    H155366   1.908   2.503   5.658 -0.9598  1.3708  1.0475
11317TIP3    H255367   2.013   2.451   5.562 -1.6350 -2.1127  2.0733
11318TIP3   OH255368   0.962   0.613   3.866 -0.2314  0.1915  0.0908
11318TIP3    H155369   0.925   0.525   3.865  0.1958 -0.0188  1.3036
11318TIP3    H255370   0.993   0.626   3.956  0.7817  1.1281 -0.3604
11319TIP3   OH255371   3.542   3.704  11.562 -0.2302  0.2100  0.5733
11319TIP3    H155372   3.482   3.777  11.574 -0.6080  0.2667 -1.3342
11319TIP3    H255373   3.491   3.639  11.513  0.8919 -0.2292 -0.0485
11320TIP3   OH255374   1.014   6.198  16.536  0.2739  0.3137 -0.1238
11320TIP3    H155375   1.096   6.225  16.576  0.4042  0.6794 -0.6243
11320TIP3    H255376   1.037   6.122  16.482  0.5423  1.1647 -1.2485
11321TIP3   OH255377   1.220   2.802  12.174  0.6038  0.2681 -0.5104
11321TIP3    H155378   1.208   2.711  12.201 -0.8325  0.6158  0.1021
11321TIP3    H255379   1.288   2.836  12.232  0.4588 -0.1367 -0.1015
11322TIP3   OH255380   0.484   6.148  12.641  0.2428 -0.2609 -0.4406
11322TIP3    H155381   0.488   6.073  12.700  0.5955  0.7530  0.8963
11322TIP3    H255382   0.399   6.140  12.597 -0.0102 -1.0843  0.1713
11323TIP3   OH255383   0.995   2.931  16.667 -0.0436 -0.2644  0.2407
11323TIP3    H155384   1.005   2.837  16.682  0.4036 -0.0820  1.1773
11323TIP3    H255385   0.982   2.968  16.755  1.2152  0.7039  0.0436
11324TIP3   OH255386   2.245   4.808  12.627 -0.2797  0.0432  0.5417
11324TIP3    H155387   2.227   4.780  12.717 -0.5954 -0.3980  0.3443
11324TIP3    H255388   2.178   4.873  12.609 -1.9335 -1.7895 -0.2844
11325TIP3   OH255389   0.563   6.180  16.962  0.8352 -0.3832 -0.6651
11325TIP3    H155390   0.633   6.134  17.009 -1.0374 -0.5482  2.1668
11325TIP3    H255391   0.591   6.272  16.962  1.1411 -0.4623  0.3128
11326TIP3   OH255392   5.097   4.629  11.653  0.3624 -0.4197 -0.1259
11326TIP3    H155393   5.006   4.647  11.679  0.8415 -0.1686  1.4904
11326TIP3    H255394   5.109   4.677  11.571 -1.4098 -1.7096 -1.2301
11327TIP3   OH255395   5.671   0.701  16.036  0.3184  0.0332  0.1803
11327TIP3    H155396   5.726   0.750  16.098  3.0796 -3.0936  0.4555
11327TIP3    H255397   5.717   0.709  15.952  0.0649 -0.9062 -0.0568
11328TIP3   OH255398   4.642   1.277   1.531  0.0546  0.3832 -0.1782
11328TIP3    H155399   4.556   1.261   1.491  0.0144 -1.2247  0.5001
11328TIP3    H255400   4.626   1.346   1.595  0.0085  2.6388 -2.4548
11329TIP3   OH255401   4.977   4.245  12.999  0.2503 -0.8945  0.4034
11329TIP3    H155402   4.891   4.203  13.007 -0.6145  1.0145  1.8112
11329TIP3    H255403   4.964   4.315  12.936  1.7986 -2.8395 -2.2934
11330TIP3   OH255404   1.832   5.775   4.375 -0.4092 -0.3294  0.8552
11330TIP3    H155405   1.744   5.742   4.357 -0.2420 -0.0834 -0.4997
11330TIP3    H255406   1.819   5.868   4.396 -0.4166 -0.1084 -0.0832
11331TIP3   OH255407   0.107   3.253   0.349  0.2523  0.0584  0.2579
11331TIP3    H155408   0.114   3.259   0.444  0.2514  1.2031  0.2059
11331TIP3    H255409   0.068   3.167   0.333 -2.4298  0.9357  1.4433
11332TIP3   OH255410   4.995   3.124  11.883  0.4296  0.0038 -0.5319
11332TIP3    H155411   5.036   3.060  11.942 -1.0584  0.2325  0.8176
11332TIP3    H255412   4.922   3.077  11.844 -0.2571  0.6495 -0.0545
11333TIP3   OH255413   5.185   1.357  16.014 -0.6986 -0.0799  0.2252
11333TIP3    H155414   5.189   1.398  16.100 -0.8627  0.1698  0.1165
11333TIP3    H255415   5.258   1.295  16.013 -0.2919  0.3889  0.3011
11334TIP3   OH255416   4.250   0.605  13.630  0.3225 -0.1552 -0.4515
11334TIP3    H155417   4.272   0.562  13.713  2.3815 -0.8845 -1.3005
11334TIP3    H255418   4.156   0.622  13.636  0.6076  1.0588  2.5914
11335TIP3   OH255419   5.804   3.539  12.774  0.0059 -0.6797 -0.0236
11335TIP3    H155420   5.861   3.479  12.726  0.0238 -0.1635 -0.6576
11335TIP3    H255421   5.773   3.601  12.708 -0.8603 -0.6276  0.4099
11336TIP3   OH255422   0.276   2.427  15.483  0.7309  0.4986  0.2406
11336TIP3    H155423   0.220   2.502  15.464  0.4697  0.7276  1.7919
11336TIP3    H255424   0.365   2.462  15.480  0.6808  0.5743 -0.3360
11337TIP3   OH255425   2.033   1.243   2.836 -0.0636  0.4902  0.4772
11337TIP3    H155426   2.088   1.199   2.771 -0.1339  0.2478  0.5806
11337TIP3    H255427   2.095   1.290   2.892  0.1260 -0.6601  1.2576
11338TIP3   OH255428   5.304   4.371  11.853 -0.1499 -0.7475 -0.1426
11338TIP3    H155429   5.326   4.278  11.850  1.2337 -0.4478  0.1548
11338TIP3    H255430   5.272   4.391  11.765  1.6317 -1.0220 -0.8903
11339TIP3   OH255431   4.277   0.503   4.697 -0.2109  0.1008 -0.1424
11339TIP3    H155432   4.183   0.520   4.706 -0.1440  1.8582 -1.9783
11339TIP3    H255433   4.301   0.548   4.616  2.3030  0.0039  0.4894
11340TIP3   OH255434   0.894   5.167   4.795 -0.2182  0.0937  0.1132
11340TIP3    H155435   0.980   5.133   4.820 -1.2515 -1.3812  1.9089
11340TIP3    H255436   0.845   5.090   4.766 -1.0378  0.8829 -0.6690
11341TIP3   OH255437   2.703   3.213   4.540  0.3189  0.3225 -0.0200
11341TIP3    H155438   2.682   3.121   4.558 -1.5934  0.5940 -0.6401
11341TIP3    H255439   2.716   3.252   4.626  0.3955 -0.3670  0.2880
11342TIP3   OH255440   1.901   6.458  13.287  0.4782 -0.2130  0.3180
11342TIP3    H155441   1.974   6.399  13.305  0.1170 -0.3222  1.5093
11342TIP3    H255442   1.940   6.531  13.238  1.1941 -0.7225  0.1145
11343TIP3   OH255443   1.274   0.407  10.959 -0.2878 -0.3030 -0.2516
11343TIP3    H155444   1.334   0.409  10.884 -0.7550  0.4910 -0.6128
11343TIP3    H255445   1.296   0.484  11.010 -0.0377 -0.7923  0.3862
11344TIP3   OH255446   0.734   3.688  13.585 -0.3724 -0.1860 -0.2223
11344TIP3    H155447   0.817   3.697  13.632 -0.1529 -1.1655 -0.3975
11344TIP3    H255448   0.756   3.638  13.506 -1.2839 -1.3900  0.2351
11345TIP3   OH255449   1.964   4.572   2.724 -0.4741  0.3094 -0.3653
11345TIP3    H155450   1.943   4.664   2.710 -0.5335  0.3839  0.1936
11345TIP3    H255451   1.921   4.526   2.652 -0.2942  0.7367 -0.7445
11346TIP3   OH255452   0.361   3.617   5.386 -0.3085 -0.4326  0.8568
11346TIP3    H155453   0.354   3.661   5.470  1.4260 -0.4201  1.0340
11346TIP3    H255454   0.453   3.590   5.381  0.5329  2.2940 -2.3423
11347TIP3   OH255455   5.237   4.787  11.849 -0.0162  0.1009 -0.0924
11347TIP3    H155456   5.156   4.812  11.892  0.0841  1.2179 -0.5174
11347TIP3    H255457   5.211   4.721  11.785 -0.7392  1.0701 -0.8208
11348TIP3   OH255458   0.257   4.697  11.776  0.4034  0.7486  0.2255
11348TIP3    H155459   0.167   4.727  11.762  0.3886  1.8288  2.2457
11348TIP3    H255460   0.311   4.772  11.749  0.4558  1.8667  3.0653
11349TIP3   OH255461   4.683   3.980   1.376 -0.0428  0.0084 -0.0996
11349TIP3    H155462   4.660   3.909   1.315 -1.9840  0.5406 -0.0428
11349TIP3    H255463   4.696   4.056   1.320 -0.9064  0.2784  0.0482
11350TIP3   OH255464   0.022   6.576   3.980 -0.2605  0.3679 -0.3866
11350TIP3    H155465   0.096   6.516   3.992 -0.0616  0.2359 -2.0176
11350TIP3    H255466   0.018   6.626   4.061  0.3074 -1.0431  0.5537
11351TIP3   OH255467   6.219   1.384  14.846  0.8185 -0.8942 -0.6919
11351TIP3    H155468   6.245   1.295  14.867  1.6787 -0.4512  0.1803
11351TIP3    H255469   6.285   1.439  14.887 -1.1282  0.2623  1.1422
11352TIP3   OH255470   2.779   5.762  12.762 -0.4543 -0.0436 -0.5913
11352TIP3    H155471   2.827   5.692  12.805 -0.3565  0.2574 -0.1980
11352TIP3    H255472   2.714   5.718  12.708 -0.7674 -0.4293  0.0867
11353TIP3   OH255473   2.575   2.231   0.419  0.1327  0.1613 -0.0539
11353TIP3    H155474   2.599   2.228   0.326  0.1647 -0.9772 -0.0209
11353TIP3    H255475   2.495   2.284   0.421  0.4779  0.7184 -0.6512
11354TIP3   OH255476   0.172   4.448  14.914 -0.1552 -0.2406 -0.0155
11354TIP3    H155477   0.250   4.490  14.879 -0.5252 -0.9672 -1.7892
11354TIP3    H255478   0.196   4.425  15.004  1.4446  0.0951 -0.3273
11355TIP3   OH255479   4.642   4.722   0.831  0.3170  0.1593  0.3423
11355TIP3    H155480   4.736   4.724   0.813  0.4532  0.1696  1.0163
11355TIP3    H255481   4.635   4.670   0.911 -0.3204 -0.4169 -0.0741
11356TIP3   OH255482   3.915   4.499  13.067 -0.1140  0.2019 -0.0445
11356TIP3    H155483   3.856   4.508  13.142 -1.4578 -1.7839 -0.7597
11356TIP3    H255484   3.936   4.406  13.064  3.3240  0.8437  0.2747
11357TIP3   OH255485   3.565   1.552   6.619  0.3091  0.6307  0.7201
11357TIP3    H155486   3.594   1.642   6.605 -0.9270  1.0259  0.5583
11357TIP3    H255487   3.523   1.527   6.537  0.2527  0.0553  0.9158
11358TIP3   OH255488   1.421   2.745  15.087  0.0682  0.5733 -0.2117
11358TIP3    H155489   1.400   2.652  15.099 -1.4132  0.8184 -0.6694
11358TIP3    H255490   1.432   2.756  14.993 -0.8556  1.0416 -0.2867
11359TIP3   OH255491   3.783   3.810   3.775  0.0697 -1.0241 -0.0526
11359TIP3    H155492   3.817   3.751   3.708 -0.1563  0.5042 -1.5865
11359TIP3    H255493   3.840   3.796   3.850  0.7646 -2.3053 -0.7821
11360TIP3   OH255494   5.971   4.244  12.473  0.1431 -0.4120 -0.0531
11360TIP3    H155495   5.879   4.259  12.497  0.1677  1.0481 -0.7470
11360TIP3    H255496   5.966   4.199  12.389  0.0839 -2.8910  1.1899
11361TIP3   OH255497   4.246   5.667   5.850  0.3762 -0.0957  0.2521
11361TIP3    H155498   4.182   5.709   5.793  1.8054  0.7866 -0.7513
11361TIP3    H255499   4.196   5.640   5.927 -1.3746 -0.3213 -0.9182
11362TIP3   OH255500   4.285   0.224   4.794 -0.6845 -0.2692  0.6198
11362TIP3    H155501   4.345   0.163   4.836 -0.6130 -0.6869 -0.0744
11362TIP3    H255502   4.338   0.301   4.774  0.7117 -2.0091 -3.3966
11363TIP3   OH255503   2.947   6.631   3.455  0.2746 -0.5749  0.2854
11363TIP3    H155504   2.910   6.682   3.383  1.2867  1.0705  0.8627
11363TIP3    H255505   3.029   6.596   3.420  0.7982  0.2772  0.6154
11364TIP3   OH255506   2.278   6.149   4.083  0.0388 -0.0463 -0.2372
11364TIP3    H155507   2.211   6.089   4.117 -0.1106  1.0705  1.5633
11364TIP3    H255508   2.344   6.091   4.045  0.1440 -1.4287  1.8639
11365TIP3   OH255509   4.358   5.246   4.060  0.2327  0.0364  0.6286
11365TIP3    H155510   4.264   5.248   4.080  0.5027  0.8457  2.0045
11365TIP3    H255511   4.383   5.155   4.072 -0.5420 -0.3814 -0.7057
11366TIP3   OH255512   1.812   4.363  11.747  0.7440  1.0719  0.4571
11366TIP3    H155513   1.799   4.429  11.679  2.7822  2.0270  0.9165
11366TIP3    H255514   1.903   4.374  11.774  0.5564 -0.6106  1.9660
11367TIP3   OH255515   6.154   6.512   4.323  0.3328 -0.3170 -0.1659
11367TIP3    H155516   6.230   6.561   4.293 -0.7212  0.2697 -2.0333
11367TIP3    H255517   6.090   6.579   4.348  0.0111 -0.7897  0.3126
11368TIP3   OH255518   1.129   4.462  16.442 -0.2897  0.3853  0.2256
11368TIP3    H155519   1.176   4.487  16.523 -1.0385 -0.3061  0.8866
11368TIP3    H255520   1.126   4.543  16.391  1.3639  0.5266  0.2889
11369TIP3   OH255521   2.167   6.260   5.441 -0.3049  0.3588 -0.9406
11369TIP3    H155522   2.088   6.206   5.431  1.6032 -2.6951 -0.8550
11369TIP3    H255523   2.207   6.229   5.522  1.7579  0.6748 -1.7803
11370TIP3   OH255524   1.473   5.753   3.153  0.2605 -0.0368  0.4325
11370TIP3    H155525   1.545   5.758   3.091  1.2711 -1.7327  1.3797
11370TIP3    H255526   1.402   5.713   3.104  1.1155 -1.5643  0.3900
11371TIP3   OH255527   0.907   2.927  12.280  0.2254 -1.0368 -0.0409
11371TIP3    H155528   0.894   2.864  12.209 -0.5544  0.5089 -1.3529
11371TIP3    H255529   0.965   2.993  12.242 -0.6027  0.0793  0.5724
11372TIP3   OH255530   2.530   5.722   3.653 -0.0315 -0.2772 -0.0987
11372TIP3    H155531   2.604   5.706   3.711 -1.3395 -1.4096  1.3248
11372TIP3    H255532   2.568   5.722   3.565  1.7431 -0.1407  0.6286
11373TIP3   OH255533   4.179   6.747   1.661  0.1762  0.4553  0.1722
11373TIP3    H155534   4.111   6.781   1.719 -1.1761 -0.2429 -0.9307
11373TIP3    H255535   4.200   6.821   1.603 -2.6098 -0.3445 -2.0898
11374TIP3   OH255536   1.984   3.215  15.337  0.6092  0.3378 -0.0732
11374TIP3    H155537   1.911   3.277  15.328  1.1124  1.0527  0.6367
11374TIP3    H255538   2.033   3.224  15.255  0.0970  0.1162 -0.4038
11375TIP3   OH255539   5.404   0.026   5.677 -0.3808 -0.2839 -0.7792
11375TIP3    H155540   5.356  -0.048   5.641 -0.6320 -0.1953 -0.6299
11375TIP3    H255541   5.339   0.097   5.682 -0.0381  0.0766 -1.3265
11376TIP3   OH255542   2.487   2.304  11.392  0.2637 -0.7516  0.3390
11376TIP3    H155543   2.555   2.291  11.459 -1.4594  1.2808  2.6759
11376TIP3    H255544   2.444   2.219  11.385  2.7463 -2.0212 -1.0128
11377TIP3   OH255545   2.708   0.757   0.218 -0.1352  0.1580 -0.4608
11377TIP3    H155546   2.628   0.762   0.271 -0.7917 -0.1088 -1.3904
11377TIP3    H255547   2.729   0.848   0.198 -0.0431  0.2444  0.0233
11378TIP3   OH255548   1.269   2.917  13.944  0.0336  0.2621 -0.8981
11378TIP3    H155549   1.230   2.834  13.916  0.7366 -1.2713  2.1789
11378TIP3    H255550   1.195   2.977  13.953 -0.7248 -0.5649 -1.4543
11379TIP3   OH255551   5.038   6.290  10.277  0.2357  0.1663  0.6158
11379TIP3    H155552   4.987   6.210  10.265 -0.3049  0.4783  0.7570
11379TIP3    H255553   5.115   6.279  10.222 -0.7190  0.3167 -0.7903
11380TIP3   OH255554   5.676   4.257   3.384 -0.0277  0.1232 -0.1681
11380TIP3    H155555   5.595   4.282   3.340 -0.2618  1.3672  0.9019
11380TIP3    H255556   5.745   4.270   3.319 -0.3876  1.7100 -0.2748
11381TIP3   OH255557   3.278   1.982   0.948 -0.0013  0.2925 -0.0774
11381TIP3    H155558   3.218   2.050   0.978 -0.6934  0.0074 -0.8042
11381TIP3    H255559   3.335   2.026   0.885 -0.9016  0.0451 -1.0779
11382TIP3   OH255560   6.327   4.779  13.167 -0.5882  0.2807 -0.3896
11382TIP3    H155561   6.332   4.802  13.074 -1.6521  1.2751 -0.2247
11382TIP3    H255562   6.417   4.786  13.198  0.0123 -1.3330 -1.6014
11383TIP3   OH255563   1.307   6.500  15.401  0.0706 -0.0317  0.0721
11383TIP3    H155564   1.286   6.592  15.411  1.2239  0.0926  1.6824
11383TIP3    H255565   1.379   6.498  15.338  0.9759  0.3300  1.0575
11384TIP3   OH255566   5.955   2.908  14.870  0.6315 -0.1208 -0.4339
11384TIP3    H155567   6.037   2.875  14.833  1.0659 -0.2268  0.5915
11384TIP3    H255568   5.935   2.986  14.818  0.9736 -0.5155 -1.1792
11385TIP3   OH255569   0.984   5.769  15.483 -0.4252 -0.1341  0.0355
11385TIP3    H155570   1.066   5.722  15.468 -0.0299  0.7578 -0.6617
11385TIP3    H255571   0.993   5.850  15.433 -3.1144 -1.4682 -2.9545
11386TIP3   OH255572   4.074   2.089  12.647 -0.4404 -0.3027  0.0901
11386TIP3    H155573   4.030   2.115  12.728  1.9328  0.3031  1.2604
11386TIP3    H255574   4.022   2.130  12.578 -2.4512 -0.7250  1.2624
11387TIP3   OH255575   5.052   5.392  11.250  0.3516 -0.3358  0.7392
11387TIP3    H155576   5.016   5.472  11.212  1.0395  0.5308  1.8398
11387TIP3    H255577   5.003   5.321  11.208  0.7070  0.5674 -1.3490
11388TIP3   OH255578   1.346   6.594   3.649  0.8725  0.2218 -0.4870
11388TIP3    H155579   1.386   6.517   3.606  1.2656  0.7588 -1.1079
11388TIP3    H255580   1.405   6.666   3.627 -0.3951  1.0301 -1.3506
11389TIP3   OH255581   3.236   4.886   3.351 -0.2721 -0.7024 -0.3819
11389TIP3    H155582   3.274   4.973   3.338 -1.4393 -0.1231 -0.0025
11389TIP3    H255583   3.298   4.842   3.409 -0.0011  0.1085 -0.0404
11390TIP3   OH255584   4.454   5.553  15.398 -0.2067  0.4058 -0.3191
11390TIP3    H155585   4.443   5.483  15.462  0.1572  0.4432 -0.2095
11390TIP3    H255586   4.519   5.612  15.439  0.6520  0.0014 -1.0713
11391TIP3   OH255587   3.031   2.248   3.889  0.0931  0.6249  0.2037
11391TIP3    H155588   3.113   2.283   3.854  0.9474 -2.5721 -1.4174
11391TIP3    H255589   3.058   2.198   3.967 -0.5222  0.7601  0.5027
11392TIP3   OH255590   4.370   2.839   0.488  0.3006 -0.0988  0.3178
11392TIP3    H155591   4.367   2.917   0.542  0.0874  0.0663  0.0725
11392TIP3    H255592   4.317   2.861   0.411  1.9812  0.2887 -0.7768
11393TIP3   OH255593   0.138   6.761   4.452 -0.2053  0.2326  0.0173
11393TIP3    H155594   0.204   6.766   4.383  0.6383 -2.4779  0.4933
11393TIP3    H255595   0.123   6.852   4.478  3.8383  0.9692  0.3256
11394TIP3   OH255596   5.105   0.454   4.273  0.5952  0.3480  0.0504
11394TIP3    H155597   5.164   0.401   4.326 -0.6289 -0.9857  0.1458
11394TIP3    H255598   5.100   0.538   4.318  0.6285 -0.3012  1.2957
11395TIP3   OH255599   3.180   5.370  13.602 -0.1156 -0.7763  0.3845
11395TIP3    H155600   3.086   5.361  13.587 -0.2748  0.0471  0.8690
11395TIP3    H255601   3.206   5.286  13.640 -0.7166 -0.8997  0.5361
11396TIP3   OH255602   2.848   6.743  12.544  0.3800  0.1702 -0.2557
11396TIP3    H155603   2.876   6.792  12.467  2.0065  2.3509  1.5816
11396TIP3    H255604   2.753   6.751  12.544  0.2838 -0.4826 -2.3638
11397TIP3   OH255605   3.786   1.911  10.488 -0.3067  0.7473 -0.4773
11397TIP3    H155606   3.697   1.879  10.502 -0.5343  0.9196 -1.4343
11397TIP3    H255607   3.823   1.853  10.422 -0.2852  1.6560 -1.2923
11398TIP3   OH255608   4.712   1.895   4.654 -0.5545 -0.4047 -0.2705
11398TIP3    H155609   4.729   1.817   4.601 -3.1981 -0.6072 -0.9735
11398TIP3    H255610   4.788   1.951   4.640 -1.1339 -0.3758 -4.4839
11399TIP3   OH255611   0.126   1.258   3.148  0.0440 -0.4580  0.2676
11399TIP3    H155612   0.097   1.342   3.112  1.3641 -0.4855 -0.9413
11399TIP3    H255613   0.055   1.198   3.129 -1.4106  0.5553  2.0920
11400TIP3   OH255614   2.462   2.843   3.694 -0.5497 -0.4496 -0.1922
11400TIP3    H155615   2.541   2.797   3.722 -0.8160  0.1464  1.6428
11400TIP3    H255616   2.490   2.894   3.618  1.3793  1.2419  1.5143
11401TIP3   OH255617   3.054   2.941   0.761 -0.7950  0.1752 -0.3094
11401TIP3    H155618   2.997   3.017   0.776 -1.1492 -0.3918  1.5514
11401TIP3    H255619   3.105   2.934   0.842  0.6419 -0.4226 -1.2321
11402TIP3   OH255620   4.922   4.218   3.107 -0.3474  1.1453  0.6052
11402TIP3    H155621   4.875   4.239   3.026 -1.1875 -1.6774  0.2722
11402TIP3    H255622   5.008   4.258   3.094  0.1401 -0.5193 -2.5020
11403TIP3   OH255623   4.812   2.435   4.264  0.1070  0.1161  0.0662
11403TIP3    H155624   4.758   2.380   4.207  1.1485 -1.3819  0.4673
11403TIP3    H255625   4.892   2.449   4.214  0.0644  0.8469  0.1940
11404TIP3   OH255626   0.462   1.254   3.516 -0.2895  0.2722  0.9598
11404TIP3    H155627   0.457   1.346   3.494  1.2221 -0.1474 -1.4442
11404TIP3    H255628   0.553   1.240   3.542 -0.0882 -0.8276 -0.2494
11405TIP3   OH255629   1.010   3.692  14.654 -0.0195 -0.5496 -0.4087
11405TIP3    H155630   1.048   3.657  14.734 -3.9827  0.4042  2.2161
11405TIP3    H255631   1.048   3.779  14.646  0.2050 -0.5310  0.6581
11406TIP3   OH255632   4.250   1.662  15.621 -0.2384  0.0172  0.4238
11406TIP3    H155633   4.213   1.703  15.543 -1.4212 -0.0081  0.9533
11406TIP3    H255634   4.248   1.731  15.688 -1.1063 -0.5250  0.9777
11407TIP3   OH255635   3.253   6.751   5.992 -0.0503  0.1623  0.2719
11407TIP3    H155636   3.282   6.842   6.000 -1.4061  0.6722 -0.2349
11407TIP3    H255637   3.218   6.729   6.079 -0.1143  0.2753  0.2746
11408TIP3   OH255638   4.119   0.418   6.474  0.2585  0.3517 -0.1024
11408TIP3    H155639   4.104   0.512   6.462 -1.9948 -0.0656 -0.9790
11408TIP3    H255640   4.039   0.376   6.443  1.1892 -1.8859  0.2944
11409TIP3   OH255641   0.376   0.191  13.410  0.2273 -0.2399 -0.4175
11409TIP3    H155642   0.450   0.133  13.425 -0.1684 -0.0103  3.7660
11409TIP3    H255643   0.414   0.273  13.380  1.1195 -1.4440 -2.7928
11410TIP3   OH255644   6.474   3.664   0.138 -0.3284 -0.6371 -0.1242
11410TIP3    H155645   6.409   3.728   0.110 -1.6108 -2.7094 -2.2665
11410TIP3    H255646   6.484   3.678   0.232 -2.2527  1.1647 -0.1281
11411TIP3   OH255647   5.531   4.004   2.872 -0.1499  0.4120  0.1687
11411TIP3    H155648   5.482   3.922   2.871  0.2394  0.1660 -1.5731
11411TIP3    H255649   5.572   4.009   2.785  2.0468  1.1230  1.1809
11412TIP3   OH255650   1.706   1.232  12.090  0.0690 -0.1381 -0.3948
11412TIP3    H155651   1.657   1.200  12.165  1.3986 -1.7422 -0.1436
11412TIP3    H255652   1.789   1.263  12.127 -0.5755  2.3004 -0.8347
11413TIP3   OH255653   6.562   5.068  13.980  0.2501 -0.7788  0.5715
11413TIP3    H155654   6.598   5.157  13.985  0.5390 -0.8418 -0.2016
11413TIP3    H255655   6.639   5.012  13.969 -0.0589 -0.8376 -2.0799
11414TIP3   OH255656   1.921   1.800   4.795  0.4109  0.0759 -0.1376
11414TIP3    H155657   1.903   1.890   4.821  0.2635  0.0251 -0.0661
11414TIP3    H255658   1.926   1.804   4.699 -0.6965 -0.0378 -0.2061
11415TIP3   OH255659   5.491   6.679  17.135  0.2951  0.2098 -0.3411
11415TIP3    H155660   5.447   6.687  17.051  0.4169  1.9103 -0.2730
11415TIP3    H255661   5.507   6.585  17.145 -2.5616 -0.3882 -0.7227
11416TIP3   OH255662   3.101   0.009   0.746  1.0606 -0.5264  0.2159
11416TIP3    H155663   3.178  -0.015   0.798  1.3522 -1.0606 -0.4471
11416TIP3    H255664   3.127   0.087   0.699  0.2342  0.9640  2.0968
11417TIP3   OH255665   0.989   1.898   2.691 -0.0908  0.1803  0.1930
11417TIP3    H155666   1.026   1.911   2.779 -0.5399 -2.3065  0.8260
11417TIP3    H255667   1.054   1.845   2.645  0.3817  1.8909 -1.2242
11418TIP3   OH255668   5.890   5.654  16.667 -0.5024  0.3122 -0.1264
11418TIP3    H155669   5.901   5.692  16.755 -1.4508 -0.2469  0.2486
11418TIP3    H255670   5.910   5.726  16.608  2.2001  0.1789  0.4800
11419TIP3   OH255671   2.710   6.007   3.590 -0.5212 -0.0680 -0.5097
11419TIP3    H155672   2.739   6.000   3.681 -0.4297  0.7772 -0.4668
11419TIP3    H255673   2.718   5.918   3.556  1.2329 -0.0619 -0.2291
11420TIP3   OH255674   0.564   2.915  13.279  0.0967  0.3021  0.4653
11420TIP3    H155675   0.647   2.903  13.325 -0.1619 -0.5665  0.7154
11420TIP3    H255676   0.500   2.868  13.332 -0.3969  0.1971 -0.2116
11421TIP3   OH255677   1.979   5.779   2.491  0.5212  0.1224 -0.4437
11421TIP3    H155678   1.982   5.821   2.577 -0.9449  0.8476 -0.7160
11421TIP3    H255679   2.062   5.802   2.450  2.1953 -1.9217  1.4867
11422TIP3   OH255680   2.735   4.850  13.279  0.5478 -0.7582 -0.3701
11422TIP3    H155681   2.640   4.842  13.275  0.3155  1.0099  0.6768
11422TIP3    H255682   2.764   4.772  13.326 -0.6561 -0.0979  1.5795
11423TIP3   OH255683   5.875   6.299  15.310 -0.2542  0.2302 -0.4044
11423TIP3    H155684   5.806   6.363  15.290 -1.6217  0.6292  4.3370
11423TIP3    H255685   5.939   6.349  15.361  0.9926 -1.2094 -0.5282
11424TIP3   OH255686   2.490   5.978   1.656 -0.4669 -0.5228  0.2860
11424TIP3    H155687   2.455   5.975   1.567 -0.2159 -0.1580  0.1739
11424TIP3    H255688   2.462   6.064   1.690 -1.5898 -1.1297  0.9825
11425TIP3   OH255689   2.770   1.070  15.928 -0.7411 -0.4824 -0.1335
11425TIP3    H155690   2.807   1.026  15.851 -0.0367 -0.0960 -0.0225
11425TIP3    H255691   2.821   1.036  16.002 -1.0025 -0.3867  0.0933
11426TIP3   OH255692   6.082   6.638  12.105  0.0645  0.6755 -0.2403
11426TIP3    H155693   6.058   6.547  12.122 -1.6451  1.5257  2.7181
11426TIP3    H255694   6.175   6.643  12.129 -0.0583 -0.1296  0.4750
11427TIP3   OH255695   3.740   1.909  16.580  0.3954  0.0914  0.4305
11427TIP3    H155696   3.764   1.991  16.537  0.1288 -0.7641 -1.4675
11427TIP3    H255697   3.659   1.882  16.537  0.0663 -0.7919  1.5519
11428TIP3   OH255698   1.127   0.829   1.273  0.3082 -0.5128  0.0068
11428TIP3    H155699   1.100   0.918   1.298  3.2749 -0.3708  3.6760
11428TIP3    H255700   1.050   0.792   1.231 -1.9119  2.9627  0.5516
11429TIP3   OH255701   4.776   1.587  15.274 -0.1397 -0.4762 -0.3616
11429TIP3    H155702   4.845   1.654  15.270 -0.4210 -0.2123 -1.1223
11429TIP3    H255703   4.782   1.551  15.362  1.4642 -0.9836 -0.6401
11430TIP3   OH255704   0.519   2.179  16.819  1.1190 -0.4089 -0.6267
11430TIP3    H155705   0.467   2.117  16.869 -0.5866 -0.0920 -1.9074
11430TIP3    H255706   0.469   2.261  16.821  3.2330  0.9538  0.8771
11431TIP3   OH255707   3.723   5.419   5.109  1.2151  0.1751 -0.2490
11431TIP3    H155708   3.762   5.420   5.022 -0.6427 -1.0576 -1.1744
11431TIP3    H255709   3.744   5.332   5.144 -0.6090 -0.5414 -0.7927
11432TIP3   OH255710   4.588   1.174  11.100  0.6566  0.2403  0.2871
11432TIP3    H155711   4.615   1.094  11.054 -1.0054 -0.6640  0.7884
11432TIP3    H255712   4.670   1.213  11.130  1.5132 -1.4470  0.2917
11433TIP3   OH255713   1.536   3.873   5.539  0.0928 -0.4159 -0.1102
11433TIP3    H155714   1.607   3.937   5.533 -0.5366  0.3451  0.3774
11433TIP3    H255715   1.462   3.922   5.573 -1.1532 -0.8002 -2.0933
11434TIP3   OH255716   3.096   3.502  16.223  0.0842  0.3836 -1.2835
11434TIP3    H155717   3.180   3.537  16.255  0.2844 -1.7312  0.8565
11434TIP3    H255718   3.122   3.431  16.165  0.1151 -2.8413  2.2391
11435TIP3   OH255719   1.612   2.503   1.565  0.3633 -0.3105 -0.1511
11435TIP3    H155720   1.562   2.585   1.560 -0.2109 -0.5988  0.6208
11435TIP3    H255721   1.586   2.454   1.488  0.6293  0.1884 -0.5609
11436TIP3   OH255722   2.120   3.316   6.570 -0.0785 -0.2491  0.1702
11436TIP3    H155723   2.091   3.398   6.611  1.1728  0.5491 -0.4878
11436TIP3    H255724   2.039   3.268   6.552 -0.7553  0.0311  2.1848
11437TIP3   OH255725   1.105   4.817   3.437 -0.1021  0.6835  0.4295
11437TIP3    H155726   1.180   4.866   3.403  1.4018 -0.5205  1.8342
11437TIP3    H255727   1.029   4.868   3.410  1.0387  0.9088 -2.8170
11438TIP3   OH255728   2.159   3.793  16.659  0.1309  0.2351  0.3364
11438TIP3    H155729   2.113   3.863  16.707 -0.9357  1.0000 -1.6634
11438TIP3    H255730   2.214   3.840  16.596 -0.5405 -0.7056 -0.9881
11439TIP3   OH255731   5.032   3.669  15.140 -0.1132  0.8335  0.1503
11439TIP3    H155732   4.982   3.729  15.196 -2.6284 -0.2708 -0.7693
11439TIP3    H255733   4.998   3.685  15.052 -0.2410 -1.3444 -0.2403
11440TIP3   OH255734   1.977   5.512  13.864 -0.0045 -0.1847 -0.3202
11440TIP3    H155735   2.022   5.432  13.890 -0.3939 -0.1408  0.5297
11440TIP3    H255736   1.884   5.489  13.867 -0.3312  1.0310  2.8022
11441TIP3   OH255737   2.910   4.033   1.086 -0.4123  0.0535 -0.0286
11441TIP3    H155738   2.823   4.055   1.054  0.2327  2.8677 -0.1090
11441TIP3    H255739   2.938   4.110   1.136  2.6139 -0.0696 -1.2683
11442TIP3   OH255740   3.959   3.941   2.271  0.1115  0.0730  0.1698
11442TIP3    H155741   3.906   3.927   2.350 -0.5890  0.5402 -0.2057
11442TIP3    H255742   3.946   4.034   2.250  0.9749  0.1609 -0.0134
11443TIP3   OH255743   1.604   4.553  15.480 -0.2191  0.2320 -0.3550
11443TIP3    H155744   1.559   4.481  15.435  0.0840 -1.9702  2.5092
11443TIP3    H255745   1.697   4.531  15.473 -0.1222  0.3259  0.5014
11444TIP3   OH255746   6.646   5.766   4.065  0.3089 -0.5900 -0.0214
11444TIP3    H155747   6.667   5.784   4.157 -0.0253  1.2997 -0.2717
11444TIP3    H255748   6.596   5.685   4.067 -0.9410  0.1699  1.6282
11445TIP3   OH255749   0.462   6.711  14.258  0.0851  0.1425 -0.3124
11445TIP3    H155750   0.511   6.791  14.276 -1.5302  0.9204  0.9671
11445TIP3    H255751   0.401   6.735  14.189  1.7445 -0.9713 -2.2868
11446TIP3   OH255752   3.668   3.013   4.943  0.1803  0.1212  0.1908
11446TIP3    H155753   3.715   3.083   4.989  1.9608 -0.2102 -1.0312
11446TIP3    H255754   3.736   2.956   4.909 -1.0721 -0.1494 -2.0840
11447TIP3   OH255755   4.776   1.012   2.728 -0.5130 -0.6458  0.4726
11447TIP3    H155756   4.691   1.040   2.694 -0.0439  1.2332  0.7250
11447TIP3    H255757   4.804   1.084   2.785  1.3369 -1.1189  0.2324
11448TIP3   OH255758   4.114   3.384  13.497  0.1914  0.8342  0.2915
11448TIP3    H155759   4.162   3.320  13.446 -0.2644 -0.6491  1.6268
11448TIP3    H255760   4.131   3.468  13.454  1.6237 -0.0347 -0.9162
11449TIP3   OH255761   1.630   5.561  14.713  0.2360  0.0407 -0.5567
11449TIP3    H155762   1.626   5.510  14.632  1.6460  1.2619 -1.4573
11449TIP3    H255763   1.660   5.648  14.685  4.1094 -0.3761  1.5634
11450TIP3   OH255764   3.097   0.842   2.109 -0.0023 -0.1193  0.5082
11450TIP3    H155765   3.099   0.796   2.025 -0.5201  1.8557 -0.6491
11450TIP3    H255766   3.021   0.806   2.154 -3.7630  2.9741 -2.5588
11451TIP3   OH255767   3.272   3.025   1.584 -0.5186  0.7523  0.0298
11451TIP3    H155768   3.278   3.112   1.543  0.7683 -0.1385 -1.8047
11451TIP3    H255769   3.332   3.030   1.658 -2.1672  2.0935  1.3770
11452TIP3   OH255770   3.891   3.068  13.001 -0.7851  0.2870  0.0554
11452TIP3    H155771   3.850   3.154  13.007 -0.3648  0.4854  0.1366
11452TIP3    H255772   3.843   3.023  12.932  0.0472  1.1778 -1.1408
11453TIP3   OH255773   6.770   6.762  16.249  0.3311 -0.1000  0.3622
11453TIP3    H155774   6.859   6.728  16.262  0.2659  0.1925  1.6492
11453TIP3    H255775   6.779   6.822  16.174  1.1417 -0.3369  0.2590
11454TIP3   OH255776   5.738   1.294  14.526  0.4282 -0.7484  0.7425
11454TIP3    H155777   5.790   1.344  14.590  1.1191 -1.2505  0.5827
11454TIP3    H255778   5.722   1.210  14.568  0.4187 -0.8826  0.4725
11455TIP3   OH255779   3.607   1.048   2.818 -0.0700  0.2297 -0.4820
11455TIP3    H155780   3.682   1.108   2.824 -0.3511  0.6820 -1.3585
11455TIP3    H255781   3.537   1.093   2.865  0.6822 -1.0439  2.0747
11456TIP3   OH255782   1.103   0.340   0.954  0.0995 -0.1450  0.1422
11456TIP3    H155783   1.085   0.248   0.974 -1.1457 -0.2324 -1.1710
11456TIP3    H255784   1.054   0.356   0.873 -0.5748  1.9651  0.9094
11457TIP3   OH255785   6.710   5.633  14.042 -0.4360  0.3297  0.2414
11457TIP3    H155786   6.734   5.711  14.093 -1.2227  0.3037  0.6629
11457TIP3    H255787   6.724   5.560  14.102  0.8901  0.0572 -0.3438
11458TIP3   OH255788   2.219   5.747  14.290 -0.2243  0.1306  0.4033
11458TIP3    H155789   2.210   5.741  14.195  0.3034  1.7439  0.2208
11458TIP3    H255790   2.184   5.664  14.323 -3.7261  0.8959 -0.9815
11459TIP3   OH255791   6.233   0.408   2.922  0.0458  0.0212  0.7286
11459TIP3    H155792   6.144   0.376   2.908  0.3023 -0.5528  0.3881
11459TIP3    H255793   6.288   0.329   2.921  0.9767  0.5422 -2.2896
11460TIP3   OH255794   5.471   0.644  15.307 -0.1227 -0.3606  0.6473
11460TIP3    H155795   5.533   0.599  15.364 -0.7119  0.1415  1.6985
11460TIP3    H255796   5.388   0.642  15.354 -0.9965 -1.2397 -0.8472
11461TIP3   OH255797   0.989   2.415   3.136  0.0610 -0.0833 -0.0584
11461TIP3    H155798   1.046   2.393   3.209 -1.9181 -0.4891  1.4343
11461TIP3    H255799   0.975   2.332   3.090  3.0056  0.4878 -2.3384
11462TIP3   OH255800   4.704   6.455  10.866  0.3697 -0.4518 -0.0965
11462TIP3    H155801   4.767   6.408  10.810  3.4309  2.4101  0.6182
11462TIP3    H255802   4.655   6.510  10.805 -0.8782 -1.9853 -0.5524
11463TIP3   OH255803   4.730   5.383   0.442 -0.2397  0.4674  0.3369
11463TIP3    H155804   4.676   5.350   0.514  2.2798  1.6793  3.0127
11463TIP3    H255805   4.778   5.307   0.411 -2.0970 -0.2771 -0.9143
11464TIP3   OH255806   1.627   1.619  13.469 -0.0907  0.0762  0.0034
11464TIP3    H155807   1.684   1.568  13.527  1.3669  1.9856  0.3200
11464TIP3    H255808   1.579   1.677  13.528  1.9544  2.5753 -0.6351
11465TIP3   OH255809   4.998   5.158  15.354  0.2234 -0.6861 -0.1502
11465TIP3    H155810   5.071   5.107  15.389  0.9791  0.3278 -0.2215
11465TIP3    H255811   4.940   5.092  15.314  0.2651 -1.6722  1.3207
11466TIP3   OH255812   2.754   0.657  12.784 -0.1135  0.1319 -0.2148
11466TIP3    H155813   2.689   0.590  12.764 -0.5523  0.2350  0.7979
11466TIP3    H255814   2.790   0.631  12.869 -0.4026  1.2558  0.2648
11467TIP3   OH255815   1.482   0.786  12.273 -0.0770  0.6279  0.1279
11467TIP3    H155816   1.450   0.822  12.190 -0.0751  1.0517  0.3039
11467TIP3    H255817   1.538   0.713  12.248 -0.0455  0.7753 -0.2441
11468TIP3   OH255818   3.947   2.439   5.439 -0.2760  0.9742  0.1063
11468TIP3    H155819   3.965   2.361   5.386 -1.5589  0.9231 -0.2906
11468TIP3    H255820   3.895   2.406   5.512  2.4883  0.8327  2.1564
11469TIP3   OH255821   3.135   3.975   2.854  0.0445 -1.0232 -0.6448
11469TIP3    H155822   3.081   3.948   2.780  0.7639 -0.7785 -1.2752
11469TIP3    H255823   3.079   3.964   2.931 -1.1967  0.0384 -1.3574
11470TIP3   OH255824   4.828   5.507   3.231  0.1408  0.1016  0.2835
11470TIP3    H155825   4.810   5.433   3.289 -2.9347  1.4322  1.2236
11470TIP3    H255826   4.765   5.496   3.159  1.9958  0.0118 -1.4127
11471TIP3   OH255827   5.232   5.762  11.142  0.3480  0.2916 -0.2797
11471TIP3    H155828   5.225   5.686  11.085  0.0885 -1.0501  1.4267
11471TIP3    H255829   5.246   5.724  11.229  3.0416  2.2621  0.2617
11472TIP3   OH255830   4.843   3.962   2.829 -0.1078 -0.4455  0.3280
11472TIP3    H155831   4.872   3.915   2.907  1.5909 -1.7371 -0.9900
11472TIP3    H255832   4.786   3.900   2.784  1.6764 -1.1253 -1.1258
11473TIP3   OH255833   2.868   3.492  11.050 -0.4951  0.2191  0.1834
11473TIP3    H155834   2.795   3.508  11.110 -0.0322 -0.7767  1.0486
11473TIP3    H255835   2.899   3.579  11.026 -2.7775  0.7153 -1.2528
11474TIP3   OH255836   4.041   5.377   2.770 -0.5620 -0.2309  0.7455
11474TIP3    H155837   4.039   5.394   2.864  1.8922  0.0572  0.8115
11474TIP3    H255838   3.995   5.293   2.760 -1.3303 -0.0105  2.1046
11475TIP3   OH255839   3.422   2.502  15.424 -0.1221 -0.2081  0.0210
11475TIP3    H155840   3.501   2.554  15.415  1.2964 -2.1987  0.3703
11475TIP3    H255841   3.391   2.520  15.513  1.6631 -1.6253  0.9888
11476TIP3   OH255842   0.302   6.051   5.433 -0.1499  0.5034 -0.1530
11476TIP3    H155843   0.339   6.105   5.502  0.3968 -0.2041  0.1287
11476TIP3    H255844   0.260   6.113   5.373  0.0810  1.1898  0.3845
11477TIP3   OH255845   2.928   4.185  12.094  0.0011 -0.3909  0.8603
11477TIP3    H155846   3.022   4.201  12.091 -0.0406 -0.0102  1.4646
11477TIP3    H255847   2.888   4.271  12.095 -0.2683 -0.4980  2.6870
11478TIP3   OH255848   1.149   4.012  11.379 -0.4625  0.7879  0.0115
11478TIP3    H155849   1.192   4.069  11.314  0.1458  1.3716  0.9019
11478TIP3    H255850   1.193   3.928  11.370  1.8225  1.6804  1.7179
11479TIP3   OH255851   3.497   4.995   1.491 -0.3177  0.3338 -0.2177
11479TIP3    H155852   3.525   5.086   1.477  1.8791  0.4604  3.6404
11479TIP3    H255853   3.428   5.001   1.557  1.2796 -0.7845  1.6527
11480TIP3   OH255854   5.733   1.642  16.427 -0.6963 -0.4155  0.5185
11480TIP3    H155855   5.698   1.604  16.507 -1.1963 -0.8434  0.0983
11480TIP3    H255856   5.771   1.568  16.380 -2.0388 -0.4981 -0.4942
11481TIP3   OH255857   6.171   6.006  13.049  1.1330  0.3018  0.3748
11481TIP3    H155858   6.177   5.911  13.046  0.3745  0.2139  1.1118
11481TIP3    H255859   6.085   6.023  13.088  1.0481  1.2909 -0.2061
11482TIP3   OH255860   3.386   0.375  12.662  0.3910 -0.0684 -0.5177
11482TIP3    H155861   3.478   0.357  12.678  0.0151 -0.4421  1.4459
11482TIP3    H255862   3.349   0.395  12.748 -1.3155  0.3243 -1.2846
11483TIP3   OH255863   2.172   0.161  11.092 -0.1687  0.0298 -0.8730
11483TIP3    H155864   2.174   0.161  11.188 -0.3399  0.3258 -0.8713
11483TIP3    H255865   2.261   0.183  11.066 -0.4093  1.1791 -0.7784
11484TIP3   OH255866   1.209   6.685   2.958  0.2703  0.4782  0.0624
11484TIP3    H155867   1.159   6.675   2.877  1.1266  2.2572 -0.7523
11484TIP3    H255868   1.250   6.600   2.972 -0.5189 -0.0952 -0.9311
11485TIP3   OH255869   0.954   2.234   2.193 -0.1631  0.1127 -0.1426
11485TIP3    H155870   0.980   2.251   2.284 -2.2959 -1.3835  0.8355
11485TIP3    H255871   1.030   2.192   2.154  0.4176 -0.2450  1.2904
11486TIP3   OH255872   0.108   4.912   6.561  0.3684 -0.4705  0.0088
11486TIP3    H155873   0.062   4.941   6.482 -0.4108 -0.5349  0.4229
11486TIP3    H255874   0.044   4.857   6.607  0.6630 -0.1079  0.8805
11487TIP3   OH255875   5.336   5.964   2.751 -0.2572  0.0514 -0.0980
11487TIP3    H155876   5.297   6.025   2.689 -0.3304 -0.3893 -0.4830
11487TIP3    H255877   5.397   5.911   2.699 -1.2445 -1.1595 -0.0499
11488TIP3   OH255878   3.069   5.908  15.448  0.5767 -0.1536 -0.0152
11488TIP3    H155879   2.986   5.864  15.471  0.2310 -0.3727 -1.5498
11488TIP3    H255880   3.111   5.924  15.532  0.0387 -2.1313  0.7078
11489TIP3   OH255881   0.016   1.940  15.787  0.7633 -0.7877 -0.1345
11489TIP3    H155882   0.038   1.939  15.694  0.3449 -1.5799 -0.2379
11489TIP3    H255883   0.101   1.933  15.832  0.8761 -1.9626 -0.4961
11490TIP3   OH255884   5.115   0.657   0.041 -0.6546 -0.3085  0.2535
11490TIP3    H155885   5.032   0.615   0.017 -0.5081 -1.1876  1.2033
11490TIP3    H255886   5.090   0.729   0.099 -0.7743 -0.4339  0.3583
11491TIP3   OH255887   1.852   3.855  12.318 -0.6007  0.1856  0.5535
11491TIP3    H155888   1.802   3.789  12.269 -2.1835  2.3249 -0.8647
11491TIP3    H255889   1.820   3.847  12.408 -0.7456 -0.9646  0.4205
11492TIP3   OH255890   3.779   2.958   2.584 -0.1104 -0.4145 -0.0616
11492TIP3    H155891   3.760   2.982   2.674  1.1647  1.0598 -0.1423
11492TIP3    H255892   3.800   2.864   2.588 -2.7739 -1.0872  0.6690
11493TIP3   OH255893   4.715   3.364  10.932  0.6367 -0.0748 -0.2229
11493TIP3    H155894   4.796   3.415  10.941  0.0141  1.0601 -0.8127
11493TIP3    H255895   4.645   3.430  10.935 -0.2449 -0.9938 -0.1353
11494TIP3   OH255896   2.021   2.836  14.963  0.0928  0.4538  0.0626
11494TIP3    H155897   2.003   2.866  15.052 -0.8899 -0.2602  0.1082
11494TIP3    H255898   2.090   2.896  14.932 -0.3112  1.3911  0.9102
11495TIP3   OH255899   6.754   2.793   5.665  0.1200  0.1353 -0.4545
11495TIP3    H155900   6.741   2.748   5.749 -0.4930 -1.5759 -1.4245
11495TIP3    H255901   6.847   2.815   5.665  0.0508  0.5147  0.8395
11496TIP3   OH255902   0.564   0.748  10.991  0.1439 -0.1755 -0.6106
11496TIP3    H155903   0.505   0.697  11.046  0.5986  0.3045  0.3351
11496TIP3    H255904   0.540   0.723  10.901 -0.5803 -0.9895 -0.2073
11497TIP3   OH255905   0.194   1.955   5.768  0.0896 -0.6394  0.9132
11497TIP3    H155906   0.140   2.028   5.798  0.7022 -0.2189  1.0115
11497TIP3    H255907   0.274   1.996   5.735 -0.3931 -1.1106 -0.9390
11498TIP3   OH255908   1.451   5.567  13.476 -0.3751  0.3475  0.5647
11498TIP3    H155909   1.392   5.599  13.408 -0.5459  0.4254  0.7479
11498TIP3    H255910   1.506   5.502  13.432 -0.3425  0.5515  0.3032
11499TIP3   OH255911   4.008   2.359  14.070  0.1051  0.3615 -0.6991
11499TIP3    H155912   4.091   2.407  14.072 -0.5281  1.5623 -1.8119
11499TIP3    H255913   3.954   2.407  14.008 -0.9967 -1.1326 -0.9505
11500TIP3   OH255914   4.884   6.417   2.551  0.1987 -0.1997  0.7340
11500TIP3    H155915   4.924   6.370   2.624 -1.2217 -1.7658  0.5449
11500TIP3    H255916   4.802   6.451   2.586  0.2337  0.3683  0.2817
11501TIP3   OH255917   1.764   2.824   1.637  0.0149  0.5174  0.1021
11501TIP3    H155918   1.723   2.830   1.723 -0.1000 -1.5143  0.2337
11501TIP3    H255919   1.804   2.910   1.624 -0.7402  1.1717  1.7730
11502TIP3   OH255920   0.393   3.921  11.823  0.0600 -0.0493 -0.1693
11502TIP3    H155921   0.382   4.015  11.842 -0.7488  0.1376 -1.4150
11502TIP3    H255922   0.304   3.890  11.805  0.6011 -0.2815 -2.9836
11503TIP3   OH255923   2.525   4.343   3.339  0.1626  0.1233  0.4721
11503TIP3    H155924   2.597   4.393   3.377  0.5767  1.0652 -1.4414
11503TIP3    H255925   2.448   4.398   3.352  0.1055 -0.0315  0.8254
11504TIP3   OH255926   1.810   3.151  15.087  0.0954 -0.1087  0.3646
11504TIP3    H155927   1.876   3.137  15.019 -0.6919  0.1918 -0.4745
11504TIP3    H255928   1.732   3.181  15.040 -0.2817  0.7037  1.4559
11505TIP3   OH255929   4.933   0.041   1.683  0.6575 -0.5217  0.1164
11505TIP3    H155930   4.957   0.107   1.617  0.9846  0.3285  1.0560
11505TIP3    H255931   4.841   0.023   1.667  0.5111  0.3222 -0.0255
11506TIP3   OH255932   4.089   1.830  13.091  0.1411 -0.0731  0.2675
11506TIP3    H155933   4.152   1.901  13.078 -0.8867  0.3859 -3.0559
11506TIP3    H255934   4.128   1.755  13.047 -0.4273 -0.5783  0.5991
11507TIP3   OH255935   4.305   2.577   1.437 -0.5701  0.1060  0.2680
11507TIP3    H155936   4.244   2.569   1.364 -0.4777 -0.5796  0.2616
11507TIP3    H255937   4.256   2.623   1.505 -0.5450  1.0668 -0.3454
11508TIP3   OH255938   1.472   2.518  11.787  0.3638  0.0421 -0.1238
11508TIP3    H155939   1.535   2.472  11.843  0.5403 -1.9492 -1.8117
11508TIP3    H255940   1.414   2.449  11.756 -1.0584  1.4411 -0.6715
11509TIP3   OH255941   1.890   3.827   6.214 -0.1979  0.4921 -0.0047
11509TIP3    H155942   1.846   3.882   6.279  0.2988  0.4645  0.3574
11509TIP3    H255943   1.981   3.856   6.216  0.1769 -0.6854  0.5382
11510TIP3   OH255944   0.422   5.125  11.773  0.2071 -0.2721  0.0420
11510TIP3    H155945   0.441   5.164  11.859 -0.0706  2.6223 -1.0709
11510TIP3    H255946   0.328   5.139  11.761  0.4901  0.7004 -1.2850
11511TIP3   OH255947   4.956   5.658  14.411 -0.0887  0.8170  0.6562
11511TIP3    H155948   5.008   5.611  14.475  0.4722 -1.1109 -1.1060
11511TIP3    H255949   4.880   5.689  14.460 -0.5896 -2.0920  1.9516
11512TIP3   OH255950   2.135   6.224  16.264 -0.4202  0.5195  0.2223
11512TIP3    H155951   2.167   6.306  16.227  0.0939  0.5061  0.6133
11512TIP3    H255952   2.064   6.250  16.322 -1.1730  0.5464 -0.6997
11513TIP3   OH255953   3.493   5.759   1.192 -0.5791 -0.0014 -0.0840
11513TIP3    H155954   3.570   5.704   1.204 -1.3359 -0.8875  0.8369
11513TIP3    H255955   3.497   5.823   1.263 -0.1936  0.5748 -0.6098
11514TIP3   OH255956   0.637   0.773   0.763 -0.5079  0.2437  0.2467
11514TIP3    H155957   0.588   0.855   0.765  0.9213  1.2275 -1.6360
11514TIP3    H255958   0.666   0.765   0.672  0.8823 -1.4437  0.7859
11515TIP3   OH255959   4.824   1.212   2.936  0.3731  0.2444  0.1816
11515TIP3    H155960   4.833   1.300   2.972  0.2529  0.7921 -1.0682
11515TIP3    H255961   4.768   1.165   2.998  0.1084  1.1692  0.6482
11516TIP3   OH255962   3.168   3.192   5.757  0.0677 -0.4654  0.1696
11516TIP3    H155963   3.192   3.106   5.722  0.5076 -0.5229  0.6055
11516TIP3    H255964   3.132   3.238   5.681 -2.2000 -1.7583  0.3815
11517TIP3   OH255965   6.635   2.929  14.853  0.3910  0.2024 -0.3796
11517TIP3    H155966   6.665   2.930  14.762 -1.8727 -0.4019 -1.2116
11517TIP3    H255967   6.550   2.885  14.849 -0.0522  0.7264  1.9509
11518TIP3   OH255968   4.285   5.254  14.129  0.3363  0.3429  0.0402
11518TIP3    H155969   4.197   5.267  14.095  0.4572  1.0894 -0.0003
11518TIP3    H255970   4.288   5.161  14.153 -0.3433  0.2336 -0.2747
11519TIP3   OH255971   4.400   4.968   4.618  0.2013 -0.8970 -0.1141
11519TIP3    H155972   4.320   4.922   4.593 -0.1458 -0.4001  0.0610
11519TIP3    H255973   4.471   4.913   4.586 -0.2232 -0.6110 -1.6385
11520TIP3   OH255974   4.909   3.162   2.892 -0.1562  0.2929  0.1112
11520TIP3    H155975   4.845   3.117   2.836  0.2839  0.8456 -0.8652
11520TIP3    H255976   4.963   3.091   2.928  0.1919 -0.0187 -0.9788
11521TIP3   OH255977   0.266   2.549   0.519 -0.4435 -0.2674 -0.2578
11521TIP3    H155978   0.306   2.512   0.598 -0.6983  0.1869  0.0847
11521TIP3    H255979   0.340   2.567   0.461 -0.3436 -1.7540 -0.6261
11522TIP3   OH255980   2.017   5.075   5.859 -0.8529 -0.1278  0.0847
11522TIP3    H155981   2.048   5.004   5.916 -1.3277 -0.1814  0.2825
11522TIP3    H255982   2.096   5.125   5.838 -0.4382 -0.9436 -0.3765
11523TIP3   OH255983   4.926   0.771  12.991 -0.0148 -0.5338  0.2716
11523TIP3    H155984   5.004   0.737  12.947  0.3282 -1.4806  1.5687
11523TIP3    H255985   4.863   0.699  12.988 -0.0001 -0.5971  1.2733
11524TIP3   OH255986   1.460   4.530  13.539 -0.3297  0.0561  0.6027
11524TIP3    H155987   1.382   4.568  13.579  0.3998  0.4014  1.7395
11524TIP3    H255988   1.533   4.582  13.573  0.4748 -0.7902  0.2342
11525TIP3   OH255989   0.387   5.683   5.365 -0.0686 -0.7467  0.1607
11525TIP3    H155990   0.437   5.630   5.427 -0.7531 -0.9475  0.5373
11525TIP3    H255991   0.448   5.753   5.340  0.1422 -0.5337  1.2162
11526TIP3   OH255992   5.200   2.939  15.113 -0.0957 -0.0392 -0.0187
11526TIP3    H155993   5.260   3.013  15.106 -0.9074  0.7364  1.0214
11526TIP3    H255994   5.216   2.904  15.200 -0.5808 -0.3350 -0.0444
11527TIP3   OH255995   0.864   6.023   3.468  0.2665  0.3191 -0.6231
11527TIP3    H155996   0.788   6.058   3.421  0.7495  0.2671 -1.4534
11527TIP3    H255997   0.933   6.087   3.454  0.3184  0.4924  0.3508
11528TIP3   OH255998   6.605   4.627  11.344 -0.5722 -0.6207  0.2479
11528TIP3    H155999   6.611   4.665  11.257 -1.5496  1.8218  1.1667
11528TIP3    H256000   6.590   4.701  11.402  0.0552 -2.1593  2.5316
11529TIP3   OH256001   6.439   1.183   4.900  0.7649  0.3622  0.0358
11529TIP3    H156002   6.461   1.144   4.985  1.2098  0.3850 -0.0706
11529TIP3    H256003   6.503   1.147   4.839  1.6911  1.8530  0.0743
11530TIP3   OH256004   5.419   3.503  16.655  0.8177 -0.3564  0.1908
11530TIP3    H156005   5.452   3.565  16.719  0.8873  2.7569 -2.5983
11530TIP3    H256006   5.484   3.503  16.585 -0.6025 -1.3504 -1.2227
11531TIP3   OH256007   2.181   2.510  13.431  0.1664 -0.0750 -0.0357
11531TIP3    H156008   2.137   2.541  13.352  0.3471 -0.3625 -0.2517
11531TIP3    H256009   2.241   2.442  13.400  0.2713 -0.1577  0.3422
11532TIP3   OH256010   0.192   5.849   2.718  0.5416  0.5425  0.3030
11532TIP3    H156011   0.225   5.840   2.808  0.1407  2.0309  0.6321
11532TIP3    H256012   0.196   5.943   2.701 -1.9075  0.6225 -0.2336
11533TIP3   OH256013   3.642   1.011  10.359  0.3814  0.0663  0.0023
11533TIP3    H156014   3.571   0.960  10.397  0.8766 -0.6346  0.0036
11533TIP3    H256015   3.617   1.102  10.374  0.0994 -0.1811  1.1407
11534TIP3   OH256016   1.931   1.561  13.946  0.0032 -0.2684  0.3544
11534TIP3    H156017   1.935   1.656  13.935 -0.6817 -0.3354 -0.5491
11534TIP3    H256018   1.849   1.546  13.993 -0.9905 -0.5487 -1.3945
11535TIP3   OH256019   3.156   2.611   5.062  0.4223  0.2295 -0.4053
11535TIP3    H156020   3.214   2.541   5.030 -0.5535 -0.8008 -0.0054
11535TIP3    H256021   3.210   2.660   5.124  0.8877 -0.6901 -0.0617
11536TIP3   OH256022   3.571   6.029   0.028  0.5590 -0.2983  0.0514
11536TIP3    H156023   3.644   6.041  -0.033  1.0569  2.0773  0.9902
11536TIP3    H256024   3.494   6.061  -0.019  0.5999 -0.2593  0.0111
11537TIP3   OH256025   0.205   0.072  14.588 -0.4480  0.0307  0.0058
11537TIP3    H156026   0.226  -0.018  14.561 -0.7203  0.0159 -0.1705
11537TIP3    H256027   0.109   0.072  14.596 -0.3100 -0.3480  2.3667
11538TIP3   OH256028   0.423   1.212  13.987  0.0990  0.2144  0.0427
11538TIP3    H156029   0.457   1.172  13.908 -0.5903 -2.2986  0.9289
11538TIP3    H256030   0.340   1.167  14.004 -2.5780  4.3038 -0.6320
11539TIP3   OH256031   4.737   4.999   5.461 -0.2172  0.1202 -0.4037
11539TIP3    H156032   4.672   4.931   5.445 -0.7958  0.5637 -0.0270
11539TIP3    H256033   4.723   5.024   5.553  0.7317 -0.0256 -0.2115
11540TIP3   OH256034   0.423   5.555   2.319 -0.0998 -0.6450 -0.1374
11540TIP3    H156035   0.359   5.567   2.389 -0.2185 -1.2494 -0.1398
11540TIP3    H256036   0.462   5.642   2.307 -1.7443  0.0310 -0.9420
11541TIP3   OH256037   0.385   0.807   2.285 -0.0523 -0.1287 -0.0484
11541TIP3    H156038   0.341   0.781   2.204  1.8958  1.0592 -1.5712
11541TIP3    H256039   0.335   0.882   2.317 -0.1953  0.0939 -0.7797
11542TIP3   OH256040   0.161   0.904   5.625  0.2233 -0.0563  0.1834
11542TIP3    H156041   0.238   0.952   5.654 -1.5252  3.0218  0.1776
11542TIP3    H256042   0.175   0.891   5.531  0.1334  1.8684 -0.1365
11543TIP3   OH256043   0.971   0.089   0.882  0.1915  0.1407  0.0424
11543TIP3    H156044   0.917   0.030   0.935  1.7501 -0.0747  1.4780
11543TIP3    H256045   0.908   0.144   0.837 -1.2527 -0.2393  1.4803
11544TIP3   OH256046   1.113   5.307   3.389  0.4178  0.3522  0.4465
11544TIP3    H156047   1.062   5.283   3.312  0.5526 -0.0552  0.4822
11544TIP3    H256048   1.139   5.398   3.373  1.3820 -0.0664 -0.5133
11545TIP3   OH256049   6.405   0.290  13.019 -0.0493 -0.3101 -0.6897
11545TIP3    H156050   6.489   0.315  13.059  0.1097 -0.0748 -1.1562
11545TIP3    H256051   6.430   0.230  12.949 -0.0813  1.2432 -2.0969
11546TIP3   OH256052   5.477   4.720   2.113  0.0175  0.0846  0.4846
11546TIP3    H156053   5.536   4.788   2.148  0.4768  0.8308 -1.5848
11546TIP3    H256054   5.525   4.638   2.125  0.9527  0.5391 -0.0132
11547TIP3   OH256055   2.262   5.676   3.093 -0.4370  0.1327  0.2874
11547TIP3    H156056   2.297   5.764   3.076  1.5567 -0.4031  1.2605
11547TIP3    H256057   2.298   5.622   3.023  2.3547 -0.7773  2.2615
11548TIP3   OH256058   2.859   2.289   0.925 -0.3368 -0.2229 -0.2293
11548TIP3    H156059   2.862   2.323   0.836 -0.0762 -0.3690 -0.2774
11548TIP3    H256060   2.768   2.297   0.951 -0.3179  0.3128 -0.3180
11549TIP3   OH256061   2.900   5.905  16.344 -0.6529 -0.3989  0.2315
11549TIP3    H156062   2.857   5.852  16.411 -1.2597  0.7930  0.8114
11549TIP3    H256063   2.874   5.995  16.364  1.4296  0.2876  0.1121
11550TIP3   OH256064   6.077   3.248   0.359 -0.2578 -0.1633  0.1164
11550TIP3    H156065   6.089   3.277   0.269 -0.4338  0.8931  0.4084
11550TIP3    H256066   6.020   3.172   0.354 -2.8724  1.7137 -0.4690
11551TIP3   OH256067   5.115   1.476  14.826 -0.6003 -0.4049 -0.0493
11551TIP3    H156068   5.050   1.545  14.843 -0.3092 -0.1225 -0.0702
11551TIP3    H256069   5.106   1.458  14.732 -0.4138 -0.1156 -0.1278
11552TIP3   OH256070   6.059   1.330  13.542  0.2195  0.2510  0.0108
11552TIP3    H156071   6.074   1.250  13.591 -1.0455  0.2335  0.3866
11552TIP3    H256072   6.067   1.400  13.607  0.1534  0.3499 -0.0881
11553TIP3   OH256073   5.132   0.347  11.630 -0.3404 -0.0027 -0.0174
11553TIP3    H156074   5.069   0.337  11.702 -1.9985  2.8166 -0.9109
11553TIP3    H256075   5.094   0.296  11.558 -2.4702  2.6929 -0.9566
11554TIP3   OH256076   4.976   2.105  12.115 -0.0725 -0.3387 -0.8211
11554TIP3    H156077   4.996   2.187  12.160 -0.2375 -0.9009  0.3339
11554TIP3    H256078   5.051   2.090  12.058  2.4600 -1.7642  2.4794
11555TIP3   OH256079   0.315   2.114  14.578 -0.6433  0.1508  0.2437
11555TIP3    H156080   0.370   2.060  14.635  0.8415  0.2038 -1.0777
11555TIP3    H256081   0.358   2.199  14.576  0.3409 -0.3245 -2.2474
11556TIP3   OH256082   4.172   6.065   1.136  0.4286 -0.4266  0.1257
11556TIP3    H156083   4.209   6.019   1.061  0.0402 -2.5588  1.1817
11556TIP3    H256084   4.077   6.063   1.121  0.3925 -0.2499  0.3307
11557TIP3   OH256085   3.320   3.382   2.460  0.4230  0.3158  0.0572
11557TIP3    H156086   3.324   3.405   2.553 -2.2468  0.9257  0.0898
11557TIP3    H256087   3.405   3.341   2.442  0.7715 -0.4111  2.9086
11558TIP3   OH256088   5.341   2.916   1.605 -0.3759 -0.0258 -0.7312
11558TIP3    H156089   5.321   2.823   1.608  1.4390 -0.4509 -1.0280
11558TIP3    H256090   5.259   2.957   1.574 -1.0409 -1.5490 -1.0740
11559TIP3   OH256091   3.870   6.538   3.028 -0.2233 -0.1348  0.1428
11559TIP3    H156092   3.883   6.625   3.065  0.9347 -0.6035  0.8774
11559TIP3    H256093   3.830   6.487   3.098 -4.9136  0.7912 -1.5081
11560TIP3   OH256094   4.552   4.821  13.297  0.0575 -0.0371 -0.0634
11560TIP3    H156095   4.546   4.858  13.384 -0.1393  0.2369 -0.1931
11560TIP3    H256096   4.640   4.782  13.293  0.2417  0.3560  0.0954
11561TIP3   OH256097   1.665   1.575  11.669  0.4681  0.0831  0.0983
11561TIP3    H156098   1.710   1.528  11.740 -1.0522 -1.3362  0.1733
11561TIP3    H256099   1.733   1.631  11.631  1.3396  0.9266  2.6825
11562TIP3   OH256100   3.236   1.775  11.845  0.1459  0.0948  0.8070
11562TIP3    H156101   3.167   1.709  11.843  0.4686 -0.2359  0.5442
11562TIP3    H256102   3.294   1.747  11.916  1.3618 -1.0173 -0.5577
11563TIP3   OH256103   1.815   3.662   3.904  0.1880 -0.1016  0.3796
11563TIP3    H156104   1.773   3.738   3.864  0.6696 -0.2282 -0.3913
11563TIP3    H256105   1.873   3.698   3.971  0.9821  0.2709 -0.4966
11564TIP3   OH256106   1.219   3.317  13.703 -0.3946 -0.2556  0.0242
11564TIP3    H156107   1.247   3.304  13.613 -1.3853 -2.9548  0.0321
11564TIP3    H256108   1.301   3.325  13.752  0.1576  0.7435 -1.0112
11565TIP3   OH256109   1.379   2.419  12.084  0.5241  0.2421  0.1063
11565TIP3    H156110   1.455   2.473  12.064 -1.2393  2.2820 -1.5995
11565TIP3    H256111   1.383   2.347  12.021  0.2143  1.2464 -1.0903
11566TIP3   OH256112   4.694   2.811  13.617  0.3108  0.1734  0.4314
11566TIP3    H156113   4.627   2.795  13.683 -0.8251 -2.4859 -1.2212
11566TIP3    H256114   4.660   2.884  13.566 -0.9730 -0.6193  0.1163
11567TIP3   OH256115   2.301   6.593  14.744 -0.4869 -0.0882 -0.2886
11567TIP3    H156116   2.268   6.672  14.701 -0.1644 -0.9273 -2.2029
11567TIP3    H256117   2.224   6.538  14.754 -0.9517  0.8724  2.1846
11568TIP3   OH256118   1.736   4.589  12.044  0.2475  0.5386 -0.1368
11568TIP3    H156119   1.690   4.507  12.025  0.1773  0.7824 -1.0930
11568TIP3    H256120   1.825   4.574  12.012  0.7239  0.2478  1.2473
11569TIP3   OH256121   2.707   1.452  12.317  0.0399  0.4202  0.0129
11569TIP3    H156122   2.707   1.401  12.237 -0.5855 -0.4927  0.5663
11569TIP3    H256123   2.671   1.537  12.292  2.0202  0.9841 -1.1226
11570TIP3   OH256124   0.165   5.926  13.785  0.2121 -0.4270 -0.5399
11570TIP3    H156125   0.154   5.966  13.699  1.1421  0.2971 -0.3359
11570TIP3    H256126   0.107   5.976  13.843  1.2296  0.5406 -0.3237
11571TIP3   OH256127   3.150   1.536   5.680  0.1503  0.5200 -0.3743
11571TIP3    H156128   3.064   1.569   5.706  0.2413  0.2756  0.2713
11571TIP3    H256129   3.142   1.441   5.687  0.0832  0.4296 -1.5834
11572TIP3   OH256130   3.438   3.485  12.346 -0.5674  0.3712  0.0707
11572TIP3    H156131   3.438   3.400  12.303  0.6983  0.4387 -0.1100
11572TIP3    H256132   3.409   3.546  12.278  1.1208  0.4339 -0.6354
11573TIP3   OH256133   3.307   2.747   3.293 -0.4386  0.4093  0.3270
11573TIP3    H156134   3.323   2.664   3.338  0.5267 -0.1905 -1.0435
11573TIP3    H256135   3.221   2.737   3.252 -1.0068  0.6936  1.4186
11574TIP3   OH256136   2.211   2.134  15.750 -0.0153  0.0153 -0.2536
11574TIP3    H156137   2.128   2.096  15.721 -0.2474 -0.0934  0.5234
11574TIP3    H256138   2.216   2.218  15.706 -1.4116  0.8346  1.0494
11575TIP3   OH256139   0.209   2.297  16.746 -0.9870  0.4081  0.1169
11575TIP3    H156140   0.156   2.223  16.776 -0.8480  0.1292 -0.3325
11575TIP3    H256141   0.145   2.363  16.720 -1.1183  0.8026  1.3710
11576TIP3   OH256142   1.861   4.417  16.189 -0.2902  0.1800 -0.8629
11576TIP3    H156143   1.787   4.399  16.131 -1.3067  0.8212  0.1821
11576TIP3    H256144   1.887   4.506  16.168 -1.6414  0.9853  0.6214
11577TIP3   OH256145   4.800   1.498   2.796 -0.0911 -0.0222  0.3158
11577TIP3    H156146   4.848   1.551   2.732  0.6169 -0.5454  0.3999
11577TIP3    H256147   4.861   1.488   2.870 -0.8730  0.5285  1.0626
11578TIP3   OH256148   2.198   6.304  12.062 -0.3973  0.0451  0.0772
11578TIP3    H156149   2.293   6.304  12.052 -0.5054 -1.7824 -1.5363
11578TIP3    H256150   2.183   6.311  12.156  1.4000 -1.7991  0.5717
11579TIP3   OH256151   0.302   3.712  13.292 -0.0320 -0.0699 -0.2132
11579TIP3    H156152   0.282   3.625  13.259 -3.0384  0.6129 -0.5312
11579TIP3    H256153   0.349   3.755  13.221 -1.0384 -0.5681 -1.2120
11580TIP3   OH256154   2.856   1.462  15.785  0.8059 -0.3067  0.2047
11580TIP3    H156155   2.796   1.469  15.859 -0.4621 -0.5441 -0.7668
11580TIP3    H256156   2.876   1.553  15.762 -1.6529 -0.0893 -1.3718
11581TIP3   OH256157   0.251   3.610   2.402  0.1814  0.2837 -0.0593
11581TIP3    H156158   0.179   3.557   2.368  0.3287  0.4723 -0.6755
11581TIP3    H256159   0.227   3.627   2.493  0.8813 -2.2127  0.6994
11582TIP3   OH256160   3.615   0.299   3.107 -0.5677 -0.5470  0.2490
11582TIP3    H156161   3.665   0.376   3.080  3.0584 -2.1742  1.5495
11582TIP3    H256162   3.591   0.316   3.197 -1.9374 -0.0049 -0.2005
11583TIP3   OH256163   0.495   0.434  17.087 -0.2421  0.2891 -0.0844
11583TIP3    H156164   0.432   0.443  17.015 -0.2302  0.4097 -0.0787
11583TIP3    H256165   0.540   0.518  17.090 -0.6933  0.5214  0.4853
11584TIP3   OH256166   5.955   0.621   5.885 -0.1068  0.1476  0.1884
11584TIP3    H156167   5.880   0.655   5.836  0.0175  0.9462  0.5443
11584TIP3    H256168   5.916   0.566   5.952 -0.3124 -0.3829 -0.3515
11585TIP3   OH256169   1.102   1.892   6.485  0.5048  0.9566  0.8689
11585TIP3    H156170   1.056   1.933   6.558 -0.3105  0.1393  0.8269
11585TIP3    H256171   1.154   1.822   6.525 -0.4790  0.0475  0.6242
11586TIP3   OH256172   0.646   4.337   0.152 -0.8303 -0.1201 -0.1499
11586TIP3    H156173   0.648   4.426   0.188 -0.1074 -0.6281  1.1338
11586TIP3    H256174   0.561   4.302   0.180 -0.7708 -0.1088  0.0473
11587TIP3   OH256175   1.150   1.552  15.486 -0.1694  0.1894  0.0585
11587TIP3    H156176   1.156   1.645  15.463 -1.4217 -0.2800 -2.5113
11587TIP3    H256177   1.220   1.510  15.435 -1.4317 -0.5894 -1.0967
11588TIP3   OH256178   1.254   5.184   1.794 -0.0819  0.0878 -0.3742
11588TIP3    H156179   1.241   5.279   1.795 -1.2677 -0.0632 -0.1237
11588TIP3    H256180   1.325   5.169   1.856  0.7662  0.8882 -1.1191
11589TIP3   OH256181   3.227   3.478   5.859  0.0187  0.0238 -0.1391
11589TIP3    H156182   3.233   3.402   5.801  2.3645  0.6805 -0.8320
11589TIP3    H256183   3.256   3.446   5.944  0.5815  0.0251 -0.3272
11590TIP3   OH256184   6.558   5.705   2.814  0.5442 -0.1323 -0.5346
11590TIP3    H156185   6.652   5.720   2.821  0.2421  1.1971  1.8669
11590TIP3    H256186   6.542   5.626   2.866  0.1975  0.4441  0.2587
11591TIP3   OH256187   0.797   6.387  16.899 -0.2638 -0.5264 -0.3474
11591TIP3    H156188   0.781   6.398  16.805  2.0809 -0.4403 -0.7985
11591TIP3    H256189   0.891   6.372  16.905 -0.6450 -2.5934  1.8250
11592TIP3   OH256190   6.007   5.315  12.964 -0.3477 -0.2630 -0.2889
11592TIP3    H156191   6.000   5.364  12.882 -1.4221 -0.7538 -0.5087
11592TIP3    H256192   6.099   5.288  12.968 -0.2597 -0.1479 -1.2922
11593TIP3   OH256193   2.778   1.022  16.835 -0.7661  0.1066 -0.4098
11593TIP3    H156194   2.687   0.992  16.826 -0.9680 -0.4828  2.4811
11593TIP3    H256195   2.772   1.096  16.895  0.5725  0.7591 -1.0670
11594TIP3   OH256196   3.469   4.024  11.164  0.6308  0.0860  0.2201
11594TIP3    H156197   3.391   3.973  11.185  0.9205 -1.3464 -1.8199
11594TIP3    H256198   3.443   4.115  11.179 -1.4679 -0.3446 -0.3946
11595TIP3   OH256199   1.826   5.385  16.459  0.0368 -0.0372  0.0143
11595TIP3    H156200   1.794   5.465  16.501  0.6357 -0.0884  0.5712
11595TIP3    H256201   1.785   5.386  16.372 -1.2198  0.0671  0.5881
11596TIP3   OH256202   4.671   0.694   4.280  0.2387  0.2972  0.0158
11596TIP3    H156203   4.661   0.707   4.185  0.0699  1.1037  0.1323
11596TIP3    H256204   4.701   0.604   4.289 -2.7698 -0.8862 -0.6204
11597TIP3   OH256205   4.807   3.451  14.093  0.1995 -0.1431 -0.0973
11597TIP3    H156206   4.853   3.423  14.014  0.8605 -0.4453  0.3868
11597TIP3    H256207   4.870   3.439  14.164 -0.5160 -0.2595  0.5380
11598TIP3   OH256208   1.049   4.759   1.639  0.0335 -0.2223 -0.0572
11598TIP3    H156209   1.122   4.795   1.590 -0.4273  0.0528 -0.5466
11598TIP3    H256210   1.006   4.699   1.579  0.1646 -0.7871  0.4036
11599TIP3   OH256211   2.745   5.743  16.512  0.3129 -0.2747  0.4164
11599TIP3    H156212   2.649   5.742  16.520  0.1890  1.8427 -0.2442
11599TIP3    H256213   2.769   5.651  16.513 -2.0966 -1.1747 -3.1119
11600TIP3   OH256214   2.639   4.751  11.177 -0.0558  0.6409  0.4475
11600TIP3    H156215   2.573   4.690  11.210 -0.4644  0.1868 -1.1334
11600TIP3    H256216   2.720   4.700  11.175  0.3513  1.1397  2.1967
11601TIP3   OH256217   5.885   3.069  14.572 -0.3576 -0.9269  0.5530
11601TIP3    H156218   5.855   3.110  14.653  0.6875  2.7068 -0.6969
11601TIP3    H256219   5.808   3.069  14.515 -0.8206 -2.4765  1.1558
11602TIP3   OH256220   6.652   4.640  16.142  0.4976  0.8328  0.4055
11602TIP3    H156221   6.644   4.729  16.174 -2.0097  0.2857  1.5885
11602TIP3    H256222   6.589   4.590  16.194  1.3414 -1.5101 -0.6657
11603TIP3   OH256223   5.661   1.009  13.591  0.1541  0.0724 -0.2309
11603TIP3    H156224   5.629   0.919  13.598  0.8464 -0.0884  1.3079
11603TIP3    H256225   5.620   1.054  13.665 -0.1864  1.0442 -0.9871
11604TIP3   OH256226   0.077   1.894  14.922 -0.2219 -0.0074  0.5223
11604TIP3    H156227  -0.010   1.910  14.884 -1.0585 -0.4041  2.1978
11604TIP3    H256228   0.126   1.852  14.851 -2.3658 -2.6298  0.4116
11605TIP3   OH256229   3.179   5.009  11.940  0.2321  0.5259 -0.0183
11605TIP3    H156230   3.233   4.931  11.954  0.7941  0.9670  0.2744
11605TIP3    H256231   3.239   5.082  11.949 -0.3328  1.0082 -0.1177
11606TIP3   OH256232   2.606   1.907  13.233  0.0015 -0.7255  0.5278
11606TIP3    H156233   2.599   2.001  13.217 -2.1917 -0.7348  1.1069
11606TIP3    H256234   2.596   1.898  13.327  0.8684 -1.5076  0.5520
11607TIP3   OH256235   4.745   5.828  15.149  0.3145  0.6997  0.0520
11607TIP3    H156236   4.654   5.800  15.156  0.1794  1.2563  0.5346
11607TIP3    H256237   4.780   5.819  15.237  0.9125 -0.1164 -0.2525
11608TIP3   OH256238   6.429   1.026  14.396  0.0539  0.1675  0.3251
11608TIP3    H156239   6.498   0.961  14.405  0.3227  0.5431  1.0836
11608TIP3    H256240   6.475   1.109  14.383 -0.2734  0.2898 -0.0899
11609TIP3   OH256241   3.743   2.576   5.837  0.1779  0.1035  0.3918
11609TIP3    H156242   3.726   2.507   5.772  1.2293 -0.6408  0.8769
11609TIP3    H256243   3.712   2.538   5.919  0.2554  0.4364  0.5742
11610TIP3   OH256244   5.252   5.493   2.987 -0.5374 -0.2153  0.7253
11610TIP3    H156245   5.291   5.578   2.965  1.3602 -0.3819  2.9872
11610TIP3    H256246   5.243   5.496   3.083  0.9012 -3.0358  1.0515
11611TIP3   OH256247   4.550   5.797   3.908  0.1396 -0.4537  0.2756
11611TIP3    H156248   4.472   5.745   3.892 -0.7331  0.4273  1.4894
11611TIP3    H256249   4.586   5.761   3.990  1.2158 -1.0606 -0.4316
11612TIP3   OH256250   0.526   2.051   4.367  0.2016 -0.1866 -0.9780
11612TIP3    H156251   0.469   1.978   4.390  0.2863 -0.4570 -1.6211
11612TIP3    H256252   0.615   2.016   4.376  0.3029  0.3886  0.5530
11613TIP3   OH256253   5.020   5.063  13.190  0.2190 -0.1788  0.5201
11613TIP3    H156254   4.977   5.122  13.252 -0.9375  1.2859 -1.5337
11613TIP3    H256255   4.971   4.981  13.198 -0.3057  0.1811  1.1176
11614TIP3   OH256256   1.697   5.872  14.333 -0.5075  0.6450  0.1761
11614TIP3    H156257   1.622   5.919  14.296  0.4506  2.1728  0.0669
11614TIP3    H256258   1.708   5.796  14.276 -3.0007 -0.6002  1.2111
11615TIP3   OH256259   4.996   6.359   0.980  0.1354 -0.2488  0.4590
11615TIP3    H156260   5.007   6.424   0.911 -0.1167 -1.2925 -0.5922
11615TIP3    H256261   5.083   6.348   1.018  0.1144  0.9259  0.8752
11616TIP3   OH256262   2.000   2.849  11.503 -0.4302  0.2410 -0.1537
11616TIP3    H156263   2.077   2.793  11.498  0.3769  1.3927 -2.3515
11616TIP3    H256264   2.036   2.937  11.519 -1.4213  0.5592  0.3913
11617TIP3   OH256265   5.344   2.122  15.421 -0.4029 -0.5884 -0.8041
11617TIP3    H156266   5.418   2.180  15.405  0.2759 -0.8518  1.1472
11617TIP3    H256267   5.380   2.051  15.474 -2.4638  0.5277  2.3975
11618TIP3   OH256268   6.224   3.779   6.621  0.5331  0.1190  0.3727
11618TIP3    H156269   6.153   3.767   6.559  1.1317  0.1927 -0.3413
11618TIP3    H256270   6.282   3.843   6.580  1.1520 -0.1458  0.8149
11619TIP3   OH256271   2.351   6.396   5.293  0.0465  0.0625 -0.0505
11619TIP3    H156272   2.416   6.328   5.309  1.0750  1.0123 -0.1050
11619TIP3    H256273   2.273   6.367   5.341  0.8186 -0.5917  0.8293
11620TIP3   OH256274   0.843   3.814   5.637 -0.0036 -0.0719 -0.3269
11620TIP3    H156275   0.911   3.800   5.702 -1.4425 -1.0443  1.0355
11620TIP3    H256276   0.794   3.890   5.668 -1.7016 -1.5211  0.6668
11621TIP3   OH256277   2.852   2.565  13.397  0.1557 -0.2379  0.1381
11621TIP3    H156278   2.900   2.642  13.367 -1.3934  1.1775  1.0954
11621TIP3    H256279   2.911   2.522  13.459  1.8842 -1.0924 -1.9629
11622TIP3   OH256280   6.403   5.514   1.089  0.2543 -0.5387 -0.2632
11622TIP3    H156281   6.418   5.430   1.132 -1.3967 -0.4024  0.6706
11622TIP3    H256282   6.347   5.493   1.015  0.9785 -0.4256 -0.8526
11623TIP3   OH256283   0.686   3.281  11.667 -0.3026  0.3156 -0.1028
11623TIP3    H156284   0.675   3.222  11.592  0.2801  0.2322 -0.1247
11623TIP3    H256285   0.631   3.356  11.646 -2.0000 -0.6966  0.4520
11624TIP3   OH256286   6.617   3.510   5.065 -0.1936 -0.1987 -0.4321
11624TIP3    H156287   6.522   3.505   5.077 -0.2365 -0.2971 -0.8181
11624TIP3    H256288   6.630   3.575   4.997  0.0499  0.2360  0.0242
11625TIP3   OH256289   4.997   0.485  15.920 -0.1855  0.4321 -0.0066
11625TIP3    H156290   5.090   0.465  15.913  0.2618  2.0879  0.6593
11625TIP3    H256291   4.978   0.478  16.014 -0.3584  1.5141  0.0540
11626TIP3   OH256292   2.083   0.401   5.573 -0.4516 -0.0393 -0.4622
11626TIP3    H156293   2.082   0.305   5.569  0.1408 -0.1235  0.8437
11626TIP3    H256294   2.126   0.420   5.656  0.4412  1.3752 -1.2230
11627TIP3   OH256295   6.413   2.198  15.682 -0.2610 -0.1342 -0.0822
11627TIP3    H156296   6.467   2.133  15.727 -0.7863 -1.5124 -1.3554
11627TIP3    H256297   6.342   2.147  15.642 -2.1156  1.5114  0.9105
11628TIP3   OH256298   2.433   5.107   0.962  0.0004 -0.4418  0.2652
11628TIP3    H156299   2.473   5.071   0.883  0.0757 -1.4772  0.7632
11628TIP3    H256300   2.449   5.041   1.030  0.2156  0.5623  1.2259
11629TIP3   OH256301   3.784   6.410   4.161 -0.3956 -0.0579  0.3683
11629TIP3    H156302   3.794   6.319   4.133  2.2444  0.1271  0.4509
11629TIP3    H256303   3.781   6.460   4.080 -1.0529 -0.1540  0.3319
11630TIP3   OH256304   0.295   0.043   4.211 -0.2689  0.2263 -0.2603
11630TIP3    H156305   0.350   0.017   4.285 -0.7289  0.2742  0.1025
11630TIP3    H256306   0.335  -0.001   4.136  0.1922  0.1599  0.0149
11631TIP3   OH256307   5.819   5.734   0.717 -0.3042  0.0212  0.4793
11631TIP3    H156308   5.878   5.789   0.665  0.1181 -1.3583 -0.5538
11631TIP3    H256309   5.762   5.797   0.762 -0.2314  1.3030 -1.1140
11632TIP3   OH256310   6.742   2.105   3.395 -0.2542  0.5821  0.7395
11632TIP3    H156311   6.822   2.075   3.353 -0.6170 -1.0259  1.1468
11632TIP3    H256312   6.735   2.197   3.369  1.5244  0.6708  0.4105
11633TIP3   OH256313   3.852   3.915   5.922  0.2732  0.4129  0.3803
11633TIP3    H156314   3.807   3.848   5.973 -1.6080 -0.3637 -2.1121
11633TIP3    H256315   3.945   3.898   5.937 -0.1741 -1.6148  1.1922
11634TIP3   OH256316   4.307   2.654   3.661  0.0458  0.7218  0.2348
11634TIP3    H156317   4.401   2.653   3.646 -0.2909  0.8768 -2.4011
11634TIP3    H256318   4.284   2.747   3.671  0.1044  0.7058  0.5448
11635TIP3   OH256319   2.436   4.419  16.237  0.6306  0.1525 -0.0219
11635TIP3    H156320   2.435   4.362  16.314  0.8224 -1.1855 -0.9815
11635TIP3    H256321   2.347   4.414  16.203  0.8628 -0.2195 -0.5719
11636TIP3   OH256322   5.892   1.916  12.830 -0.3404  0.1795  0.4593
11636TIP3    H156323   5.827   1.903  12.760 -0.0888  1.7132 -0.1105
11636TIP3    H256324   5.963   1.856  12.807 -1.0548 -0.6903  0.4513
11637TIP3   OH256325   6.251   6.535   4.972 -0.5150  0.1018 -0.2565
11637TIP3    H156326   6.243   6.451   5.016 -0.3689 -0.4692 -1.2891
11637TIP3    H256327   6.190   6.592   5.018 -1.8998 -1.0315 -0.6273
11638TIP3   OH256328   0.444   0.935   2.602 -0.2069 -0.0031 -0.2992
11638TIP3    H156329   0.369   0.878   2.591 -0.7114  0.7271 -0.7064
11638TIP3    H256330   0.414   1.005   2.660  0.0952  0.3825 -0.5930
11639TIP3   OH256331   3.563   3.891   1.416 -0.3641 -0.3889 -1.0650
11639TIP3    H156332   3.545   3.877   1.509 -2.2709 -2.1002 -1.6302
11639TIP3    H256333   3.545   3.984   1.402  2.1792  0.5040  0.6573
11640TIP3   OH256334   5.385   6.730  13.362 -0.5503 -0.7084 -0.0112
11640TIP3    H156335   5.413   6.647  13.400 -2.6662 -1.2991  0.3932
11640TIP3    H256336   5.294   6.741  13.391 -1.4551  0.0658 -2.7922
11641TIP3   OH256337   2.222   3.400  16.392  0.1055  0.3022  0.5790
11641TIP3    H156338   2.242   3.394  16.299  1.4061 -0.9484  0.9084
11641TIP3    H256339   2.288   3.460  16.427  0.6554 -0.5174  0.9620
11642TIP3   OH256340   5.673   0.224  14.499  0.0327  0.1285 -0.4190
11642TIP3    H156341   5.605   0.193  14.439 -0.0180  1.0218 -0.8351
11642TIP3    H256342   5.718   0.144  14.528 -1.7732 -0.5611  0.5875
11643TIP3   OH256343   2.216   2.992   1.389 -0.0412 -0.6709 -0.1311
11643TIP3    H156344   2.218   2.902   1.420 -2.1493 -0.9002 -0.4901
11643TIP3    H256345   2.159   2.989   1.311  0.1095  0.9071 -0.3393
11644TIP3   OH256346   1.243   1.362   3.003 -0.4832 -0.0963 -0.1615
11644TIP3    H156347   1.314   1.304   2.978 -0.6253 -0.2841 -0.1347
11644TIP3    H256348   1.172   1.340   2.943 -0.3178  0.5155 -0.5909
11645TIP3   OH256349   2.423   5.428  14.946 -0.0626  0.1475 -0.5800
11645TIP3    H156350   2.507   5.396  14.978 -0.1785  0.7178  0.3394
11645TIP3    H256351   2.391   5.359  14.889 -1.1555 -2.3312  2.6864
11646TIP3   OH256352   3.374   5.054   6.105  0.8075 -0.0877  0.3478
11646TIP3    H156353   3.456   5.102   6.120 -1.1230  3.3397  0.9423
11646TIP3    H256354   3.315   5.119   6.066 -1.2250 -2.8312 -1.5055
11647TIP3   OH256355   3.723   2.731   3.177 -0.5650  0.0387 -0.4128
11647TIP3    H156356   3.671   2.808   3.154  0.1991  0.6309 -0.1872
11647TIP3    H256357   3.704   2.668   3.108 -1.2932  0.3741 -0.5323
11648TIP3   OH256358   0.099   2.801   3.345 -0.0176  0.3664 -0.1627
11648TIP3    H156359   0.012   2.832   3.324 -0.2127 -0.0850 -0.0364
11648TIP3    H256360   0.092   2.767   3.434 -0.1406 -1.1812 -0.7192
11649TIP3   OH256361   3.807   2.738  15.761 -0.6494 -0.1947 -0.2677
11649TIP3    H156362   3.831   2.655  15.719  1.0462 -1.4388  2.8209
11649TIP3    H256363   3.843   2.805  15.704 -0.0575 -1.6703 -1.7045
11650TIP3   OH256364   6.027   6.451  12.499 -0.4673  0.1421  0.3174
11650TIP3    H156365   5.960   6.520  12.491 -0.2551  0.3107 -0.0504
11650TIP3    H256366   6.022   6.423  12.590 -1.0565  0.1407  0.2910
11651TIP3   OH256367   1.183   0.668   3.117  0.6949  0.2941 -0.0457
11651TIP3    H156368   1.110   0.615   3.149 -0.0612  0.7358 -0.9794
11651TIP3    H256369   1.213   0.716   3.195  2.0053 -2.0834  1.0397
11652TIP3   OH256370   3.852   1.708  15.828 -1.0242  0.0471  0.3955
11652TIP3    H156371   3.786   1.776  15.813 -1.0841 -0.0573  0.1752
11652TIP3    H256372   3.846   1.688  15.921 -0.7171  0.6406  0.5501
11653TIP3   OH256373   4.177   4.347  14.139  0.3662  0.0053  0.3775
11653TIP3    H156374   4.148   4.435  14.113 -0.3823  0.0731  1.3950
11653TIP3    H256375   4.143   4.289  14.071  1.0945  0.5258 -0.4431
11654TIP3   OH256376   1.842   6.665  12.257 -0.1827 -0.5437 -0.2408
11654TIP3    H156377   1.929   6.646  12.223 -0.9287 -1.3452 -1.8147
11654TIP3    H256378   1.857   6.723  12.331  1.6765 -0.6108 -0.5224
11655TIP3   OH256379   2.132   1.194   3.698 -0.3763  0.0513 -0.3114
11655TIP3    H156380   2.160   1.212   3.608  0.7262 -2.0242 -0.4526
11655TIP3    H256381   2.190   1.247   3.752  0.0127  0.1113 -0.7805
11656TIP3   OH256382   6.757   3.431   3.670 -0.4976 -0.2020 -0.1736
11656TIP3    H156383   6.719   3.484   3.600  0.8807  0.9572 -0.0975
11656TIP3    H256384   6.851   3.448   3.664 -0.2131 -1.1756  1.0858
11657TIP3   OH256385   5.464   3.638   4.103 -0.4644 -0.2684  0.1357
11657TIP3    H156386   5.379   3.622   4.144  0.3246 -0.5079  1.7336
11657TIP3    H256387   5.521   3.569   4.137  0.4807  0.1062 -0.6240
11658TIP3   OH256388   2.303   0.190  13.686 -0.2777 -0.0921  0.0807
11658TIP3    H156389   2.324   0.101  13.656 -0.9668 -0.1139 -0.3671
11658TIP3    H256390   2.246   0.224  13.618  0.9702  1.1578 -0.3832
11659TIP3   OH256391   3.943   2.116   1.564 -0.2024 -0.1791 -0.0281
11659TIP3    H156392   3.905   2.145   1.481 -0.7763  0.7122  0.5250
11659TIP3    H256393   3.867   2.097   1.619  0.1728 -0.6223  0.3481
11660TIP3   OH256394   4.298   6.567  10.876 -0.3327  0.8249  0.2570
11660TIP3    H156395   4.330   6.500  10.937 -1.6349 -1.5566 -1.5276
11660TIP3    H256396   4.378   6.611  10.845  0.5065  0.6172  1.9871
11661TIP3   OH256397   0.259   5.215   6.202 -0.4422 -0.0755 -0.0433
11661TIP3    H156398   0.275   5.132   6.247 -0.2065  0.5390  1.0356
11661TIP3    H256399   0.176   5.246   6.237 -0.0954  0.5693  0.2212
11662TIP3   OH256400   5.827   4.100  13.788 -0.5631 -0.7569 -0.1178
11662TIP3    H156401   5.743   4.105  13.832 -0.0940 -2.2978  1.0532
11662TIP3    H256402   5.887   4.066  13.854  1.2435  1.2492 -0.6100
11663TIP3   OH256403   5.432   1.141  12.160 -0.0386 -0.2943  0.0085
11663TIP3    H156404   5.375   1.066  12.142 -0.5048  0.4656 -1.9328
11663TIP3    H256405   5.521   1.106  12.156 -0.2535 -0.7572 -0.8010
11664TIP3   OH256406   1.052   3.907  11.648 -0.4370 -0.2812  0.4401
11664TIP3    H156407   1.087   3.915  11.559 -0.2780  0.2001  0.5391
11664TIP3    H256408   0.974   3.852  11.638  0.2778 -1.2580  0.2045
11665TIP3   OH256409   4.570   2.637   3.645 -0.1272 -0.1128 -0.1957
11665TIP3    H156410   4.602   2.643   3.735 -2.0629  0.4443  0.5198
11665TIP3    H256411   4.645   2.662   3.591  1.0168 -0.2378  1.2557
11666TIP3   OH256412   5.880   4.737  14.093  0.2395  0.0195 -0.2428
11666TIP3    H156413   5.927   4.819  14.100  1.7660 -0.9027  0.8996
11666TIP3    H256414   5.868   4.708  14.183  0.3027 -1.3131 -0.6407
11667TIP3   OH256415   3.109   4.815   0.756 -0.0285  0.0357 -0.3519
11667TIP3    H156416   3.024   4.780   0.728  0.2119 -1.2267  0.4086
11667TIP3    H256417   3.087   4.900   0.795 -0.7633  0.3174 -1.3429
11668TIP3   OH256418   5.335   4.939   4.275 -0.1227  0.1280 -0.5149
11668TIP3    H156419   5.297   4.857   4.243  0.2719 -0.3538  0.2256
11668TIP3    H256420   5.264   4.982   4.322  0.4873 -1.2869  1.8172
11669TIP3   OH256421   4.920   5.451   4.514  0.1641 -0.7126 -0.8036
11669TIP3    H156422   4.970   5.479   4.437  0.5411 -2.4141 -1.2275
11669TIP3    H256423   4.848   5.514   4.520  1.2520  0.6605 -1.3275
11670TIP3   OH256424   5.950   1.857  12.464 -0.2186  0.1043  0.0280
11670TIP3    H156425   5.943   1.905  12.381  0.3186 -1.8564 -1.2299
11670TIP3    H256426   5.998   1.916  12.522  2.3807  0.3282 -2.1545
11671TIP3   OH256427   1.661   6.337  12.498  0.4229 -0.0453  0.0373
11671TIP3    H156428   1.753   6.326  12.521  0.7448  2.7950  0.4620
11671TIP3    H256429   1.662   6.392  12.419 -0.9051 -1.6560 -1.1637
11672TIP3   OH256430   6.600   4.627  10.739 -0.0151 -0.3817 -0.1778
11672TIP3    H156431   6.505   4.613  10.737 -0.2254  0.8967 -3.0001
11672TIP3    H256432   6.611   4.722  10.725  1.6903  0.0990  3.1878
11673TIP3   OH256433   6.790   1.397   3.570  0.2600  0.0781  0.2728
11673TIP3    H156434   6.768   1.420   3.480  0.7603  0.3961  0.2246
11673TIP3    H256435   6.764   1.305   3.579 -3.5661  1.0993  1.0609
11674TIP3   OH256436   2.790   3.447   4.045 -0.2117  0.9943 -0.2163
11674TIP3    H156437   2.873   3.424   4.087  0.2114  0.5990 -1.2359
11674TIP3    H256438   2.780   3.541   4.061  0.7763  1.1855 -0.6402
11675TIP3   OH256439   2.002   4.108  13.456 -0.2249 -0.8514  0.2292
11675TIP3    H156440   2.032   4.040  13.396 -0.5177  0.1862 -1.1488
11675TIP3    H256441   2.021   4.073  13.543  0.0408 -2.4847 -0.4449
11676TIP3   OH256442   2.262   4.403   6.032  0.1170 -0.2975  0.1847
11676TIP3    H156443   2.254   4.308   6.023 -2.5012 -0.1887  0.6884
11676TIP3    H256444   2.280   4.417   6.125 -0.6449 -0.2729  0.3343
11677TIP3   OH256445   4.567   6.753  12.440  0.7413  0.2843  0.5893
11677TIP3    H156446   4.518   6.833  12.419 -0.3953 -0.4591  0.3137
11677TIP3    H256447   4.646   6.784  12.485 -0.2447  1.5100  1.5633
11678TIP3   OH256448   4.150   2.695   4.605 -0.5308 -0.0464  0.4302
11678TIP3    H156449   4.167   2.782   4.640 -0.5333 -0.2884  1.0346
11678TIP3    H256450   4.072   2.707   4.550 -0.6470  0.2943  0.6639
11679TIP3   OH256451   1.416   1.710  13.001  0.0244  0.3370  0.7117
11679TIP3    H156452   1.322   1.701  12.986  0.4234 -2.0366 -0.9402
11679TIP3    H256453   1.424   1.778  13.068 -2.9130 -0.3108  1.8433
11680TIP3   OH256454   5.914   3.899   0.632 -0.5602  0.2613 -0.0241
11680TIP3    H156455   5.860   3.977   0.641  0.0301  0.5826  0.7865
11680TIP3    H256456   5.872   3.834   0.689 -1.7375 -0.4183 -1.5937
11681TIP3   OH256457   6.771   6.613   2.887  0.2382 -0.0863 -0.0441
11681TIP3    H156458   6.759   6.708   2.879  2.4526  0.1838 -0.9304
11681TIP3    H256459   6.718   6.576   2.817  0.9041  0.6589 -0.9626
11682TIP3   OH256460   0.596   2.761  16.843 -0.5847 -0.4247  0.2702
11682TIP3    H156461   0.556   2.768  16.930  2.5901 -1.1018  1.9140
11682TIP3    H256462   0.635   2.847  16.828  1.4272 -1.1673  0.9486
11683TIP3   OH256463   4.975   1.334   2.205  0.1036  0.1179  0.0851
11683TIP3    H156464   5.015   1.410   2.248 -1.2804  1.3565 -0.7251
11683TIP3    H256465   5.034   1.314   2.132  0.0300  1.0030 -0.2337
11684TIP3   OH256466   4.008   0.790  13.346 -0.0100  0.1815 -0.4229
11684TIP3    H156467   4.087   0.841  13.331 -0.2173  0.0937 -2.0292
11684TIP3    H256468   3.997   0.789  13.441  1.6494  0.5772 -0.2048
11685TIP3   OH256469   5.269   4.729   1.066  0.7879 -0.0708  0.0692
11685TIP3    H156470   5.212   4.781   1.009  0.5731  0.3812  0.6923
11685TIP3    H256471   5.214   4.654   1.091  0.2270  0.7017  1.1999
11686TIP3   OH256472   6.147   0.843  13.004 -0.5721  0.6780 -0.0140
11686TIP3    H156473   6.105   0.827  13.089 -0.1395  0.8157  0.2284
11686TIP3    H256474   6.238   0.817  13.016 -0.2350  1.7374 -0.0893
11687TIP3   OH256475   5.023   0.334   4.038  0.4139  0.2946 -0.3906
11687TIP3    H156476   5.047   0.241   4.038 -0.8188 -0.1394  2.5895
11687TIP3    H256477   5.068   0.370   4.115 -0.7136  1.6870 -0.3537
11688TIP3   OH256478   1.175   3.267   0.575 -0.1105  0.7542 -0.0346
11688TIP3    H156479   1.240   3.306   0.634 -0.6879  1.8154 -0.0751
11688TIP3    H256480   1.092   3.277   0.622 -0.0724 -2.2457  0.8536
11689TIP3   OH256481   5.439   4.729  15.522  1.0046 -0.4859  0.2239
11689TIP3    H156482   5.483   4.686  15.595 -3.3494 -2.3309  2.1053
11689TIP3    H256483   5.364   4.774  15.562 -0.7570 -0.3446 -2.8930
11690TIP3   OH256484   0.157   1.913  13.934 -0.0350 -0.0475  0.2601
11690TIP3    H156485   0.167   1.885  14.025 -1.7844 -1.7366 -0.0145
11690TIP3    H256486   0.190   1.840  13.882 -1.5076 -0.2419 -0.4539
11691TIP3   OH256487   5.967   2.059   2.146 -0.1731  0.0112  0.4208
11691TIP3    H156488   5.973   2.105   2.230 -0.6061 -0.1650  0.5526
11691TIP3    H256489   5.918   2.118   2.089 -2.7010 -1.1311  1.2344
11692TIP3   OH256490   2.496   0.690  11.084 -0.1893 -0.2906 -0.0703
11692TIP3    H156491   2.437   0.617  11.101  2.2830 -2.3537  0.3596
11692TIP3    H256492   2.564   0.653  11.027  0.8207  1.8633 -0.3767
11693TIP3   OH256493   3.501   5.731  14.042  0.1810 -0.7101  0.1156
11693TIP3    H156494   3.408   5.747  14.029  0.9335  1.9872 -3.6870
11693TIP3    H256495   3.534   5.814  14.078  1.3653 -0.9510 -0.3749
11694TIP3   OH256496   6.221   2.753  15.084  0.3874 -0.0715 -0.1594
11694TIP3    H156497   6.232   2.706  15.167 -0.4665  1.0657  0.6319
11694TIP3    H256498   6.135   2.724  15.053  0.3627  0.0976 -0.2449
11695TIP3   OH256499   5.319   6.358  17.181  0.5193  0.0795  0.4183
11695TIP3    H156500   5.239   6.327  17.223  1.8532 -2.4537  1.3134
11695TIP3    H256501   5.291   6.433  17.129 -2.4903 -0.9307  0.3729
11696TIP3   OH256502   4.063   1.992   0.687  0.0257  0.1542  0.2223
11696TIP3    H156503   4.090   1.941   0.764  0.3467 -0.1129 -0.0674
11696TIP3    H256504   4.117   1.959   0.616 -0.6023  0.0611 -0.2253
11697TIP3   OH256505   0.498   5.711   0.745  0.5507  0.1338 -0.3764
11697TIP3    H156506   0.434   5.678   0.807  0.5269 -1.2874 -1.1331
11697TIP3    H256507   0.574   5.734   0.799 -0.1397  0.6951  0.3786
11698TIP3   OH256508   3.165   0.010   3.237 -0.1466 -0.2154 -0.9122
11698TIP3    H156509   3.197  -0.073   3.202  1.0629  0.0205 -0.4213
11698TIP3    H256510   3.109   0.046   3.168  0.7329 -0.6117 -1.8553
11699TIP3   OH256511   5.831   3.138  13.270  0.2714 -0.4256  0.1340
11699TIP3    H156512   5.895   3.104  13.334  0.5761 -0.9875 -0.4542
11699TIP3    H256513   5.876   3.130  13.186 -0.2585 -0.0101 -0.1894
11700TIP3   OH256514   5.654   0.216   1.809  0.4472  0.0604 -0.0472
11700TIP3    H156515   5.563   0.225   1.784  0.6180 -1.5820 -1.4078
11700TIP3    H256516   5.695   0.299   1.784 -0.8067  1.2088  1.4806
11701TIP3   OH256517   1.544   5.586  11.449  0.1886 -0.1240 -0.2292
11701TIP3    H156518   1.523   5.494  11.469 -0.9646  0.3846  1.0346
11701TIP3    H256519   1.461   5.632  11.458  0.5864  0.9336 -1.6748
11702TIP3   OH256520   1.296   2.895   2.454 -0.2867 -0.4353  0.3783
11702TIP3    H156521   1.371   2.850   2.492 -0.6789 -0.3363  1.2862
11702TIP3    H256522   1.318   2.988   2.460 -0.1131 -0.4323 -0.1659
11703TIP3   OH256523   6.521   4.290  17.123 -0.4333  0.0782 -0.1330
11703TIP3    H156524   6.429   4.280  17.149 -1.4965  1.2139 -3.0706
11703TIP3    H256525   6.539   4.211  17.072 -0.1300  0.3781 -0.4862
11704TIP3   OH256526   0.319   3.968   0.629 -0.4216 -0.4523  0.4997
11704TIP3    H156527   0.316   3.884   0.677  0.8524 -0.5997  0.3558
11704TIP3    H256528   0.387   4.018   0.674  0.5301 -0.4392 -0.8897
11705TIP3   OH256529   0.491   0.375  12.826 -0.0061  0.1788  0.0704
11705TIP3    H156530   0.471   0.285  12.801 -0.5265  0.0416  0.9414
11705TIP3    H256531   0.442   0.389  12.907 -1.2127  1.7561 -0.8592
11706TIP3   OH256532   4.912   4.293  13.384 -0.0063 -0.1187  0.0717
11706TIP3    H156533   4.896   4.220  13.442 -0.1048  1.1213  1.6741
11706TIP3    H256534   4.828   4.308  13.340 -1.2447  1.5286  2.7512
11707TIP3   OH256535   1.213   3.419  15.715  0.2480  0.1888 -0.3377
11707TIP3    H156536   1.158   3.377  15.782  0.6320  0.6360  0.2648
11707TIP3    H256537   1.295   3.437  15.760  0.1811  1.3529 -0.6582
11708TIP3   OH256538   2.734   6.428  11.561 -0.1555  0.3457  0.1996
11708TIP3    H156539   2.797   6.377  11.612 -0.9109  0.1251  0.9404
11708TIP3    H256540   2.753   6.519  11.583  0.5348  0.3341 -0.3353
11709TIP3   OH256541   0.024   2.966  17.175  0.0094  0.1018 -0.1159
11709TIP3    H156542   0.076   3.011  17.108 -0.3226  0.0610 -0.4087
11709TIP3    H256543  -0.046   2.923  17.125  0.3970 -0.8509  0.1465
11710TIP3   OH256544   5.152   5.964   1.160 -0.1080  0.4325  0.0702
11710TIP3    H156545   5.113   6.050   1.143  0.4896  0.9785  1.3140
11710TIP3    H256546   5.246   5.981   1.159  0.1109 -0.6418 -1.7619
11711TIP3   OH256547   2.168   4.807   2.579  0.3193  0.2008 -1.0692
11711TIP3    H156548   2.177   4.834   2.670 -1.2570 -0.3734 -0.7090
11711TIP3    H256549   2.085   4.845   2.551  0.2073 -0.6081 -1.8913
11712TIP3   OH256550   1.432   0.360  12.472 -0.6408 -0.3278  0.5280
11712TIP3    H156551   1.358   0.339  12.415 -0.3766 -1.7456  0.6590
11712TIP3    H256552   1.505   0.309  12.436 -0.1228 -0.1651  1.3265
11713TIP3   OH256553   5.372   1.162   0.751  0.2109 -0.0052  0.1875
11713TIP3    H156554   5.402   1.221   0.820  0.7235  0.3561 -0.3364
11713TIP3    H256555   5.395   1.207   0.669  0.9641 -1.0878 -0.2256
11714TIP3   OH256556   6.388   6.691   4.238 -0.7292 -0.1134  0.0735
11714TIP3    H156557   6.404   6.710   4.145 -1.1243 -1.0224 -0.1837
11714TIP3    H256558   6.453   6.745   4.284  0.6954 -1.0034 -0.8103
11715TIP3   OH256559   5.956   5.045  14.101 -0.3351  0.4577 -0.1500
11715TIP3    H156560   5.893   5.118  14.101  0.8953  1.5923 -1.9825
11715TIP3    H256561   5.955   5.013  14.011 -1.3026 -2.3069  0.7235
11716TIP3   OH256562   2.080   4.063  11.973 -0.2448 -0.5804  0.5367
11716TIP3    H156563   2.090   3.968  11.979 -0.3287 -0.6685 -0.5754
11716TIP3    H256564   2.076   4.081  11.879 -2.2717  0.3092  0.7509
11717TIP3   OH256565   6.681   5.085   0.598  0.1072 -0.0527 -0.3780
11717TIP3    H156566   6.732   5.165   0.607  0.6246 -0.3470 -0.6738
11717TIP3    H256567   6.637   5.074   0.683 -1.3620  1.4785 -0.8865
11718TIP3   OH256568   2.479   0.984  12.237  0.2831 -0.0556  0.4596
11718TIP3    H156569   2.553   1.044  12.249 -0.3473  0.9699 -0.5557
11718TIP3    H256570   2.498   0.938  12.156 -0.2384  0.3026  0.1281
11719TIP3   OH256571   6.296   3.214   5.827  0.5767  0.2998  0.2929
11719TIP3    H156572   6.283   3.138   5.884  0.5056 -0.6137 -0.8933
11719TIP3    H256573   6.207   3.246   5.810  0.2449 -1.5871 -2.0720
11720TIP3   OH256574   4.967   0.395  14.188  0.2314 -0.1758  0.0378
11720TIP3    H156575   5.054   0.415  14.152 -0.1775 -0.6759 -1.2876
11720TIP3    H256576   4.922   0.479  14.191  1.4236  0.4508  2.7009
11721TIP3   OH256577   5.074   2.843   3.730 -0.3046 -0.6024 -0.4376
11721TIP3    H156578   5.124   2.889   3.797 -0.2788 -0.2775 -0.6778
11721TIP3    H256579   5.113   2.756   3.726  0.9647 -0.0195 -1.3866
11722TIP3   OH256580   2.623   3.343  14.456  0.2828 -0.0293 -0.5640
11722TIP3    H156581   2.580   3.260  14.478  1.2182 -0.9564 -2.0652
11722TIP3    H256582   2.568   3.410  14.498 -0.8005 -1.3546  0.2268
11723TIP3   OH256583   6.707   5.199  11.349 -0.5161  0.0890  0.4621
11723TIP3    H156584   6.698   5.184  11.443 -1.0037  0.2590  0.4457
11723TIP3    H256585   6.619   5.225  11.321  0.1170  2.3386  0.3823
11724TIP3   OH256586   5.348   2.885  14.728  0.5105 -0.2678 -0.1161
11724TIP3    H156587   5.287   2.959  14.729 -0.1152 -0.4958 -4.5054
11724TIP3    H256588   5.423   2.917  14.679  0.6301 -2.2270 -1.3034
11725TIP3   OH256589   5.439   4.697  10.955 -0.5408 -0.1868 -0.2155
11725TIP3    H156590   5.481   4.771  10.911 -2.5861  2.1935  1.5011
11725TIP3    H256591   5.499   4.675  11.026 -1.3089  2.1799  1.3061
11726TIP3   OH256592   2.263   1.618   0.310 -0.0073  0.3777  0.4293
11726TIP3    H156593   2.301   1.658   0.389 -0.4831  0.7889  0.4572
11726TIP3    H256594   2.338   1.597   0.255  0.2331  2.6045 -0.1904
11727TIP3   OH256595   2.485   6.622  16.564 -0.0627 -0.0794 -0.3637
11727TIP3    H156596   2.501   6.696  16.506  1.4990 -0.6480 -0.7045
11727TIP3    H256597   2.554   6.628  16.630  0.0123 -1.1639 -0.3346
11728TIP3   OH256598   0.363   2.734   5.084  0.5320  0.3180  0.1207
11728TIP3    H156599   0.375   2.659   5.025 -0.8217  0.1446  0.0272
11728TIP3    H256600   0.448   2.777   5.087  1.3899 -1.3190  0.3003
11729TIP3   OH256601   2.275   1.812  15.596  0.4391 -0.8324  0.3888
11729TIP3    H156602   2.246   1.881  15.537  1.5360 -1.8834 -1.4865
11729TIP3    H256603   2.327   1.858  15.663  1.5452  0.1341 -1.0795
11730TIP3   OH256604   1.046   3.663   4.096 -0.0781 -0.4332 -0.7488
11730TIP3    H156605   1.034   3.745   4.143 -3.3729 -0.9162 -0.4634
11730TIP3    H256606   1.137   3.664   4.068  0.9199  1.7483  2.0853
11731TIP3   OH256607   0.754   4.343  16.008 -0.1052  0.7399 -0.4013
11731TIP3    H156608   0.723   4.393  16.083 -1.8203  1.7263 -1.6881
11731TIP3    H256609   0.771   4.255  16.043 -0.5132  1.2569  1.1835
11732TIP3   OH256610   1.851   1.723   3.141 -0.4449  0.3639 -0.3260
11732TIP3    H156611   1.896   1.727   3.056 -1.0512 -0.3566 -0.6910
11732TIP3    H256612   1.780   1.661   3.127 -0.2769 -0.1084  0.8429
11733TIP3   OH256613   1.272   1.145   4.779  0.6414  0.3666 -0.0438
11733TIP3    H156614   1.222   1.186   4.849 -1.6417  1.7285 -2.2972
11733TIP3    H256615   1.330   1.214   4.747  0.6276  0.2048 -0.4234
11734TIP3   OH256616   1.041   5.726  11.307  0.0505 -0.0482  0.1171
11734TIP3    H156617   1.053   5.736  11.213 -0.7859 -1.5469 -0.1860
11734TIP3    H256618   1.033   5.815  11.340 -0.7424  0.4822 -1.4004
11735TIP3   OH256619   3.942   2.373   0.154 -0.2154 -0.0604 -0.3985
11735TIP3    H156620   3.902   2.449   0.110 -1.1921  0.2567  0.9550
11735TIP3    H256621   3.948   2.306   0.086 -1.7856  0.3698 -1.0003
11736TIP3   OH256622   4.437   0.333  14.066 -0.1484 -0.0072  0.9887
11736TIP3    H156623   4.527   0.303  14.072  0.2834  1.0962  0.4069
11736TIP3    H256624   4.387   0.256  14.041  0.7513 -0.4716  0.5862
11737TIP3   OH256625   2.931   4.795   2.700 -0.6659 -0.0356 -0.2299
11737TIP3    H156626   2.988   4.853   2.649  0.1324  0.2951  1.0017
11737TIP3    H256627   2.987   4.720   2.720 -0.6185  0.3254  1.0497
11738TIP3   OH256628   6.043   3.888  11.036  0.3792  0.1737 -0.2030
11738TIP3    H156629   5.974   3.876  10.972  0.2605  0.9683 -0.2312
11738TIP3    H256630   6.014   3.963  11.089  0.9075  0.1054  0.1907
11739TIP3   OH256631   3.215   1.681  16.426  0.1867 -0.2691  0.1972
11739TIP3    H156632   3.145   1.741  16.451 -0.7743 -0.5005 -1.7587
11739TIP3    H256633   3.205   1.606  16.485 -1.8980 -0.7400 -0.6669
11740TIP3   OH256634   2.015   0.890   5.370 -0.2062 -0.5789 -0.1798
11740TIP3    H156635   2.016   0.800   5.402  0.3169 -0.8372 -0.9189
11740TIP3    H256636   2.107   0.914   5.362 -0.2724  0.7786  2.0643
11741TIP3   OH256637   0.906   6.573   3.492 -0.6072 -0.1117 -0.4902
11741TIP3    H156638   0.995   6.549   3.519 -1.5632 -2.8398  0.5951
11741TIP3    H256639   0.884   6.648   3.548 -0.2062 -1.6348  1.8774
11742TIP3   OH256640   2.620   6.630  13.211  0.2321  0.0262 -0.4233
11742TIP3    H156641   2.538   6.679  13.212 -0.0067 -0.3839  0.2008
11742TIP3    H256642   2.620   6.587  13.126 -0.4857 -0.4486 -0.1907
11743TIP3   OH256643   5.350   5.526  14.304  0.0296 -0.5196 -0.1706
11743TIP3    H156644   5.402   5.601  14.332 -0.2448 -0.5423  0.4067
11743TIP3    H256645   5.409   5.476  14.247  0.1633  0.2072 -0.6872
11744TIP3   OH256646   1.194   0.297  12.263 -0.3492  0.0795 -0.0472
11744TIP3    H156647   1.134   0.371  12.273 -0.7448 -0.1543 -0.5935
11744TIP3    H256648   1.213   0.294  12.170  0.2127 -0.0894  0.0692
11745TIP3   OH256649   1.554   2.996   4.824  0.2479  0.2826  0.2653
11745TIP3    H156650   1.514   3.049   4.755 -0.3951  0.3715  0.6997
11745TIP3    H256651   1.626   2.950   4.780 -0.8295 -0.5223 -0.7242
11746TIP3   OH256652   5.781   3.724  15.079 -0.1972 -0.1201 -0.0075
11746TIP3    H156653   5.712   3.673  15.037  0.1686  0.6338 -1.6262
11746TIP3    H256654   5.861   3.703  15.030  0.9094 -1.4138  2.1769
11747TIP3   OH256655   3.412   2.767  13.820 -0.1194 -0.1756 -0.4910
11747TIP3    H156656   3.327   2.774  13.863 -0.8565 -1.2444 -1.7032
11747TIP3    H256657   3.461   2.703  13.872 -0.2438  0.0569 -0.0875
11748TIP3   OH256658   1.730   5.233   4.506 -0.2786 -0.2859 -0.4057
11748TIP3    H156659   1.751   5.188   4.588 -1.8232  0.7718  0.5969
11748TIP3    H256660   1.812   5.277   4.482  0.3372 -1.0200  0.2813
11749TIP3   OH256661   1.625   1.962   2.032 -0.1382 -0.5932  0.5392
11749TIP3    H156662   1.719   1.955   2.043  0.4834 -0.9390 -3.4879
11749TIP3    H256663   1.605   2.054   2.053  1.6729  0.2823 -1.2342
11750TIP3   OH256664   4.376   0.517   5.582 -0.4492 -0.6073  0.2394
11750TIP3    H156665   4.289   0.489   5.552 -0.1422 -0.0803 -1.2536
11750TIP3    H256666   4.433   0.503   5.506  0.8372 -1.1467  1.2526
11751TIP3   OH256667   4.087   2.406   0.795 -1.1208  0.3989 -0.1213
11751TIP3    H156668   4.072   2.500   0.808  0.8664  1.2722 -3.0798
11751TIP3    H256669   4.159   2.385   0.855 -0.1659  1.3241 -0.9012
11752TIP3   OH256670   1.459   0.904   2.437 -0.2886 -0.4349  0.3122
11752TIP3    H156671   1.442   0.844   2.365 -1.3590  0.3511 -0.1215
11752TIP3    H256672   1.372   0.934   2.463  0.2609  2.1966 -0.6041
11753TIP3   OH256673   1.933   3.539  11.728  0.5808 -0.7607  0.3485
11753TIP3    H156674   1.860   3.492  11.688 -0.4750  1.6928 -0.7766
11753TIP3    H256675   1.894   3.586  11.802  0.5611  1.8541 -1.2060
11754TIP3   OH256676   2.714   5.544  15.546  0.3784  0.2540 -0.0859
11754TIP3    H156677   2.645   5.529  15.612  0.7925  0.1907  0.3360
11754TIP3    H256678   2.667   5.545  15.463 -0.0665 -0.3232  0.1522
11755TIP3   OH256679   3.184   6.345  15.398  0.3703  0.2781 -0.1959
11755TIP3    H156680   3.152   6.435  15.395  0.0579  0.1515 -2.9110
11755TIP3    H256681   3.169   6.311  15.310 -0.2908 -2.7362  0.9756
11756TIP3   OH256682   5.551   1.582   2.916  0.0036  0.7671 -0.3894
11756TIP3    H156683   5.545   1.677   2.901  0.6495  0.9350  0.3379
11756TIP3    H256684   5.602   1.549   2.842 -1.3389  0.7666 -1.3640
11757TIP3   OH256685   5.496   4.551  15.129 -0.2176 -0.4383 -0.0369
11757TIP3    H156686   5.579   4.517  15.161 -0.1358 -0.3648 -0.1695
11757TIP3    H256687   5.519   4.604  15.052 -0.2484  0.5807  0.6398
11758TIP3   OH256688   2.539   5.339   3.413 -0.4559 -0.4592 -0.0277
11758TIP3    H156689   2.572   5.255   3.382 -2.0629 -1.5042  0.9431
11758TIP3    H256690   2.530   5.392   3.334  1.0711 -0.9926 -0.5947
11759TIP3   OH256691   1.468   1.361  15.822  0.1345 -0.1379 -0.1236
11759TIP3    H156692   1.485   1.318  15.906  0.3978  0.1751 -0.0134
11759TIP3    H256693   1.478   1.292  15.757  0.5851 -0.2375  0.0489
11760TIP3   OH256694   6.764   5.470  11.383 -0.2312 -0.8393 -0.0459
11760TIP3    H156695   6.729   5.510  11.463 -1.5550 -1.0649 -0.4753
11760TIP3    H256696   6.758   5.375  11.399  0.1432 -0.8804 -0.1474
11761TIP3   OH256697   0.881   4.655   5.784  0.1083 -0.5793  0.8951
11761TIP3    H156698   0.895   4.614   5.869  0.0734 -1.1474  0.6328
11761TIP3    H256699   0.888   4.583   5.721  0.1567 -0.1617  0.4163
11762TIP3   OH256700   5.337   0.902  17.181  0.0566  0.0450 -0.2635
11762TIP3    H156701   5.284   0.836  17.136 -0.8658 -0.5576  1.6323
11762TIP3    H256702   5.304   0.903  17.270  2.0035  1.0286  0.5014
11763TIP3   OH256703   4.007   5.308   6.243 -0.8712 -0.3789 -0.1781
11763TIP3    H156704   4.052   5.246   6.300 -0.2377  1.1096  1.0075
11763TIP3    H256705   4.074   5.334   6.179 -1.0480 -0.6963 -0.4921
11764TIP3   OH256706   1.108   2.250   5.796  0.3560 -0.3388  0.1347
11764TIP3    H156707   1.107   2.177   5.857  0.1666 -0.2652  0.2218
11764TIP3    H256708   1.039   2.230   5.733 -0.1900  0.1095  0.5753
11765TIP3   OH256709   0.278   4.713   6.158 -0.3358 -0.8092 -0.0736
11765TIP3    H156710   0.242   4.629   6.130  0.6079 -1.0522 -0.6104
11765TIP3    H256711   0.352   4.728   6.099  0.9320 -0.7066  1.4723
11766TIP3   OH256712   3.797   5.508   6.107  0.8277  0.0785 -0.1558
11766TIP3    H156713   3.848   5.453   6.167  0.0375 -0.1617  0.3074
11766TIP3    H256714   3.861   5.539   6.042  1.3385 -1.1374 -0.2504
11767TIP3   OH256715   0.813   1.785   1.965 -0.1482 -0.2738  0.1977
11767TIP3    H156716   0.884   1.759   2.023  0.6717  1.5993  0.0956
11767TIP3    H256717   0.840   1.755   1.878 -0.5314 -1.4669  0.4643
11768TIP3   OH256718   0.537   1.346  15.781  0.1379 -0.5644  0.4929
11768TIP3    H156719   0.464   1.296  15.745 -1.1627  1.0852  0.6980
11768TIP3    H256720   0.615   1.301  15.749 -0.9592 -1.5485 -0.9637
11769TIP3   OH256721   4.010   0.402  14.733  0.2943  0.0610  0.2312
11769TIP3    H156722   3.961   0.458  14.793 -0.2173  1.0945 -1.1003
11769TIP3    H256723   4.096   0.445  14.726  0.3324 -0.0230  0.1811
11770TIP3   OH256724   2.762   5.922  16.088 -0.4166 -0.5945 -0.3455
11770TIP3    H156725   2.799   5.909  16.175 -0.1729 -2.8833 -0.7250
11770TIP3    H256726   2.838   5.926  16.030 -0.5828  0.7685 -0.4971
11771TIP3   OH256727   6.750   5.467  10.333  0.4399 -0.0171  0.7463
11771TIP3    H156728   6.703   5.410  10.395 -1.7987 -0.4414 -1.1842
11771TIP3    H256729   6.811   5.409  10.289  0.2412 -0.2770  0.8078
11772TIP3   OH256730   4.907   6.491  12.781  0.0747  0.2932  0.3939
11772TIP3    H156731   4.882   6.549  12.708 -2.6510 -0.8901  0.2711
11772TIP3    H256732   4.847   6.516  12.852  0.9294 -0.3376  1.3500
11773TIP3   OH256733   1.244   1.049   1.899  0.5171 -0.3939  0.6432
11773TIP3    H156734   1.303   0.975   1.886  0.1160 -0.8139  1.1450
11773TIP3    H256735   1.209   1.036   1.987  0.0941  0.1488  0.5620
11774TIP3   OH256736   0.696   0.889   6.145  0.1424  0.1819  0.3562
11774TIP3    H156737   0.777   0.940   6.140  0.1253  0.2277  0.5342
11774TIP3    H256738   0.723   0.804   6.179  0.1499  0.1216  0.1971
11775TIP3   OH256739   0.492   6.276  13.948 -0.0255 -0.7106 -0.1919
11775TIP3    H156740   0.421   6.340  13.952  0.1377 -0.5216 -0.3345
11775TIP3    H256741   0.545   6.294  14.026  1.4407  0.9835 -1.5099
11776TIP3   OH256742   3.024   4.112  13.766 -0.1533  0.2535  0.7958
11776TIP3    H156743   3.103   4.123  13.714  0.5804 -0.7000  1.6626
11776TIP3    H256744   3.004   4.200  13.798 -1.5619  1.1978 -2.3043
11777TIP3   OH256745   5.087   0.717  11.264 -0.2775  0.1056 -0.2588
11777TIP3    H156746   5.084   0.625  11.290  0.4408  0.1888  0.1621
11777TIP3    H256747   5.135   0.760  11.335 -1.3648  0.9651 -0.0089
11778TIP3   OH256748   2.974   0.213   3.311 -0.2628 -0.4736  0.4438
11778TIP3    H156749   2.900   0.183   3.363 -0.1792 -0.5502  0.5204
11778TIP3    H256750   3.022   0.133   3.290 -0.0554 -0.3972  0.6227
11779TIP3   OH256751   1.350   4.745  16.293 -0.6156  0.1330 -0.4961
11779TIP3    H156752   1.424   4.778  16.242 -1.0766  1.3064 -0.4394
11779TIP3    H256753   1.361   4.785  16.380 -0.2911 -1.1883  0.0954
11780TIP3   OH256754   4.374   3.675   3.270 -0.0261 -0.2085  0.7000
11780TIP3    H156755   4.350   3.740   3.204 -1.0301  0.8264  2.0252
11780TIP3    H256756   4.303   3.611   3.268 -0.6058  0.3889  1.4648
11781TIP3   OH256757   6.255   4.522  14.815  0.6419 -0.6061 -0.2458
11781TIP3    H156758   6.161   4.504  14.806  0.7367 -0.5481 -1.5515
11781TIP3    H256759   6.266   4.543  14.908 -0.6642 -0.4266 -0.1054
11782TIP3   OH256760   5.424   3.463   2.192 -0.0251  0.1051  0.1159
11782TIP3    H156761   5.492   3.496   2.133 -0.7470 -0.3040 -0.9848
11782TIP3    H256762   5.428   3.521   2.268 -0.4082  1.9566 -1.1925
11783TIP3   OH256763   0.971   0.544   3.209  0.0528 -0.0078 -0.1661
11783TIP3    H156764   0.884   0.536   3.169 -0.4632  1.2161  0.6114
11783TIP3    H256765   1.006   0.455   3.209 -2.9218 -1.4678  3.1551
11784TIP3   OH256766   1.348   4.439  16.013 -0.1214 -0.1345  0.3032
11784TIP3    H156767   1.313   4.523  15.984  0.4032  0.8623  2.3459
11784TIP3    H256768   1.299   4.419  16.093 -0.0785 -1.6842 -0.0196
11785TIP3   OH256769   3.030   5.596  16.586 -0.1084  0.0654  0.5282
11785TIP3    H156770   3.025   5.502  16.602 -1.6509 -0.1050 -0.6852
11785TIP3    H256771   3.027   5.604  16.491  1.5438  1.2998  0.5345
11786TIP3   OH256772   2.566   5.428  15.766  0.3463  0.1904 -0.6562
11786TIP3    H156773   2.603   5.513  15.792  1.1227  0.6162 -2.9075
11786TIP3    H256774   2.570   5.375  15.845 -0.5912  2.3716  0.9598
11787TIP3   OH256775   0.782   4.944  11.171  0.4943  0.1327  0.4634
11787TIP3    H156776   0.800   4.884  11.098 -1.2687 -0.9714  0.8801
11787TIP3    H256777   0.800   4.892  11.250 -3.3594 -0.8105  0.8987
11788TIP3   OH256778   6.145   6.542   1.133 -0.3743 -0.3881 -0.2332
11788TIP3    H156779   6.078   6.474   1.141 -0.5764 -0.0992  0.6460
11788TIP3    H256780   6.102   6.622   1.162  0.3541 -0.2086  0.4107
11789TIP3   OH256781   1.007   2.264  11.183 -0.2870 -0.1092  0.3439
11789TIP3    H156782   0.931   2.212  11.210 -2.0583  1.5741 -1.0971
11789TIP3    H256783   0.979   2.309  11.104  1.8402  1.4781  0.3916
11790TIP3   OH256784   2.753   6.539  12.891  0.0655  0.2378 -0.4528
11790TIP3    H156785   2.745   6.467  12.827  0.0625  0.4099 -0.6492
11790TIP3    H256786   2.841   6.529  12.928  0.2352  0.3990 -0.8062
11791TIP3   OH256787   6.658   1.162   3.027  0.6126  0.3367  0.2497
11791TIP3    H156788   6.581   1.215   3.047  1.6916  1.9804  0.2454
11791TIP3    H256789   6.622   1.076   3.004 -1.0906  0.5232  1.9588
11792TIP3   OH256790   3.518   1.640   0.947  0.4510  0.0879 -0.5077
11792TIP3    H156791   3.535   1.708   0.881  0.4082  0.9134  0.2985
11792TIP3    H256792   3.603   1.624   0.987  0.6182 -0.9613 -1.2602
11793TIP3   OH256793   5.357   4.367  15.305  0.0615 -0.2065  0.0753
11793TIP3    H156794   5.424   4.321  15.355 -1.3321 -1.3664  0.9733
11793TIP3    H256795   5.402   4.442  15.267  1.7315 -0.6659  1.0507
11794TIP3   OH256796   0.320   4.649   2.069  0.0993 -0.6518  0.0523
11794TIP3    H156797   0.285   4.727   2.113 -0.0606 -1.2601  1.0497
11794TIP3    H256798   0.267   4.577   2.104  1.7501 -1.5036  0.9422
11795TIP3   OH256799   4.663   1.313  12.231  0.2354 -0.6134 -0.0045
11795TIP3    H156800   4.589   1.362  12.198 -0.1474 -0.4046  1.1228
11795TIP3    H256801   4.737   1.373  12.224  0.6337 -1.2773 -2.4177
11796TIP3   OH256802   4.567   5.988   3.307 -0.8957 -0.4648  0.1125
11796TIP3    H156803   4.570   5.909   3.254 -0.6907 -0.2729 -0.1633
11796TIP3    H256804   4.577   6.060   3.245 -0.4503 -0.2477  0.4222
11797TIP3   OH256805   3.408   2.909   5.981  0.3410 -0.2429 -0.1624
11797TIP3    H156806   3.358   2.870   5.909 -0.0226 -1.3952  0.6913
11797TIP3    H256807   3.499   2.885   5.964  0.3951  0.3327 -0.7496
11798TIP3   OH256808   2.251   6.544  16.446 -0.0793  0.3139 -0.1522
11798TIP3    H156809   2.329   6.598  16.461  0.9793 -1.2481  0.2181
11798TIP3    H256810   2.272   6.459  16.485 -2.0625 -0.1055  0.1302
11799TIP3   OH256811   1.786   2.118  14.914 -0.5784  0.0861 -0.3923
11799TIP3    H156812   1.831   2.171  14.849 -1.0374  0.5487 -0.3391
11799TIP3    H256813   1.790   2.170  14.994 -1.3503  0.2106 -0.4275
11800TIP3   OH256814   5.287   6.460   3.258  0.3647 -0.3851  0.0930
11800TIP3    H156815   5.346   6.524   3.298 -1.7789  1.4866  0.4927
11800TIP3    H256816   5.282   6.485   3.166 -0.2428 -0.1656  0.1827
11801TIP3   OH256817   0.485   3.037   4.361 -0.3403  0.3266  0.1932
11801TIP3    H156818   0.496   3.079   4.276 -1.2820  1.9019  0.7860
11801TIP3    H256819   0.565   2.987   4.374  0.4395  1.2025 -0.9966
11802TIP3   OH256820   6.301   2.219   2.981  0.2712  0.2231 -0.4628
11802TIP3    H156821   6.360   2.145   2.994 -0.6155 -0.4556 -0.1491
11802TIP3    H256822   6.232   2.185   2.924  0.3716  1.1067 -1.1173
11803TIP3   OH256823   0.195   1.715  10.992  0.4732 -0.0393  0.1549
11803TIP3    H156824   0.184   1.810  10.984 -0.8749 -0.0183  1.6924
11803TIP3    H256825   0.248   1.691  10.916 -0.6846  1.6794 -1.3159
11804TIP3   OH256826   2.789   6.366  13.164  0.1304  0.2218 -0.1759
11804TIP3    H156827   2.796   6.303  13.092  1.9188 -0.0736  0.2047
11804TIP3    H256828   2.705   6.348  13.205  0.4401 -1.6858 -0.3126
11805TIP3   OH256829   3.734   2.048   6.449 -0.6024 -0.5592  0.4019
11805TIP3    H156830   3.674   2.122   6.446  0.0346  0.1118  2.5189
11805TIP3    H256831   3.687   1.980   6.498 -0.8558 -1.2761 -0.7918
11806TIP3   OH256832   6.366   6.000  13.254 -0.2376  0.0831 -0.3968
11806TIP3    H156833   6.377   6.093  13.273  2.4854 -0.1299 -0.4681
11806TIP3    H256834   6.315   5.997  13.173 -2.4068  1.3733  0.8209
11807TIP3   OH256835   5.091   0.079   1.097  0.2459  0.6480  0.3616
11807TIP3    H156836   5.103   0.148   1.031  0.0007  0.2977 -0.0538
11807TIP3    H256837   5.018   0.027   1.064  0.5797  0.0461  0.5590
11808TIP3   OH256838   2.677   0.291   1.231 -0.1796 -0.4709 -0.2036
11808TIP3    H156839   2.596   0.276   1.281 -0.6490  0.6306 -0.5968
11808TIP3    H256840   2.733   0.339   1.292  0.6047 -2.0826  0.4167
11809TIP3   OH256841   6.665   5.570  12.250 -0.2078  0.1368  0.6874
11809TIP3    H156842   6.665   5.617  12.166  0.3513  1.5650  1.4667
11809TIP3    H256843   6.742   5.515  12.246  0.1841  0.6891  0.5209
11810TIP3   OH256844   1.896   0.325   4.454 -0.4075  0.2906 -0.1683
11810TIP3    H156845   1.950   0.246   4.452  1.2383  1.3587 -2.7258
11810TIP3    H256846   1.917   0.367   4.538 -0.5206 -1.3822  0.7471
11811TIP3   OH256847   1.843   2.573  13.594 -0.0116  0.1546 -0.0793
11811TIP3    H156848   1.831   2.593  13.688  0.4959  0.2841 -0.0411
11811TIP3    H256849   1.823   2.656  13.550 -1.9393 -0.3347 -0.2259
11812TIP3   OH256850   0.900   4.073   0.863  0.1255  0.5170  0.2875
11812TIP3    H156851   0.845   4.054   0.938  0.2950 -2.3109 -0.1912
11812TIP3    H256852   0.853   4.140   0.814 -1.0621  0.7876  1.7457
11813TIP3   OH256853   2.744   3.942   5.128 -0.4098  0.3576  0.0220
11813TIP3    H156854   2.688   3.995   5.185 -0.4630  2.8170 -2.1365
11813TIP3    H256855   2.766   3.865   5.181 -2.4437  1.2823  2.4138
11814TIP3   OH256856   3.469   6.403   4.809 -0.5671 -0.1286 -0.3905
11814TIP3    H156857   3.500   6.492   4.824 -0.7284  0.3822 -2.7644
11814TIP3    H256858   3.499   6.382   4.721 -1.6836 -1.9331 -0.3776
11815TIP3   OH256859   5.045   4.043  17.002 -0.5357 -0.1608  0.1338
11815TIP3    H156860   5.018   4.129  17.034  0.8600 -0.1238  1.3070
11815TIP3    H256861   5.036   4.049  16.906  1.0087  1.8516  0.0358
11816TIP3   OH256862   2.429   5.923   4.347 -0.3366  0.5102 -0.5896
11816TIP3    H156863   2.486   5.855   4.310  1.3687  0.9292  1.1073
11816TIP3    H256864   2.341   5.898   4.318  0.0611 -3.0228  0.7249
11817TIP3   OH256865   0.853   2.485   6.008  0.1772  0.0229  0.3007
11817TIP3    H156866   0.788   2.522   6.068 -0.0934  0.9748 -0.5599
11817TIP3    H256867   0.903   2.424   6.062 -0.2709  0.6090  1.4089
11818TIP3   OH256868   5.606   5.035  11.713  0.6730 -1.4391 -0.3561
11818TIP3    H156869   5.571   4.947  11.731 -1.1167 -0.8346 -0.6238
11818TIP3    H256870   5.539   5.076  11.658  0.9503  0.4692  0.6656
11819TIP3   OH256871   4.755   3.716   2.475  0.1885  0.8874  0.2505
11819TIP3    H156872   4.736   3.806   2.448  1.6366  1.7043  1.7773
11819TIP3    H256873   4.804   3.679   2.401  0.6992  1.7817  0.1305
11820TIP3   OH256874   0.094   5.307   3.530  0.4893 -0.3035  0.1940
11820TIP3    H156875   0.146   5.349   3.599  0.2034  0.2144  0.0917
11820TIP3    H256876   0.107   5.213   3.546 -0.4390 -0.2239  1.6385
11821TIP3   OH256877   3.024   1.103   1.919  0.4047  0.2837  0.5358
11821TIP3    H156878   2.975   1.027   1.949  0.7706 -0.4102 -0.5730
11821TIP3    H256879   3.093   1.115   1.985 -0.7071  0.7523  1.6448
11822TIP3   OH256880   0.589   1.209   0.922 -0.0978  0.2101  0.0461
11822TIP3    H156881   0.532   1.226   0.997 -0.6317  1.6258 -0.6372
11822TIP3    H256882   0.582   1.288   0.869  0.7430 -0.5238 -1.1987
11823TIP3   OH256883   2.706   3.607   0.877 -0.9194  0.5802 -0.7574
11823TIP3    H156884   2.742   3.521   0.898 -1.0181  0.5784 -0.5922
11823TIP3    H256885   2.732   3.663   0.951 -1.2313  0.5834 -0.6476
11824TIP3   OH256886   1.536   4.225  12.658 -0.3784  0.2106  0.0228
11824TIP3    H156887   1.614   4.225  12.713 -1.3225  2.7576  1.5617
11824TIP3    H256888   1.555   4.291  12.590 -1.9657  2.7903  1.8842
11825TIP3   OH256889   1.327   3.492   5.617 -0.3463  0.1921  0.3973
11825TIP3    H156890   1.400   3.440   5.584 -0.7413 -1.2305  1.6434
11825TIP3    H256891   1.369   3.564   5.665  0.2404 -0.2478  0.5532
11826TIP3   OH256892   5.212   3.807   3.181 -0.2631 -0.1062  0.1519
11826TIP3    H156893   5.294   3.761   3.161  0.5225  0.7181  1.3506
11826TIP3    H256894   5.165   3.749   3.241 -0.5623 -0.5736 -0.5265
11827TIP3   OH256895   2.842   3.046  15.430 -0.1569  0.4048 -0.4018
11827TIP3    H156896   2.879   2.958  15.436  2.0197  1.2579 -0.0804
11827TIP3    H256897   2.894   3.088  15.360  1.0566  2.3479  1.5366
11828TIP3   OH256898   1.743   3.006   2.563 -0.1504  0.3641  0.1918
11828TIP3    H156899   1.741   3.008   2.468  1.2151 -0.5185  0.1224
11828TIP3    H256900   1.814   3.064   2.588  0.4352 -0.5012  0.5945
11829TIP3   OH256901   2.143   0.711  15.207 -0.5721 -0.1440 -0.1141
11829TIP3    H156902   2.165   0.687  15.297 -0.6727 -0.8151 -0.2611
11829TIP3    H256903   2.214   0.768  15.179 -0.3171 -0.2795  0.2505
11830TIP3   OH256904   0.072   2.383  17.175  0.2478  0.2012 -0.3632
11830TIP3    H156905   0.016   2.450  17.135 -1.6554 -0.3589  1.2151
11830TIP3    H256906   0.048   2.302  17.130  0.1093  0.0320  0.0141
11831TIP3   OH256907   6.566   1.581   3.013  0.3125 -0.4996 -0.1631
11831TIP3    H156908   6.603   1.659   3.054 -1.2419  1.1502 -1.6860
11831TIP3    H256909   6.474   1.601   3.002  0.1367 -1.9660 -1.9072
11832TIP3   OH256910   2.915   5.069  12.026 -0.4668 -0.2554  0.7751
11832TIP3    H156911   3.005   5.064  11.992  0.1841 -0.3603  2.4183
11832TIP3    H256912   2.873   5.135  11.972  0.4200 -0.6033 -0.4024
11833TIP3   OH256913   0.444   5.000   1.045  0.5185  0.3976 -0.3405
11833TIP3    H156914   0.411   5.089   1.050  1.6267  0.7861  0.6512
11833TIP3    H256915   0.500   4.999   0.968 -0.3679  0.2222 -1.0038
11834TIP3   OH256916   6.209   6.037  10.907  0.4669  0.1516  0.1166
11834TIP3    H156917   6.166   5.966  10.860  0.1035 -0.7505  1.7325
11834TIP3    H256918   6.295   6.046  10.864  0.0597 -0.4530 -0.8458
11835TIP3   OH256919   5.314   1.623   1.319  0.3646  0.1085 -0.0702
11835TIP3    H156920   5.245   1.639   1.255  0.7173  0.2092 -0.4337
11835TIP3    H256921   5.268   1.612   1.402 -0.2120 -1.3669 -0.5524
11836TIP3   OH256922   4.850   5.045  10.488 -0.3546 -0.2503  0.3581
11836TIP3    H156923   4.884   5.133  10.469  0.8472 -0.7384  0.1302
11836TIP3    H256924   4.850   5.040  10.584  1.7310 -0.7645  0.3757
11837TIP3   OH256925   5.014   0.028   0.640 -0.4330  0.4295  0.0927
11837TIP3    H156926   5.034   0.016   0.547 -0.1227  0.2783  0.1785
11837TIP3    H256927   5.097   0.011   0.685 -0.6663  0.1415  0.4232
11838TIP3   OH256928   6.761   5.596  12.557 -0.2460 -0.3925  0.5028
11838TIP3    H156929   6.684   5.618  12.505 -0.0289  1.7216  1.0193
11838TIP3    H256930   6.768   5.500  12.550 -2.3244 -0.5206 -0.3362
11839TIP3   OH256931   4.049   5.192  16.824 -0.0815 -0.2558  0.1291
11839TIP3    H156932   4.066   5.273  16.775 -1.5966  0.7478  1.1628
11839TIP3    H256933   4.017   5.130  16.758  0.7697  0.0856 -0.6216
11840TIP3   OH256934   0.369   4.480  11.507  0.1353  0.2133 -0.3891
11840TIP3    H156935   0.398   4.463  11.417  0.5958 -0.4268 -0.1281
11840TIP3    H256936   0.443   4.525  11.548  0.6634 -1.1212  0.1808
11841TIP3   OH256937   5.942   5.917  12.521 -0.5878  0.2139 -0.2824
11841TIP3    H156938   5.987   5.967  12.589 -2.9591 -0.2081  1.7380
11841TIP3    H256939   5.865   5.969  12.500 -0.7196 -0.4412 -1.4945
11842TIP3   OH256940   1.476   3.431   3.735 -0.4102 -0.1369  0.0855
11842TIP3    H156941   1.418   3.380   3.792 -1.9730  0.2677 -1.0549
11842TIP3    H256942   1.560   3.431   3.780 -0.5105 -3.1208  0.4473
11843TIP3   OH256943   1.801   6.297  12.840  0.0794 -0.0351  0.0787
11843TIP3    H156944   1.828   6.369  12.783  0.7565 -1.0618 -0.9504
11843TIP3    H256945   1.720   6.264  12.801  0.3489 -0.5091 -0.0858
11844TIP3   OH256946   6.367   4.490  13.731  0.1171 -0.1089  0.2141
11844TIP3    H156947   6.276   4.517  13.743  0.5498  1.4949  0.2422
11844TIP3    H256948   6.396   4.538  13.652  0.9117 -0.6335  0.1727
11845TIP3   OH256949   2.947   2.940  12.239 -0.5577 -0.5528 -0.4535
11845TIP3    H156950   3.013   3.006  12.257  0.2172 -0.8362 -2.0754
11845TIP3    H256951   2.905   2.969  12.157 -2.6988 -0.2066  0.6873
11846TIP3   OH256952   4.197   4.245  12.166  0.0074 -0.3497  0.8859
11846TIP3    H156953   4.134   4.283  12.105  1.0326 -0.9331 -0.5974
11846TIP3    H256954   4.215   4.315  12.229 -1.4751  0.0922  0.8563
11847TIP3   OH256955   4.928   2.667   0.515 -0.0752  0.4073 -0.6912
11847TIP3    H156956   4.940   2.761   0.501 -0.0305  0.1646 -2.5714
11847TIP3    H256957   4.914   2.632   0.427 -0.9148 -1.2409  0.0671
11848TIP3   OH256958   5.579   2.136  15.774  0.1509  0.8570 -0.4485
11848TIP3    H156959   5.674   2.140  15.789  0.0789  0.0480  0.2823
11848TIP3    H256960   5.547   2.223  15.800  0.6902  1.1405 -0.7160
11849TIP3   OH256961   5.843   4.870   2.330 -0.4219 -0.0774 -0.2422
11849TIP3    H156962   5.842   4.926   2.408  0.0608 -0.1402 -0.1884
11849TIP3    H256963   5.890   4.922   2.265 -0.2436 -0.2988 -0.2881
11850TIP3   OH256964   4.267   1.643  16.890  0.1999 -0.6087 -0.1154
11850TIP3    H156965   4.226   1.618  16.972  0.4493 -0.4391  0.0646
11850TIP3    H256966   4.194   1.659  16.830  0.0137 -0.5907  0.1141
11851TIP3   OH256967   2.172   5.942  12.496  0.2061 -0.5909 -0.5504
11851TIP3    H156968   2.098   5.965  12.552  0.8330  1.3804 -0.4299
11851TIP3    H256969   2.141   5.961  12.407  0.2810 -0.5819 -0.5742
11852TIP3   OH256970   1.689   2.569  11.471 -0.0064  0.0582  0.1213
11852TIP3    H156971   1.723   2.625  11.401  0.5805  0.7908  0.9629
11852TIP3    H256972   1.749   2.495  11.473 -1.4488 -1.2614 -1.7708
11853TIP3   OH256973   1.723   2.894   3.645 -0.4767  0.3067 -0.0140
11853TIP3    H156974   1.785   2.882   3.573 -1.5776  0.8613 -1.1124
11853TIP3    H256975   1.727   2.813   3.695  1.5981  0.5832  0.3627
11854TIP3   OH256976   0.022   6.598   0.448  0.1544 -0.0259 -0.4441
11854TIP3    H156977  -0.000   6.641   0.530  0.0841  1.4273 -1.1912
11854TIP3    H256978  -0.054   6.545   0.427  1.0609 -2.3007  1.5602
11855TIP3   OH256979   2.129   5.370  16.983 -0.4469  0.0840 -0.0471
11855TIP3    H156980   2.130   5.390  17.077 -0.3509  1.1000 -0.2507
11855TIP3    H256981   2.036   5.370  16.960 -0.6334 -2.2898  0.4481
11856TIP3   OH256982   5.960   3.432   0.548 -0.1918 -0.2210 -0.1275
11856TIP3    H156983   5.995   3.415   0.635  0.0281  0.3304 -0.1024
11856TIP3    H256984   5.997   3.363   0.493  0.9084  0.3170 -0.0904
11857TIP3   OH256985   6.257   1.657  16.092  0.1949 -0.3599  0.2986
11857TIP3    H156986   6.280   1.749  16.102 -0.4680  0.1962 -2.3593
11857TIP3    H256987   6.340   1.614  16.069  0.8365 -0.8254  3.1481
11858TIP3   OH256988   0.808   5.282  13.967  0.0616 -0.0390 -0.1795
11858TIP3    H156989   0.797   5.209  13.906 -0.7948 -0.7443  0.7823
11858TIP3    H256990   0.894   5.266  14.007 -0.2591 -0.7169  0.2598
11859TIP3   OH256991   0.820   6.377  16.584 -0.4233 -0.2245  0.6377
11859TIP3    H156992   0.800   6.394  16.492  0.4458  1.1848  0.6831
11859TIP3    H256993   0.898   6.321  16.580  0.0806  0.4777  0.5155
11860TIP3   OH256994   5.254   1.976  15.184  0.1244  1.0049  0.3996
11860TIP3    H156995   5.301   2.042  15.236  0.6496  0.0149  1.2319
11860TIP3    H256996   5.181   1.950  15.239  1.0173 -0.4829  0.9553
11861TIP3   OH256997   2.547   0.686  14.650  0.1764 -0.2825 -0.0204
11861TIP3    H156998   2.567   0.635  14.572  0.2898 -3.0187  1.6413
11861TIP3    H256999   2.464   0.648  14.682  0.2823  0.5475  1.3178
11862TIP3   OH257000   2.532   0.318   4.176  0.1815 -0.4823 -0.5611
11862TIP3    H157001   2.537   0.405   4.137  1.5026  0.5753  1.7391
11862TIP3    H257002   2.459   0.324   4.238  0.7604 -0.7544  0.1603
11863TIP3   OH257003   0.607   1.852  11.025  0.0425 -0.0224  1.0195
11863TIP3    H157004   0.688   1.836  11.075  0.2053 -0.8405  0.5108
11863TIP3    H257005   0.606   1.947  11.012  0.8841  0.0131  1.1131
11864TIP3   OH257006   3.755   4.924   0.243  0.0573 -0.6060  0.3109
11864TIP3    H157007   3.695   4.879   0.302  0.4105 -0.4866  0.7617
11864TIP3    H257008   3.710   4.924   0.158 -0.0238 -1.6610  0.3403
11865TIP3   OH257009   0.872   4.973  12.489 -0.2386 -0.3253 -0.7052
11865TIP3    H157010   0.858   4.896  12.544  3.0660 -0.2255  0.5044
11865TIP3    H257011   0.806   4.966  12.420 -1.3905 -3.0780  0.5300
11866TIP3   OH257012   5.532   3.662   0.158  0.0505  0.1366  0.4566
11866TIP3    H157013   5.581   3.694   0.083 -1.9372 -0.8537 -1.3752
11866TIP3    H257014   5.531   3.567   0.148 -0.9289  0.0382  1.2863
11867TIP3   OH257015   4.884   4.044  14.728  0.3201 -0.0603  0.0718
11867TIP3    H157016   4.962   4.088  14.693  0.9685 -1.0843  0.2186
11867TIP3    H257017   4.865   4.091  14.809  0.9283  0.0419  0.1623
11868TIP3   OH257018   3.223   3.770  13.749 -0.4572  0.4046  0.8335
11868TIP3    H157019   3.212   3.763  13.654  0.8649  1.0357  0.6139
11868TIP3    H257020   3.236   3.680  13.778 -0.4633  0.2499  0.3654
11869TIP3   OH257021   6.045   3.394   0.038 -0.3226  0.1141 -0.3521
11869TIP3    H157022   6.126   3.406   0.089 -0.4410  0.6986 -0.2962
11869TIP3    H257023   6.067   3.424  -0.050  0.0502 -1.4190 -0.8268
11870TIP3   OH257024   0.957   0.847   0.175  0.0977  0.3768 -0.1088
11870TIP3    H157025   1.045   0.879   0.159 -0.4922  2.6619  0.8337
11870TIP3    H257026   0.900   0.916   0.140 -1.3358 -1.0283 -0.6752
11871TIP3   OH257027   0.158   5.566  13.331  0.1241 -0.0112 -0.4768
11871TIP3    H157028   0.138   5.607  13.416 -1.4812  1.6990 -1.6038
11871TIP3    H257029   0.082   5.510  13.314  0.6883 -0.7602 -0.5728
11872TIP3   OH257030   6.256   3.684   4.985  0.3233  0.1348 -0.4142
11872TIP3    H157031   6.274   3.610   5.044 -0.8482  1.2488  1.4216
11872TIP3    H257032   6.177   3.659   4.938 -0.3168  0.3722  0.5168
11873TIP3   OH257033   5.749   5.125   6.484 -0.3843 -0.0066  0.0031
11873TIP3    H157034   5.751   5.062   6.412  1.3484 -1.3143  1.0940
11873TIP3    H257035   5.732   5.072   6.561 -1.7550  1.2993  0.6361
11874TIP3   OH257036   5.743   2.859   2.211 -0.5689  0.5031 -0.2096
11874TIP3    H157037   5.772   2.950   2.220 -0.0819  0.1831  2.2779
11874TIP3    H257038   5.647   2.864   2.210 -0.6441  0.9759  2.3622
11875TIP3   OH257039   4.325   1.082   2.953  0.1446 -0.5861  0.1633
11875TIP3    H157040   4.292   1.042   3.034 -0.7905  0.3624  0.2615
11875TIP3    H257041   4.318   1.013   2.888 -0.4365 -0.9222  0.5731
11876TIP3   OH257042   1.113   1.805  14.013  0.2897 -0.0487 -0.2586
11876TIP3    H157043   1.185   1.842  14.065  0.0932 -0.0910  0.0480
11876TIP3    H257044   1.100   1.718  14.049 -2.3631  1.1856  2.2777
11877TIP3   OH257045   6.229   4.134  16.930  0.5302 -0.1741  0.4404
11877TIP3    H157046   6.233   4.227  16.950  0.3593 -0.5351  2.3402
11877TIP3    H257047   6.137   4.111  16.939  0.5866 -0.5595  0.0762
11878TIP3   OH257048   2.877   3.091  16.087 -0.3655 -0.8745  0.2053
11878TIP3    H157049   2.958   3.054  16.122 -0.8278 -1.5470  0.5837
11878TIP3    H257050   2.846   3.025  16.025  0.1353  0.0368 -1.0679
11879TIP3   OH257051   3.609   2.565   2.998  0.9481  0.5119 -0.3587
11879TIP3    H157052   3.518   2.537   2.991  0.6477  1.7028 -1.8224
11879TIP3    H257053   3.658   2.485   3.015 -0.3322 -0.1843  0.1878
11880TIP3   OH257054   6.602   6.249   1.288  0.1649 -0.1840 -0.0545
11880TIP3    H157055   6.520   6.266   1.242 -0.9041 -1.0866  1.3994
11880TIP3    H257056   6.605   6.315   1.357  1.1861  0.4774 -0.7236
11881TIP3   OH257057   5.861   4.569   4.950  0.1393 -0.6618 -0.3702
11881TIP3    H157058   5.914   4.531   4.881  1.7202  0.8204 -0.0688
11881TIP3    H257059   5.886   4.520   5.029  0.8410 -0.2177 -0.2988
11882TIP3   OH257060   4.907   0.701  14.761  0.4803 -0.2161  0.2429
11882TIP3    H157061   4.943   0.660  14.840  0.6820 -1.6431 -0.5573
11882TIP3    H257062   4.978   0.698  14.698 -0.6091 -2.0323 -0.9924
11883TIP3   OH257063   1.437   0.574  12.068  0.0669 -0.2195 -0.2654
11883TIP3    H157064   1.465   0.534  11.986 -1.5003 -3.0311  0.4244
11883TIP3    H257065   1.510   0.558  12.128 -0.4408 -2.0747 -0.0586
11884TIP3   OH257066   6.349   3.187   5.059  0.3942  0.3748 -0.1896
11884TIP3    H157067   6.333   3.210   4.967  0.6348 -2.0369 -0.8839
11884TIP3    H257068   6.349   3.092   5.061  0.4134  0.3558  2.3425
11885TIP3   OH257069   5.610   4.994  16.155 -0.3414  0.8978 -0.0986
11885TIP3    H157070   5.624   4.956  16.068  0.3136  2.0535 -0.5195
11885TIP3    H257071   5.551   5.068  16.140  1.1394  2.1804  0.1264
11886TIP3   OH257072   6.093   5.151  14.324  0.1742  0.0350 -0.0760
11886TIP3    H157073   6.040   5.226  14.354 -0.1610 -0.3862  0.4151
11886TIP3    H257074   6.047   5.119  14.247 -0.8186 -0.8719  0.8520
11887TIP3   OH257075   0.501   3.336   4.400 -0.2699  0.4320  0.3610
11887TIP3    H157076   0.499   3.240   4.404 -0.3489  0.3802 -0.7360
11887TIP3    H257077   0.579   3.360   4.451 -0.8606 -0.1387  1.5820
11888TIP3   OH257078   3.523   6.057  14.487  0.1720 -0.0677 -0.0117
11888TIP3    H157079   3.524   5.973  14.441 -1.5320  0.1937 -0.5862
11888TIP3    H257080   3.431   6.081  14.492  0.6026  1.6372  0.4069
11889TIP3   OH257081   0.771   5.778  12.344  0.3916 -0.9895  0.3135
11889TIP3    H157082   0.700   5.746  12.289  0.0987 -1.8325  1.1695
11889TIP3    H257083   0.840   5.802  12.282 -1.2627  1.6189 -0.6884
11890TIP3   OH257084   5.502   6.270   0.196  0.2065 -0.1037 -0.5558
11890TIP3    H157085   5.464   6.329   0.131 -0.0541 -0.3524 -0.6291
11890TIP3    H257086   5.563   6.215   0.146 -0.3627 -0.6274 -0.6771
11891TIP3   OH257087   4.436   0.212  10.652  0.1115 -0.6105  0.2713
11891TIP3    H157088   4.373   0.177  10.589  0.7798  1.0885 -1.4600
11891TIP3    H257089   4.521   0.188  10.616  0.5186  0.7025  0.3010
11892TIP3   OH257090   1.872   0.790  13.790  0.1682 -0.4590 -0.7087
11892TIP3    H157091   1.953   0.821  13.831 -1.3730  3.3919 -0.1211
11892TIP3    H257092   1.892   0.787  13.697  0.6272  2.3010 -0.7943
11893TIP3   OH257093   2.757   5.776  15.219  0.8582 -0.3938 -0.8615
11893TIP3    H157094   2.664   5.799  15.216  0.3428 -2.2636 -1.0779
11893TIP3    H257095   2.784   5.774  15.127  0.9983 -0.2167 -0.8221
11894TIP3   OH257096   2.821   3.729   5.275 -0.1068  0.3517 -0.7386
11894TIP3    H157097   2.858   3.716   5.362 -1.5836  1.2410  0.0667
11894TIP3    H257098   2.879   3.680   5.216  1.5834  0.6801  0.5801
11895TIP3   OH257099   5.035   4.571   4.949 -0.1556  0.0477  0.0692
11895TIP3    H157100   5.062   4.590   5.039  1.0797 -1.0321 -0.0444
11895TIP3    H257101   4.939   4.577   4.951 -0.0471  2.3044  0.9019
11896TIP3   OH257102   4.696   3.062  13.468 -0.0648 -0.3873 -0.2351
11896TIP3    H157103   4.622   3.027  13.420  0.0015 -0.9533  0.0618
11896TIP3    H257104   4.759   3.089  13.400 -0.8675  0.8760 -0.5090
11897TIP3   OH257105   1.664   1.697   5.656 -0.6366  0.0484  0.0449
11897TIP3    H157106   1.711   1.659   5.582 -1.5089  0.2236 -0.6138
11897TIP3    H257107   1.628   1.623   5.704  0.0616 -0.0724  0.3943
11898TIP3   OH257108   1.848   4.190   1.466  0.5562  0.0652 -0.1536
11898TIP3    H157109   1.934   4.177   1.426  0.9775  1.3906  0.2491
11898TIP3    H257110   1.862   4.175   1.559  0.5643  1.0690  0.0224
11899TIP3   OH257111   6.642   3.085   1.527 -0.3317  0.0219 -0.1705
11899TIP3    H157112   6.571   3.096   1.590 -1.7457 -0.1011 -1.6987
11899TIP3    H257113   6.599   3.083   1.442  1.4172 -0.9314 -1.0883
11900TIP3   OH257114   2.752   4.262  12.643 -0.2306  0.1127  0.1228
11900TIP3    H157115   2.665   4.296  12.663 -0.0930 -0.1820  1.2918
11900TIP3    H257116   2.737   4.174  12.610 -0.2687 -1.0658  3.0188
11901TIP3   OH257117   6.020   2.217  17.017 -0.1133  0.0179  0.1069
11901TIP3    H157118   5.926   2.222  16.998  0.0571 -2.0854 -1.6932
11901TIP3    H257119   6.025   2.200  17.110 -1.5564 -0.4245  0.1252
11902TIP3   OH257120   2.069   6.305   3.269 -0.0672 -0.8005 -0.0491
11902TIP3    H157121   2.051   6.396   3.294  4.4667 -0.0258  1.3498
11902TIP3    H257122   2.057   6.304   3.174 -2.6774  0.4864  0.1786
11903TIP3   OH257123   0.843   0.159  12.686 -0.1460  0.4784  0.1292
11903TIP3    H157124   0.938   0.162  12.674 -0.1597  0.4502  0.0111
11903TIP3    H257125   0.824   0.067  12.705 -0.2538  0.3127 -0.7443
11904TIP3   OH257126   5.435   4.147   5.144 -0.0504 -0.2754  0.0920
11904TIP3    H157127   5.513   4.188   5.105  0.1775 -0.7439  0.0578
11904TIP3    H257128   5.382   4.222   5.173 -0.1587  0.0843 -0.9750
11905TIP3   OH257129   2.605   0.249  12.931 -0.8803 -0.2107  0.1747
11905TIP3    H157130   2.654   0.249  12.849 -1.0903  1.9238 -0.0248
11905TIP3    H257131   2.666   0.283  12.996 -2.0681  3.0313 -0.1892
11906TIP3   OH257132   5.002   1.565  16.510  0.4122  0.0732  0.1849
11906TIP3    H157133   4.943   1.563  16.585  0.6651 -0.6478  0.3648
11906TIP3    H257134   5.074   1.508  16.534  2.0771  2.2401  0.6810
11907TIP3   OH257135   0.132   6.511  15.741 -0.0395 -0.0811  0.1776
11907TIP3    H157136   0.095   6.462  15.667  0.3325  1.0310 -0.7704
11907TIP3    H257137   0.189   6.447  15.785 -0.2414 -0.7470 -0.5052
11908TIP3   OH257138   2.773   3.825  14.355 -0.5064  0.1605 -0.6746
11908TIP3    H157139   2.712   3.761  14.392 -1.4926  1.2736 -0.3192
11908TIP3    H257140   2.727   3.909  14.361  1.3582  1.1657  0.3122
11909TIP3   OH257141   1.016   5.061  12.901  0.1794  0.0611  0.0408
11909TIP3    H157142   0.954   5.015  12.845 -1.9812  0.1161  2.2243
11909TIP3    H257143   1.044   5.136  12.850 -0.7802 -0.5096 -1.3855
11910TIP3   OH257144   6.057   0.175   3.694 -0.1082 -0.2231  0.7942
11910TIP3    H157145   5.994   0.229   3.742  0.0613 -0.1691  0.9590
11910TIP3    H257146   6.074   0.101   3.752  1.3957  0.6868  1.6143
11911TIP3   OH257147   6.298   0.058   3.218 -0.0022 -0.1358  0.1435
11911TIP3    H157148   6.292   0.044   3.123 -0.4526 -2.2422  0.4305
11911TIP3    H257149   6.361  -0.008   3.247  0.7208  1.0024  1.2316
11912TIP3   OH257150   5.332   0.471   3.986  0.2568  0.0710 -0.1032
11912TIP3    H157151   5.343   0.451   4.079  0.6231 -0.0636 -0.1758
11912TIP3    H257152   5.321   0.566   3.983  3.4951  0.5382 -0.2035
11913TIP3   OH257153   0.202   2.415  11.993 -0.2021  0.5804  0.1459
11913TIP3    H157154   0.239   2.332  12.023 -1.5795 -1.2842 -2.7943
11913TIP3    H257155   0.109   2.410  12.016 -0.2971  1.3019 -0.0544
11914TIP3   OH257156   5.322   0.031   2.485  0.1398 -0.1341  0.6398
11914TIP3    H157157   5.383  -0.010   2.424 -0.0871  0.7567 -0.2091
11914TIP3    H257158   5.378   0.059   2.558  0.3761 -1.4035  0.9631
11915TIP3   OH257159   2.049   6.137   3.747  0.2995  0.3805  0.2234
11915TIP3    H157160   2.070   6.183   3.665  0.0935  0.0173 -0.0330
11915TIP3    H257161   2.069   6.201   3.815 -1.0361  1.2713 -0.1716
11916TIP3   OH257162   6.313   2.299   4.577  0.0685 -0.1944  0.1408
11916TIP3    H157163   6.264   2.364   4.628  0.3713 -0.3132  0.5857
11916TIP3    H257164   6.264   2.217   4.590  1.1396 -0.6189  1.7225
11917TIP3   OH257165   4.761   0.116  12.556 -0.1217  0.2701  0.2331
11917TIP3    H157166   4.712   0.085  12.633 -0.1812 -0.4292 -0.0708
11917TIP3    H257167   4.768   0.210  12.568 -1.0960  0.3205  0.5516
11918TIP3   OH257168   6.756   2.307  15.213 -0.6283 -0.7343 -0.1225
11918TIP3    H157169   6.797   2.247  15.151 -0.7916 -0.7562 -0.2090
11918TIP3    H257170   6.811   2.385  15.212  0.1319 -1.2327  0.6849
11919TIP3   OH257171   5.902   5.056   4.670  0.4051 -0.1599  0.0252
11919TIP3    H157172   5.809   5.055   4.651  0.5659  0.4970 -0.8491
11919TIP3    H257173   5.922   5.148   4.688  1.0228 -0.1771 -0.5339
11920TIP3   OH257174   0.480   3.787  10.968  0.0348  0.5590  0.9203
11920TIP3    H157175   0.513   3.699  10.948  0.5557  0.8853  0.3228
11920TIP3    H257176   0.393   3.789  10.928  1.0466  1.1893 -1.3727
11921TIP3   OH257177   5.561   3.943  14.683  0.3030 -0.4464 -0.0163
11921TIP3    H157178   5.642   3.955  14.731 -0.2146 -0.2766  0.8434
11921TIP3    H257179   5.540   4.030  14.649  0.0550 -0.3163  0.4656
11922TIP3   OH257180   6.320   0.148  16.053 -0.1516  0.5964 -0.2802
11922TIP3    H157181   6.271   0.160  16.135  1.8126  2.3173  0.7399
11922TIP3    H257182   6.359   0.061  16.061 -1.5324 -0.0558 -0.3158
11923TIP3   OH257183   2.400   1.691   0.542 -0.4436  0.5127 -0.5915
11923TIP3    H157184   2.373   1.772   0.585 -0.3936  0.8944 -1.2679
11923TIP3    H257185   2.465   1.654   0.601  1.2010  2.0949 -1.3003
11924TIP3   OH257186   4.111   1.096   2.314  0.0565  0.3411  0.1519
11924TIP3    H157187   4.094   1.131   2.227  1.0896  0.8714  0.1527
11924TIP3    H257188   4.030   1.112   2.363 -0.2923  0.6266 -0.5177
11925TIP3   OH257189   2.679   6.291  12.607  0.7140  0.4122  0.2495
11925TIP3    H157190   2.735   6.368  12.607 -0.8899  1.6466  1.7549
11925TIP3    H257191   2.732   6.224  12.563  1.8269  2.5451 -1.9531
11926TIP3   OH257192   6.770   3.900  12.387 -0.1270  0.1881 -0.1517
11926TIP3    H157193   6.830   3.876  12.317 -0.0929 -2.5703  0.6944
11926TIP3    H257194   6.822   3.893  12.467 -0.1187  3.4084  0.2448
11927TIP3   OH257195   4.011   0.861   0.101  0.1671  0.0186  0.0188
11927TIP3    H157196   4.057   0.795   0.153  0.1262 -2.3381 -2.6414
11927TIP3    H257197   4.081   0.918   0.068  0.3548  0.5557  1.2801
11928TIP3   OH257198   0.326   0.724  10.519  0.0601 -0.0222 -0.0424
11928TIP3    H157199   0.355   0.804  10.476  1.4129 -0.6388 -0.3064
11928TIP3    H257200   0.231   0.737  10.531  0.6052  2.7530  2.3752
11929TIP3   OH257201   2.155   2.754  12.464  0.0401  0.3093 -0.4399
11929TIP3    H157202   2.070   2.713  12.445  0.8303 -2.8777  1.9847
11929TIP3    H257203   2.215   2.713  12.403  0.0019  2.1419 -1.7683
11930TIP3   OH257204   5.298   5.251  12.663  0.2488  0.2383 -0.2463
11930TIP3    H157205   5.253   5.166  12.661  0.8224 -0.0693 -1.6889
11930TIP3    H257206   5.236   5.312  12.622  0.0320  0.4092  0.3376
11931TIP3   OH257207   6.175   0.213  11.603  0.1485 -0.1997 -0.0018
11931TIP3    H157208   6.248   0.274  11.596  0.2611 -0.3603 -0.2359
11931TIP3    H257209   6.174   0.166  11.520 -0.9900  0.6394 -0.4785
11932TIP3   OH257210   6.610   4.943  16.000  0.0793  0.6318 -0.0872
11932TIP3    H157211   6.520   4.920  15.976  0.1659 -0.9290  0.9371
11932TIP3    H257212   6.660   4.934  15.919 -0.5956  1.0397 -0.5558
11933TIP3   OH257213   2.301   4.644  13.831  0.4770 -0.3941  0.3026
11933TIP3    H157214   2.336   4.606  13.750  1.7146  1.5075 -0.1261
11933TIP3    H257215   2.218   4.599  13.845 -0.6551  0.3557 -2.9901
11934TIP3   OH257216   2.189   6.251  15.819  0.1491 -0.6222  0.9282
11934TIP3    H157217   2.110   6.282  15.863 -0.2787 -1.2754  0.6294
11934TIP3    H257218   2.247   6.225  15.890  0.7741  1.3966  1.2289
11935TIP3   OH257219   1.596   3.222   2.329  0.6030 -0.2507 -0.2413
11935TIP3    H157220   1.636   3.135   2.323 -0.3309 -0.6543 -0.8953
11935TIP3    H257221   1.567   3.241   2.239  1.2565  0.9700 -0.2195
11936TIP3   OH257222   0.799   2.333  15.237 -0.4823 -0.6079  0.2868
11936TIP3    H157223   0.794   2.237  15.242  1.4613 -0.7132  1.3628
11936TIP3    H257224   0.893   2.352  15.231 -0.8112  1.2396  0.3060
11937TIP3   OH257225   4.873   2.758  14.247 -0.0579 -0.2004 -0.0710
11937TIP3    H157226   4.890   2.670  14.214 -1.0207 -0.2296 -0.5272
11937TIP3    H257227   4.790   2.751  14.294  0.3662  0.2478  0.7704
11938TIP3   OH257228   3.903   0.767   4.184  0.3821  0.2860  0.5863
11938TIP3    H157229   3.982   0.713   4.188 -0.7674 -1.5852 -0.3705
11938TIP3    H257230   3.913   0.819   4.105  2.0160  2.4853  2.0909
11939TIP3   OH257231   3.571   1.411  13.624 -1.2358  0.2616 -0.6421
11939TIP3    H157232   3.643   1.375  13.676 -2.0946 -0.2472  0.2072
11939TIP3    H257233   3.542   1.488  13.674 -1.7189  0.0776 -0.6415
11940TIP3   OH257234   0.335   2.138   5.396 -0.3258 -0.1648 -0.4936
11940TIP3    H157235   0.260   2.184   5.359 -0.7255  1.4353  2.0507
11940TIP3    H257236   0.412   2.183   5.360 -0.7129  2.0987  1.3065
11941TIP3   OH257237   1.778   0.793   6.427 -0.3456  0.5159 -0.1526
11941TIP3    H157238   1.852   0.733   6.434 -1.3881 -0.7542  0.3221
11941TIP3    H257239   1.742   0.777   6.339 -1.3343 -0.4389  0.4043
11942TIP3   OH257240   3.335   1.024   1.448 -0.1721  0.4884 -0.1027
11942TIP3    H157241   3.392   0.974   1.507  1.7678 -1.3147 -3.2758
11942TIP3    H257242   3.259   0.968   1.435  0.2829  0.0183 -0.7700
11943TIP3   OH257243   0.951   2.118  12.768  0.8128  0.4684  0.2697
11943TIP3    H157244   0.865   2.158  12.759  1.2151  1.0138 -1.6786
11943TIP3    H257245   0.988   2.159  12.846 -0.5154  0.5358  0.8865
11944TIP3   OH257246   3.910   2.153   6.214  0.1060 -0.0321  0.4038
11944TIP3    H157247   3.935   2.239   6.247  1.3313 -1.0836  2.3470
11944TIP3    H257248   3.875   2.106   6.290 -1.6113 -0.9199 -0.8443
11945TIP3   OH257249   0.199   1.145   1.429  1.0001  0.1407  0.5235
11945TIP3    H157250   0.253   1.067   1.417  0.8247  0.0345  0.4203
11945TIP3    H257251   0.149   1.153   1.347  1.0185  0.3618  0.5323
11946TIP3   OH257252   0.196   5.024  15.398 -0.3659 -0.0051 -0.0919
11946TIP3    H157253   0.139   5.086  15.352  1.7522  2.1451 -0.0013
11946TIP3    H257254   0.242   4.977  15.328 -1.3357 -0.8842 -0.1550
11947TIP3   OH257255   0.212   6.590   3.035  1.0233  0.1468 -0.1994
11947TIP3    H157256   0.148   6.627   2.975  0.2097 -1.3845 -0.3314
11947TIP3    H257257   0.183   6.500   3.049  1.8099  0.1246  1.6329
11948TIP3   OH257258   3.868   2.508  13.899 -0.0376 -0.1567  0.1744
11948TIP3    H157259   3.786   2.534  13.940  0.3123  0.3876  0.5539
11948TIP3    H257260   3.917   2.590  13.890  1.4416 -0.7398  2.1679
11949TIP3   OH257261   3.512   4.941   5.786  0.0715  0.2048  0.1896
11949TIP3    H157262   3.591   4.963   5.835 -0.6039  1.6822  0.6598
11949TIP3    H257263   3.490   4.852   5.815  1.6565 -0.3217 -0.1241
11950TIP3   OH257264   1.610   2.171   3.314  0.0207  0.2180 -0.2487
11950TIP3    H157265   1.667   2.129   3.250  0.2342  0.2188 -0.0597
11950TIP3    H257266   1.620   2.118   3.393  0.7363  0.9497  0.1666
11951TIP3   OH257267   0.358   4.861  11.392 -0.6061 -0.5503  0.5999
11951TIP3    H157268   0.274   4.814  11.396 -0.3849 -0.9589  0.5181
11951TIP3    H257269   0.334   4.952  11.378 -1.1008 -0.3982  2.2233
11952TIP3   OH257270   4.261   1.638  13.923  0.3516 -0.2535  0.0873
11952TIP3    H157271   4.342   1.670  13.883  0.1654 -0.5492 -0.5317
11952TIP3    H257272   4.192   1.694  13.887  0.2240 -0.2802  0.2861
11953TIP3   OH257273   2.221   0.334   0.212  0.1975 -0.2538  0.1726
11953TIP3    H157274   2.149   0.279   0.242 -1.1346  1.2532 -0.1426
11953TIP3    H257275   2.265   0.361   0.292 -0.3602 -0.1779  0.4583
11954TIP3   OH257276   5.652   1.218   3.561  0.3764 -0.8139  0.4766
11954TIP3    H157277   5.602   1.189   3.485  0.5244  1.8076 -0.7511
11954TIP3    H257278   5.586   1.236   3.628 -0.1339  0.2165 -0.2735
11955TIP3   OH257279   0.304   0.012   0.779 -0.6767  0.3435  0.0733
11955TIP3    H157280   0.321  -0.009   0.871  2.9157  1.1598 -0.2510
11955TIP3    H257281   0.308   0.107   0.775 -0.2785  0.2988 -0.9845
11956TIP3   OH257282   6.688   0.876   4.992  0.4644  0.1008 -0.3546
11956TIP3    H157283   6.775   0.910   5.011  0.2673 -0.0188  0.8766
11956TIP3    H257284   6.629   0.951   5.007  0.3584  0.2072 -1.2655
11957TIP3   OH257285   3.264   5.469  15.614  0.3644  0.0175  0.2338
11957TIP3    H157286   3.270   5.445  15.521 -1.5696  1.5167 -0.3565
11957TIP3    H257287   3.217   5.552  15.614  0.9869  0.4338  2.5402
11958TIP3   OH257288   4.949   2.716   3.094 -0.0298 -0.6533 -0.5377
11958TIP3    H157289   4.854   2.716   3.100 -0.1075 -0.0791 -1.5759
11958TIP3    H257290   4.979   2.741   3.182 -0.8481 -0.1008 -0.4088
11959TIP3   OH257291   3.177   6.754  11.968  0.2805 -0.0516 -0.0140
11959TIP3    H157292   3.237   6.712  11.906 -0.3551 -1.2785  0.1753
11959TIP3    H257293   3.185   6.702  12.048 -0.1321  0.5239  0.4087
11960TIP3   OH257294   0.678   6.046   0.709  0.4342 -0.1514 -0.2278
11960TIP3    H157295   0.591   6.044   0.747 -0.4279  1.1992 -1.9888
11960TIP3    H257296   0.697   5.955   0.688 -1.7420 -0.2308 -2.2561
11961TIP3   OH257297   3.495   1.816   0.203  0.0217  0.0543 -0.0397
11961TIP3    H157298   3.516   1.816   0.296 -0.6001  0.7640  0.1081
11961TIP3    H257299   3.423   1.878   0.194 -1.1197 -1.2969 -0.7284
11962TIP3   OH257300   0.346   1.307  14.729 -0.7164  0.1131  0.0644
11962TIP3    H157301   0.390   1.354  14.800 -0.1365  1.2449 -1.0088
11962TIP3    H257302   0.335   1.218  14.762  0.7558  0.2748  1.0513
11963TIP3   OH257303   6.160   6.614   3.371  0.3402 -0.2606 -0.3048
11963TIP3    H157304   6.123   6.701   3.362  1.3542  0.0835 -1.4982
11963TIP3    H257305   6.117   6.577   3.447  2.7001  2.7698  2.8175
11964TIP3   OH257306   2.008   0.511  13.802 -0.3829 -0.5342 -0.0376
11964TIP3    H157307   1.993   0.416  13.809  0.4935 -0.6080  1.1654
11964TIP3    H257308   1.932   0.550  13.845 -0.1008 -0.7398  0.6638
11965TIP3   OH257309   2.295   4.106   4.087 -0.0713  0.0839  0.1821
11965TIP3    H157310   2.294   4.198   4.112  1.3455  0.1030  0.2403
11965TIP3    H257311   2.280   4.059   4.170  0.2827  0.2333  0.3294
11966TIP3   OH257312   6.726   2.893   2.524  0.2896  0.1643  0.8126
11966TIP3    H157313   6.817   2.888   2.497  0.4093  0.9170  1.0310
11966TIP3    H257314   6.696   2.978   2.493 -1.1500 -1.1236 -1.5996
11967TIP3   OH257315   1.012   2.171   4.379  0.0733 -0.5921  0.6894
11967TIP3    H157316   1.079   2.117   4.338 -0.5942 -2.9125  2.4722
11967TIP3    H257317   1.054   2.206   4.458  0.0461  0.3120  0.3098
11968TIP3   OH257318   2.535   6.301  14.206 -0.3103 -0.1687  0.2988
11968TIP3    H157319   2.556   6.238  14.275  0.8416 -2.3317 -1.8583
11968TIP3    H257320   2.596   6.374  14.221  0.5287 -0.9967  1.0591
11969TIP3   OH257321   1.702   4.171   5.584 -0.8600  0.4222 -0.6251
11969TIP3    H157322   1.703   4.195   5.677  0.3005  1.5938 -0.9055
11969TIP3    H257323   1.725   4.252   5.538  1.5931 -0.7765 -1.7478
11970TIP3   OH257324   0.325   3.132  15.538  0.0343 -0.4714 -0.2200
11970TIP3    H157325   0.291   3.043  15.539 -0.8954 -0.1372  0.7343
11970TIP3    H257326   0.298   3.167  15.453 -0.3289 -0.8319 -0.2572
11971TIP3   OH257327   0.615   2.751   2.413  0.0635  0.0407  0.0994
11971TIP3    H157328   0.581   2.824   2.464  0.6924  0.1434  0.3792
11971TIP3    H257329   0.541   2.692   2.402 -0.2122  0.2780  0.6718
11972TIP3   OH257330   3.501   0.189   5.021  0.2605  0.2160  0.1811
11972TIP3    H157331   3.414   0.219   5.047 -1.2618 -2.3458 -1.5763
11972TIP3    H257332   3.513   0.107   5.070  0.0997 -1.2743 -2.1350
11973TIP3   OH257333   3.895   4.471   3.302  0.3399  0.1046 -0.0710
11973TIP3    H157334   3.812   4.458   3.347  0.1102 -0.2931 -0.6004
11973TIP3    H257335   3.877   4.538   3.237  0.0153 -1.0889 -1.2418
11974TIP3   OH257336   3.352   4.650  11.217  0.9029  0.1754  0.0059
11974TIP3    H157337   3.420   4.619  11.157  0.3412 -0.7791 -0.1615
11974TIP3    H257338   3.278   4.591  11.202  0.7440 -0.1024  1.6375
11975TIP3   OH257339   6.486   3.626  16.373 -0.7437 -0.1936  0.2492
11975TIP3    H157340   6.431   3.703  16.357  0.7662  0.9429  0.2998
11975TIP3    H257341   6.557   3.634  16.309  0.3693 -0.6076  1.4061
11976TIP3   OH257342   2.596   2.868  13.858 -0.4109  0.3910  0.2487
11976TIP3    H157343   2.654   2.884  13.783 -0.0148 -0.9171  0.2543
11976TIP3    H257344   2.655   2.853  13.931 -0.7982  1.1971  0.7380
11977TIP3   OH257345   1.172   1.486   5.247 -0.0913  0.1338  0.6377
11977TIP3    H157346   1.221   1.541   5.309  0.2201 -0.2765  0.7658
11977TIP3    H257347   1.097   1.455   5.297  0.6026 -0.8742  1.0866
11978TIP3   OH257348   1.585   1.542  12.892 -0.3957  0.3393  0.7442
11978TIP3    H157349   1.598   1.500  12.977  1.6307 -0.7173 -0.0208
11978TIP3    H257350   1.515   1.606  12.907 -0.7355 -0.4657  2.9543
11979TIP3   OH257351   0.432   4.792   5.066 -0.0363 -0.5780  0.6473
11979TIP3    H157352   0.443   4.788   5.161  0.8109  2.1398  0.7793
11979TIP3    H257353   0.522   4.787   5.031  0.3122  3.4240  0.4570
11980TIP3   OH257354   1.920   2.309   2.366 -0.4088  0.0029 -0.5203
11980TIP3    H157355   1.834   2.346   2.384  0.0024  2.1360 -2.4745
11980TIP3    H257356   1.977   2.346   2.433 -0.2632  2.0267 -1.6834
11981TIP3   OH257357   4.906   6.725   0.967 -0.5282  0.2741  0.3450
11981TIP3    H157358   4.817   6.688   0.970 -1.1641  1.7041 -0.0231
11981TIP3    H257359   4.950   6.675   0.899 -0.8648 -0.8158  0.8943
11982TIP3   OH257360   1.211   1.809   2.545  0.4425 -0.4178  0.1608
11982TIP3    H157361   1.190   1.784   2.455  0.1886 -0.0690  0.1190
11982TIP3    H257362   1.305   1.828   2.544  0.7891 -2.0111  0.3478
11983TIP3   OH257363   2.557   4.178   0.191 -0.1938 -0.1287 -0.2902
11983TIP3    H157364   2.548   4.243   0.121 -0.7022 -0.8467 -0.9107
11983TIP3    H257365   2.552   4.093   0.146 -1.4024 -0.6170  0.6996
11984TIP3   OH257366   5.574   4.391  17.034 -0.0827 -0.6292 -0.1768
11984TIP3    H157367   5.651   4.445  17.049 -0.1596 -0.3941 -0.6005
11984TIP3    H257368   5.586   4.356  16.946 -1.0958  0.5062 -0.8015
11985TIP3   OH257369   2.912   2.168  14.372 -0.0359  0.2670 -0.3210
11985TIP3    H157370   2.964   2.098  14.332 -1.3135 -0.4506 -0.7816
11985TIP3    H257371   2.936   2.166  14.464  0.0523 -0.7123 -0.3521
11986TIP3   OH257372   3.555   5.433  13.340  0.6111 -0.5091  0.3174
11986TIP3    H157373   3.564   5.391  13.254 -0.5704  1.6343 -0.9383
11986TIP3    H257374   3.461   5.434  13.358  0.9073 -2.0957  2.3273
11987TIP3   OH257375   2.220   6.614   2.899  0.2802 -0.8796  0.2843
11987TIP3    H157376   2.158   6.641   2.967  0.6262 -1.1086  0.6948
11987TIP3    H257377   2.267   6.693   2.876  0.0249 -0.7602  0.1684
11988TIP3   OH257378   4.349   6.532   2.261 -0.7799 -0.5985 -0.6347
11988TIP3    H157379   4.362   6.460   2.200 -0.8316  0.4596 -1.9576
11988TIP3    H257380   4.254   6.547   2.261 -0.8672 -1.0969  0.3312
11989TIP3   OH257381   1.460   6.623   3.916 -0.3705 -0.6577 -0.5009
11989TIP3    H157382   1.422   6.587   3.836  1.1271 -1.3140 -0.9641
11989TIP3    H257383   1.481   6.714   3.894 -1.3064 -0.3870 -0.3434
11990TIP3   OH257384   1.578   6.254  15.221 -0.1486  0.4166  0.1240
11990TIP3    H157385   1.578   6.234  15.314  2.4029  1.1686  0.3463
11990TIP3    H257386   1.539   6.177  15.180  0.4779 -0.7658  1.6643
11991TIP3   OH257387   5.491   5.970   3.934 -0.2458 -0.2734  0.2892
11991TIP3    H157388   5.439   5.892   3.913  0.1285 -0.3589 -0.3584
11991TIP3    H257389   5.455   6.038   3.877 -0.1288 -0.1437  0.3705
11992TIP3   OH257390   2.523   5.635  13.997  0.7677 -0.0035  0.3346
11992TIP3    H157391   2.467   5.577  14.048 -2.7211  0.3928 -2.6202
11992TIP3    H257392   2.589   5.577  13.959  1.2123 -0.8669  2.2975
11993TIP3   OH257393   6.633   1.245   1.950  0.0411 -0.4423 -0.5339
11993TIP3    H157394   6.619   1.164   1.901 -1.6133 -0.2726 -0.4144
11993TIP3    H257395   6.549   1.260   1.995  1.2642 -0.2498  1.8344
11994TIP3   OH257396   0.691   6.185   4.613 -0.0071 -0.1890 -0.1920
11994TIP3    H157397   0.666   6.198   4.521  0.5283  0.3461 -0.2653
11994TIP3    H257398   0.642   6.107   4.639 -0.7414  0.0806 -0.7070
11995TIP3   OH257399   5.270   3.994   2.655  0.0832 -0.4321  0.0024
11995TIP3    H157400   5.286   3.953   2.740  1.9015 -1.9564 -0.9884
11995TIP3    H257401   5.177   4.016   2.656 -0.3640 -2.1562  1.6471
11996TIP3   OH257402   2.104   1.542   4.452 -0.3530  0.0816  0.5327
11996TIP3    H157403   2.020   1.548   4.407 -1.0878  0.3610  1.8786
11996TIP3    H257404   2.169   1.540   4.382 -1.3895  1.4086 -0.5263
11997TIP3   OH257405   4.508   0.970   3.770 -0.0974  0.0710  0.2778
11997TIP3    H157406   4.566   1.021   3.713  0.2760 -2.1293 -1.4360
11997TIP3    H257407   4.540   0.880   3.763 -2.7991 -1.0045  0.4175
11998TIP3   OH257408   0.089   2.684  16.078 -0.5865 -0.3633  0.7228
11998TIP3    H157409   0.171   2.704  16.123 -0.4336 -0.5955  0.5484
11998TIP3    H257410   0.102   2.715  15.988 -1.3264  1.2207  1.1169
11999TIP3   OH257411   3.907   3.831  16.523 -0.1256 -0.4646 -0.6867
11999TIP3    H157412   3.950   3.912  16.495  0.2817 -0.0520  0.9845
11999TIP3    H257413   3.907   3.836  16.619 -1.6420 -1.6450 -0.5785
12000TIP3   OH257414   3.899   0.920   4.888  0.1939  0.3550 -0.1570
12000TIP3    H157415   3.978   0.867   4.896  0.7982  1.2557  0.0383
12000TIP3    H257416   3.828   0.862   4.914  0.8335 -0.3498  0.0518
12001TIP3   OH257417   2.883   0.200  14.501  0.0136  0.4868  0.3206
12001TIP3    H157418   2.877   0.290  14.532 -0.4336  0.4512  0.3355
12001TIP3    H257419   2.977   0.180  14.504  0.1407  1.0419  0.0507
12002TIP3   OH257420   1.063   4.921   4.072 -0.6327 -0.4134  0.5694
12002TIP3    H157421   0.997   4.988   4.056  0.8258  0.8110 -0.6431
12002TIP3    H257422   1.074   4.877   3.987  1.1657  0.4561  0.2989
12003TIP3   OH257423   2.018   4.593  11.991 -0.4143 -0.2462  0.8465
12003TIP3    H157424   2.026   4.577  11.897 -2.5031 -0.7426  0.7034
12003TIP3    H257425   2.024   4.688  12.001  0.7009 -0.2584  0.3273
12004TIP3   OH257426   3.305   0.345  16.991  0.3881  0.6485  0.3510
12004TIP3    H157427   3.357   0.324  17.069 -0.0194  0.3900  0.5564
12004TIP3    H257428   3.283   0.259  16.953  0.5861  0.7725 -0.0518
12005TIP3   OH257429   2.041   1.945  11.081 -0.5573  0.3136 -0.8636
12005TIP3    H157430   2.106   1.883  11.050  0.3846  1.1172 -0.5655
12005TIP3    H257431   2.054   2.023  11.027 -1.2043  0.5195 -0.7306
12006TIP3   OH257432   2.126   6.439   0.978 -0.8776  0.5323 -0.6273
12006TIP3    H157433   2.130   6.344   0.971  0.1601  0.5867 -1.0103
12006TIP3    H257434   2.163   6.471   0.896 -1.1128  1.2707 -0.4572
12007TIP3   OH257435   6.614   2.311   2.105  0.0708  0.1279 -0.0454
12007TIP3    H157436   6.631   2.327   2.198 -0.9645 -1.9613  0.5551
12007TIP3    H257437   6.676   2.242   2.080  2.2499  2.4788 -1.7211
12008TIP3   OH257438   3.047   4.958  12.713  0.1657  0.1219 -0.2583
12008TIP3    H157439   3.011   5.025  12.655  1.1208  0.3569 -0.6042
12008TIP3    H257440   3.140   4.981  12.720  0.1210 -0.0595  1.1564
12009TIP3   OH257441   5.462   1.829   2.855 -0.2698 -0.2618 -0.2627
12009TIP3    H157442   5.424   1.901   2.906 -2.3664 -1.0423 -0.6098
12009TIP3    H257443   5.388   1.793   2.806  1.5867  0.3488 -3.8225
12010TIP3   OH257444   3.378   0.007   2.309 -0.6923  0.0180  0.7364
12010TIP3    H157445   3.468  -0.013   2.334 -1.0668 -0.5493  1.6728
12010TIP3    H257446   3.344  -0.075   2.275 -0.8598  0.2320  0.3853
12011TIP3   OH257447   2.103   3.899   1.376  0.2625  0.4848  0.0435
12011TIP3    H157448   2.109   3.995   1.375  2.8497  0.4510 -2.9447
12011TIP3    H257449   2.086   3.875   1.285  0.4833 -1.9359  0.5736
12012TIP3   OH257450   1.452   2.138   0.103  0.3289  0.0923 -0.0936
12012TIP3    H157451   1.466   2.132   0.008  2.0457  1.6549 -0.0000
12012TIP3    H257452   1.357   2.128   0.114  0.1790 -0.8889 -1.8775
12013TIP3   OH257453   3.470   3.683   4.801  0.0103 -0.0216 -0.5545
12013TIP3    H157454   3.564   3.701   4.809  0.0393  0.7090 -2.0570
12013TIP3    H257455   3.446   3.642   4.883  0.6433  4.1660  2.0106
12014TIP3   OH257456   4.839   4.876   4.620 -1.0126 -0.0093  0.5789
12014TIP3    H157457   4.840   4.971   4.635  3.1867  0.1945  0.2904
12014TIP3    H257458   4.825   4.867   4.526  0.2098  0.4995  0.3240
12015TIP3   OH257459   5.593   5.153   3.239  0.0585  0.1404  0.6664
12015TIP3    H157460   5.576   5.244   3.263  1.4850  0.7103 -0.3628
12015TIP3    H257461   5.513   5.124   3.195 -0.1984  1.0745  0.5079
12016TIP3   OH257462   0.233   2.793   0.570  0.6135 -0.2602 -0.5704
12016TIP3    H157463   0.294   2.825   0.504  0.0161 -0.6963 -1.3517
12016TIP3    H257464   0.216   2.702   0.545  0.0511 -0.2995 -0.0730
12017TIP3   OH257465   0.794   4.561  16.447 -0.0113 -0.4500  0.2952
12017TIP3    H157466   0.831   4.476  16.422 -0.7966  0.0067 -2.8961
12017TIP3    H257467   0.869   4.620  16.452  0.1983 -0.4961 -1.6415
12018TIP3   OH257468   1.195   2.365  10.695 -0.1771 -0.3970  0.2426
12018TIP3    H157469   1.131   2.293  10.696  0.3055 -0.8690 -0.8247
12018TIP3    H257470   1.144   2.441  10.667 -0.2038 -0.8759 -1.0979
12019TIP3   OH257471   3.976   2.924   2.318 -0.4195  0.2449  0.4633
12019TIP3    H157472   4.016   2.992   2.265  0.0618  0.2772  0.8606
12019TIP3    H257473   3.999   2.947   2.408 -0.3666 -0.3634  0.6113
12020TIP3   OH257474   6.410   5.465  16.965 -0.3262 -0.3448  0.3525
12020TIP3    H157475   6.472   5.508  17.024  0.9984  0.8046 -1.7492
12020TIP3    H257476   6.435   5.372  16.968 -0.0210 -0.2493  1.2318
12021TIP3   OH257477   0.040   1.629   5.984  0.2849  0.2192 -0.3168
12021TIP3    H157478   0.116   1.648   6.039 -0.6736 -0.6870  1.3875
12021TIP3    H257479  -0.020   1.703   5.999  0.3859  0.4100 -0.8384
12022TIP3   OH257480   2.860   3.955  16.243 -0.4926 -0.0259  0.3588
12022TIP3    H157481   2.812   3.879  16.275 -0.1981 -0.2206  0.3387
12022TIP3    H257482   2.910   3.922  16.168 -0.8027  0.3159 -0.0007
12023TIP3   OH257483   1.021   4.939  13.146  0.0840 -0.7977  0.5908
12023TIP3    H157484   1.011   4.993  13.068 -1.9142 -0.9133  0.7335
12023TIP3    H257485   1.111   4.957  13.175 -0.2524  1.9766  0.2548
12024TIP3   OH257486   5.133   5.152  14.567 -0.0060  0.1947  0.6582
12024TIP3    H157487   5.089   5.187  14.489  1.6035 -0.4549 -0.5891
12024TIP3    H257488   5.199   5.218  14.589 -2.9330  2.4175  4.0270
12025TIP3   OH257489   4.609   2.904  12.875  0.5188  0.2416  0.4556
12025TIP3    H157490   4.542   2.902  12.807  1.0494 -2.1041 -0.0857
12025TIP3    H257491   4.560   2.904  12.957 -0.1754 -0.8510  0.0634
12026TIP3   OH257492   5.295   6.002  13.804 -0.2341 -0.0343  0.7529
12026TIP3    H157493   5.248   5.994  13.888 -0.2141  1.5916  0.9489
12026TIP3    H257494   5.327   6.092  13.803 -1.6541  0.5452 -1.7424
12027TIP3   OH257495   4.495   3.273   2.329  0.0003  0.2394  0.3823
12027TIP3    H157496   4.420   3.333   2.332 -0.3989 -0.2601  0.5568
12027TIP3    H257497   4.566   3.326   2.293 -0.9131  0.2305 -1.5982
12028TIP3   OH257498   5.564   5.361  13.604 -0.2315 -0.3150  0.3489
12028TIP3    H157499   5.505   5.415  13.656  0.3349  0.0009  0.6644
12028TIP3    H257500   5.599   5.297  13.665  0.3108 -0.0461  0.3293
12029TIP3   OH257501   3.013   2.430   3.403  0.3829 -0.0243 -0.2998
12029TIP3    H157502   2.977   2.485   3.473  2.7721  2.9836 -1.2181
12029TIP3    H257503   2.955   2.444   3.329  0.2324  0.1971 -0.1400
12030TIP3   OH257504   1.853   6.416  16.227  0.2219 -0.3694 -0.1782
12030TIP3    H157505   1.802   6.496  16.231 -0.5513 -0.8103 -0.9524
12030TIP3    H257506   1.877   6.398  16.318  0.8297  0.9870 -0.0498
12031TIP3   OH257507   2.480   0.389  15.728  0.2196 -0.2398 -0.7286
12031TIP3    H157508   2.487   0.331  15.653 -0.9486  0.9766 -1.8360
12031TIP3    H257509   2.453   0.473  15.691 -2.6870 -0.1579  1.2473
12032TIP3   OH257510   3.760   1.395  14.508 -0.1875 -0.5137  0.1983
12032TIP3    H157511   3.678   1.417  14.553 -1.2561 -1.3866 -1.2490
12032TIP3    H257512   3.761   1.452  14.431  1.7043  1.0783  1.3068
12033TIP3   OH257513   4.570   4.568   5.656 -0.0429 -0.0395  0.3033
12033TIP3    H157514   4.509   4.521   5.713 -2.0422 -0.2140 -1.8235
12033TIP3    H257515   4.645   4.510   5.649 -0.6978 -1.0096  0.9901
12034TIP3   OH257516   5.024   6.171  11.499  0.2927 -0.4150  0.1046
12034TIP3    H157517   4.978   6.127  11.571  0.8121 -1.6778 -0.3026
12034TIP3    H257518   5.112   6.189  11.534  0.2714 -0.2522  0.0726
12035TIP3   OH257519   3.449   6.435  13.903  0.2087 -0.1227  0.1263
12035TIP3    H157520   3.472   6.353  13.860 -0.0619 -0.2799  0.2739
12035TIP3    H257521   3.353   6.431  13.913 -0.0745  1.0976 -1.6944
12036TIP3   OH257522   0.027   0.132   3.887 -0.3387 -0.5708 -0.1513
12036TIP3    H157523   0.119   0.139   3.863 -0.4469 -1.2049 -0.8037
12036TIP3    H257524  -0.010   0.073   3.821 -0.6781 -2.3450  1.5407
12037TIP3   OH257525   1.778   0.363   0.339  0.2679  0.6546  0.1264
12037TIP3    H157526   1.857   0.378   0.390  0.8998 -3.0536  0.5220
12037TIP3    H257527   1.706   0.375   0.402  0.7301  0.9712  0.5977
12038TIP3   OH257528   4.232   4.443   5.158  0.9134 -0.5706 -0.3854
12038TIP3    H157529   4.278   4.388   5.222  0.5090  0.5808  0.9476
12038TIP3    H257530   4.251   4.532   5.186 -0.1412 -0.0638 -1.2612
12039TIP3   OH257531   3.352   6.592   3.039  0.1568  0.0333 -0.0993
12039TIP3    H157532   3.400   6.675   3.041 -1.6987  1.1562  1.4210
12039TIP3    H257533   3.404   6.532   3.093  0.2216  1.0276  0.9801
12040TIP3   OH257534   1.452   1.381  12.252 -0.0989  0.0454 -0.3303
12040TIP3    H157535   1.361   1.352  12.259 -0.6164  1.8741  1.8970
12040TIP3    H257536   1.497   1.337  12.324  0.0653  1.3073  0.3773
12041TIP3   OH257537   3.339   1.963   3.800  0.1137  0.5576 -0.3848
12041TIP3    H157538   3.267   1.901   3.808  0.9896 -0.5145 -0.5335
12041TIP3    H257539   3.330   2.020   3.876  0.6214 -1.2298  1.1080
12042TIP3   OH257540   1.614   0.711  15.325 -0.2822 -0.2738  0.2424
12042TIP3    H157541   1.616   0.694  15.419  0.7158 -0.8805  0.1248
12042TIP3    H257542   1.705   0.701  15.297  0.0086  2.7100 -0.3017
12043TIP3   OH257543   5.737   4.420   2.067  0.1319 -0.2141  0.3439
12043TIP3    H157544   5.828   4.398   2.085  0.4175 -0.2113 -0.9952
12043TIP3    H257545   5.734   4.516   2.072  0.2553 -0.2017  0.1976
12044TIP3   OH257546   4.948   2.235  16.180  0.8577  0.0478  0.1878
12044TIP3    H157547   4.972   2.241  16.088  0.8497 -0.2641  0.1643
12044TIP3    H257548   4.855   2.260  16.182  0.9980  0.5707  0.1861
12045TIP3   OH257549   1.879   0.154   5.095 -0.2984  0.1782 -0.2127
12045TIP3    H157550   1.820   0.163   5.170  0.6697  3.2518  0.3225
12045TIP3    H257551   1.932   0.077   5.116 -1.3497 -0.1661  1.3273
12046TIP3   OH257552   5.841   4.283  13.579 -0.8871  0.0409 -0.4049
12046TIP3    H157553   5.807   4.216  13.638 -2.7645 -0.3291 -1.8204
12046TIP3    H257554   5.767   4.304  13.522  1.0674 -0.2925 -3.2350
12047TIP3   OH257555   4.033   3.427   0.160 -0.1999  0.1717  0.5171
12047TIP3    H157556   4.089   3.485   0.109 -0.0769  0.0179  0.4779
12047TIP3    H257557   4.049   3.340   0.125 -2.4775  0.4074 -1.3718
12048TIP3   OH257558   0.498   1.498   4.932 -0.8970 -0.3233 -0.7805
12048TIP3    H157559   0.500   1.590   4.959  0.0658 -0.7206  0.6921
12048TIP3    H257560   0.544   1.496   4.848 -0.1598  0.4398 -0.4119
12049TIP3   OH257561   2.344   1.231  14.829 -0.7696 -0.3432  0.2932
12049TIP3    H157562   2.409   1.213  14.761 -1.1263 -1.5395  0.2415
12049TIP3    H257563   2.371   1.315  14.866 -1.0918  0.8164 -1.9282
12050TIP3   OH257564   4.493   6.449  14.253 -0.0727 -0.0414 -0.5309
12050TIP3    H157565   4.552   6.476  14.183  0.7063 -2.3589 -0.8713
12050TIP3    H257566   4.547   6.447  14.331  0.2799 -1.8313 -0.7771
12051TIP3   OH257567   3.847   2.745  16.923 -0.2282 -0.8404 -0.2526
12051TIP3    H157568   3.779   2.688  16.959 -1.6497  1.2351  0.5452
12051TIP3    H257569   3.870   2.705  16.839 -0.8913 -2.7494  0.4243
12052TIP3   OH257570   1.734   2.849   1.933  0.3995  0.0584 -0.3436
12052TIP3    H157571   1.757   2.940   1.914  0.4607  0.1600  0.1903
12052TIP3    H257572   1.818   2.804   1.941  0.4085  0.2090  0.5603
12053TIP3   OH257573   0.353   2.679   0.253  0.3997 -0.6213 -0.3272
12053TIP3    H157574   0.317   2.754   0.206  0.5886  0.0878  0.6263
12053TIP3    H257575   0.446   2.680   0.232  0.4261 -0.5011 -0.2088
12054TIP3   OH257576   1.470   1.688   0.849 -0.1106  0.1236 -0.7216
12054TIP3    H157577   1.441   1.704   0.939  1.2603  0.3462 -0.2992
12054TIP3    H257578   1.389   1.687   0.798 -0.8742  0.4709  0.4397
12055TIP3   OH257579   4.676   1.645   5.427 -0.0580  0.0503 -0.1441
12055TIP3    H157580   4.716   1.678   5.347  2.5517  0.6319  1.2752
12055TIP3    H257581   4.664   1.723   5.482 -1.8813 -0.3200  0.0376
12056TIP3   OH257582   3.641   6.349   2.464 -0.1467 -0.0435  0.6955
12056TIP3    H157583   3.563   6.371   2.413  0.8578 -0.2757 -1.0183
12056TIP3    H257584   3.608   6.293   2.535 -1.7348  1.2215  0.9925
12057TIP3   OH257585   3.464   3.876  12.445 -0.4110  0.1072 -0.3151
12057TIP3    H157586   3.404   3.819  12.397  0.6094 -0.6980 -0.6661
12057TIP3    H257587   3.437   3.866  12.536 -0.5023 -0.6371 -0.4123
12058TIP3   OH257588   2.930   6.086   4.079  0.3385  0.0929 -0.1006
12058TIP3    H157589   2.964   6.073   4.167 -1.6043  1.5758  0.9335
12058TIP3    H257590   2.981   6.026   4.024  1.1057 -1.3727  2.1150
12059TIP3   OH257591   1.909   4.006   1.121  0.5036  0.4776  0.0307
12059TIP3    H157592   1.983   4.052   1.081 -0.0229  1.0147 -0.3621
12059TIP3    H257593   1.843   4.075   1.133 -0.2021 -0.1317 -0.3266
12060TIP3   OH257594   6.401   4.227  14.649 -0.8394  0.0192 -0.4307
12060TIP3    H157595   6.443   4.231  14.563 -0.1787  2.9859 -0.0695
12060TIP3    H257596   6.473   4.232  14.712 -1.4179 -0.3953  0.2781
12061TIP3   OH257597   4.457   3.800   5.283  0.5398  0.2576 -0.1459
12061TIP3    H157598   4.442   3.721   5.336 -1.0638 -0.1950 -1.1882
12061TIP3    H257599   4.379   3.807   5.228  1.2532  1.8358 -1.0333
12062TIP3   OH257600   2.375   3.696  12.107  0.0719  0.1466  0.1274
12062TIP3    H157601   2.382   3.608  12.143  2.2694  0.7846  1.4095
12062TIP3    H257602   2.374   3.683  12.012 -0.2426 -1.2654  0.3032
12063TIP3   OH257603   0.171   5.821   5.499  0.0308 -0.5524 -0.3944
12063TIP3    H157604   0.206   5.907   5.480 -2.7660  0.0181 -3.7989
12063TIP3    H257605   0.234   5.760   5.459  0.6350  0.0022 -0.3137
12064TIP3   OH257606   4.556   0.569  11.639  0.1472  0.3618 -0.1788
12064TIP3    H157607   4.605   0.623  11.700 -0.8345  0.7467  0.2856
12064TIP3    H257608   4.526   0.631  11.571 -0.4821  0.3123  0.0438
12065TIP3   OH257609   0.985   6.757  14.926  0.0384  0.6075  0.2576
12065TIP3    H157610   0.920   6.750  14.856 -0.4389  0.0496  0.7368
12065TIP3    H257611   1.067   6.776  14.882 -0.2831  0.3940 -0.4415
12066TIP3   OH257612   5.093   2.174   5.582 -0.3034 -0.2490  0.1697
12066TIP3    H157613   5.088   2.099   5.522  0.7747 -0.4048  0.2411
12066TIP3    H257614   5.008   2.177   5.624 -0.1886 -1.8197  0.5972
12067TIP3   OH257615   4.907   0.480  13.654  0.3815 -0.2386  0.5704
12067TIP3    H157616   4.856   0.417  13.705 -0.6366 -0.6132 -0.8608
12067TIP3    H257617   4.918   0.439  13.568  0.0643  1.3287 -0.2622
12068TIP3   OH257618   1.235   1.737   3.544  0.3323 -0.0905  1.0620
12068TIP3    H157619   1.241   1.642   3.548  0.5197 -0.0502  1.8840
12068TIP3    H257620   1.154   1.758   3.591 -0.0922  0.1188  0.2624
12069TIP3   OH257621   5.082   3.671   2.047  0.9068 -0.1387  0.2606
12069TIP3    H157622   5.128   3.684   1.965 -0.3719 -0.3636 -0.5244
12069TIP3    H257623   5.123   3.733   2.108  2.3490 -0.4809 -0.3237
12070TIP3   OH257624   5.807   5.278   6.241 -0.4130 -0.0451  0.1798
12070TIP3    H157625   5.806   5.222   6.163 -4.2245  2.1377 -1.6673
12070TIP3    H257626   5.847   5.360   6.212  0.0923  0.0809  1.1867
12071TIP3   OH257627   4.989   5.400   4.201 -0.1075  0.3332  0.0777
12071TIP3    H157628   4.908   5.370   4.242 -0.0857  1.7064  1.1879
12071TIP3    H257629   4.991   5.354   4.116 -1.5381 -0.4592  0.4334
12072TIP3   OH257630   2.706   6.787   0.602 -0.3011  0.6612  0.5975
12072TIP3    H157631   2.680   6.783   0.694  0.4535 -0.7550  0.7803
12072TIP3    H257632   2.719   6.880   0.585  0.2385  0.9028  2.1371
12073TIP3   OH257633   1.473   3.457  14.593  0.3261  0.1176  0.0003
12073TIP3    H157634   1.433   3.412  14.667 -0.6598  1.6546  0.4398
12073TIP3    H257635   1.540   3.396  14.561 -1.1677 -1.7872  0.3249
12074TIP3   OH257636   1.968   1.436  11.593 -0.0735 -0.4480 -0.0408
12074TIP3    H157637   1.998   1.512  11.642  1.4549 -0.1331 -1.3640
12074TIP3    H257638   1.943   1.373  11.660 -1.2381  1.1310  1.0929
12075TIP3   OH257639   4.017   6.102  16.604  0.0459  0.0019  0.1776
12075TIP3    H157640   3.964   6.181  16.594 -1.3835 -1.0317 -0.8103
12075TIP3    H257641   3.963   6.033  16.566  3.3543 -0.6992 -3.9380
12076TIP3   OH257642   4.752   3.936  16.917 -0.1543 -0.2454 -0.3948
12076TIP3    H157643   4.734   3.842  16.927 -0.5376 -0.1112  0.2891
12076TIP3    H257644   4.669   3.972  16.885 -0.0277 -0.1322 -0.5910
12077TIP3   OH257645   4.548   3.810   1.194  0.3291  0.1504  0.1216
12077TIP3    H157646   4.492   3.849   1.126  0.3406  1.8523  1.0200
12077TIP3    H257647   4.610   3.756   1.146 -1.2731 -0.7569 -0.9990
12078TIP3   OH257648   2.538   0.356  14.771 -0.2082  0.5566  0.1427
12078TIP3    H157649   2.457   0.316  14.802 -1.0781  0.7280 -1.7978
12078TIP3    H257650   2.601   0.340  14.841 -1.5825 -0.6721  1.1443
12079TIP3   OH257651   0.948   5.074  11.664  0.1820  0.0055 -0.3105
12079TIP3    H157652   0.986   5.122  11.591 -3.1205  1.3094 -1.3662
12079TIP3    H257653   1.009   5.087  11.737  0.7613  3.6500 -1.2550
12080TIP3   OH257654   2.274   0.665   3.188 -0.1142 -0.1612  0.4305
12080TIP3    H157655   2.229   0.740   3.226 -2.9782 -1.8475  0.6109
12080TIP3    H257656   2.255   0.593   3.248 -0.7451 -1.8592 -1.6841
12081TIP3   OH257657   3.566   6.185  16.677 -0.0452 -0.0765 -0.3423
12081TIP3    H157658   3.535   6.268  16.714 -0.0409 -0.6661  1.0387
12081TIP3    H257659   3.537   6.187  16.586 -1.6201  0.6562  0.1465
12082TIP3   OH257660   2.558   5.408   0.278  0.7102  0.7461 -0.5952
12082TIP3    H157661   2.493   5.451   0.223 -0.7981  0.9178  1.1886
12082TIP3    H257662   2.588   5.477   0.337  1.2247  0.2610 -0.2844
12083TIP3   OH257663   2.018   6.237  14.576 -0.1175 -0.0072 -0.0319
12083TIP3    H157664   1.997   6.144  14.574 -0.5537  0.0931 -0.2519
12083TIP3    H257665   2.010   6.265  14.484  2.1861 -0.2262 -0.3672
12084TIP3   OH257666   4.052   0.323   5.784 -0.2006 -0.6534 -0.0013
12084TIP3    H157667   3.970   0.372   5.787 -0.2878 -0.8425  1.2033
12084TIP3    H257668   4.097   0.355   5.705 -0.1477  1.5488  0.8630
12085TIP3   OH257669   2.731   1.582  14.017  0.1102 -0.1686  0.0578
12085TIP3    H157670   2.741   1.527  14.095  0.8651 -0.5094 -0.2806
12085TIP3    H257671   2.655   1.637  14.038  0.2133 -0.3496  0.9776
12086TIP3   OH257672   4.119   1.070  15.070 -0.1063 -0.1331 -0.6349
12086TIP3    H157673   4.059   1.097  15.140  1.8758 -1.2252  1.6629
12086TIP3    H257674   4.146   1.152  15.028 -0.6109  0.6698  0.5455
12087TIP3   OH257675   4.699   5.202  14.284 -0.4186  0.6969 -0.4846
12087TIP3    H157676   4.683   5.268  14.352 -0.7256 -0.7245  0.8715
12087TIP3    H257677   4.644   5.230  14.211 -3.0366  0.2864  1.2033
12088TIP3   OH257678   3.971   0.964  14.457  0.2529 -0.2451 -0.5049
12088TIP3    H157679   4.050   1.017  14.449 -0.8990  1.9488  1.4178
12088TIP3    H257680   3.995   0.894  14.517  0.9851 -0.0861 -0.6095
12089TIP3   OH257681   0.068   1.249   0.709  0.1315 -0.5385  0.1272
12089TIP3    H157682  -0.003   1.204   0.662  0.0650 -0.3343  0.0277
12089TIP3    H257683   0.057   1.341   0.685 -0.7974 -0.2101  1.6925
12090TIP3   OH257684   2.693   5.976  13.786  0.0039  0.3078 -0.1033
12090TIP3    H157685   2.664   6.041  13.850 -1.2605  0.7179 -1.0459
12090TIP3    H257686   2.767   5.932  13.828  0.8790  2.3200  0.5765
12091TIP3   OH257687   3.417   4.501  13.908 -0.0556 -0.6311 -0.0147
12091TIP3    H157688   3.322   4.509  13.905  0.1032  3.2133 -0.7627
12091TIP3    H257689   3.446   4.583  13.949  2.9627 -0.9638 -1.2447
12092TIP3   OH257690   2.647   6.183  17.064 -0.3325 -0.2465  0.4407
12092TIP3    H157691   2.568   6.217  17.022 -0.1992  0.4449  0.7451
12092TIP3    H257692   2.689   6.260  17.103  0.4539 -0.6165  0.3411
12093TIP3   OH257693   4.489   0.806  14.854  0.1944 -0.4964  0.7347
12093TIP3    H157694   4.460   0.769  14.938 -1.4795  1.4717  1.1050
12093TIP3    H257695   4.570   0.851  14.875 -0.4383  0.3549  1.4216
12094TIP3   OH257696   0.893   6.264   3.108 -0.2089 -0.4981  0.7491
12094TIP3    H157697   0.946   6.187   3.088  0.7732  0.5019 -0.7529
12094TIP3    H257698   0.940   6.308   3.179 -0.6632 -1.1568  1.4700
12095TIP3   OH257699   4.616   1.179  12.611  0.2335 -0.2479 -1.0562
12095TIP3    H157700   4.585   1.129  12.687  3.1537  0.2295  0.5973
12095TIP3    H257701   4.581   1.132  12.535  0.4102 -3.0636  0.4692
12096TIP3   OH257702   2.017   0.672   0.651  0.6528 -0.2285  0.4519
12096TIP3    H157703   2.017   0.684   0.556 -0.7755 -0.0330  0.4486
12096TIP3    H257704   2.089   0.727   0.682 -0.0046  1.1673 -0.3779
12097TIP3   OH257705   5.632   5.316   4.005 -0.5798 -0.2660 -0.6058
12097TIP3    H157706   5.572   5.289   4.075  1.0670 -1.3222  0.4625
12097TIP3    H257707   5.643   5.410   4.018 -3.0382  0.2659 -1.7126
12098TIP3   OH257708   0.600   2.793   1.806  0.3126 -0.3373  0.3886
12098TIP3    H157709   0.574   2.862   1.866 -0.2956  0.0701 -0.3151
12098TIP3    H257710   0.544   2.719   1.829 -0.2458 -0.0349  0.0437
12099TIP3   OH257711   0.940   5.186   3.181  0.4223  0.3590 -0.6114
12099TIP3    H157712   0.890   5.117   3.224  2.2668 -2.1416 -2.2280
12099TIP3    H257713   0.969   5.148   3.098  1.9885  2.9142 -1.3852
12100TIP3   OH257714   4.376   4.429  16.700 -0.3804 -0.0147  0.4267
12100TIP3    H157715   4.341   4.518  16.705  1.0727  0.6826 -1.0001
12100TIP3    H257716   4.429   4.420  16.779  0.7671  1.0223 -0.1759
12101TIP3   OH257717   6.180   0.922  12.591 -0.8398  0.3025  0.5805
12101TIP3    H157718   6.240   0.943  12.519 -1.2746 -0.8087 -0.1381
12101TIP3    H257719   6.119   0.995  12.593  0.4527  1.4208  1.2748
12102TIP3   OH257720   3.639   1.214  17.042  0.0725 -0.0174 -0.2073
12102TIP3    H157721   3.678   1.134  17.077  0.3772 -0.0097 -0.5208
12102TIP3    H257722   3.706   1.282  17.057 -0.4627  0.3321  0.6953
12103TIP3   OH257723   2.709   2.662   0.456 -0.1759 -0.0293  0.5441
12103TIP3    H157724   2.676   2.615   0.532  1.7327  0.2353  1.5842
12103TIP3    H257725   2.763   2.733   0.492 -2.5745  2.8122 -0.9447
12104TIP3   OH257726   2.408   0.558  16.566 -0.3610  0.0923 -0.1711
12104TIP3    H157727   2.337   0.578  16.505  0.2475  0.8446 -0.6589
12104TIP3    H257728   2.485   0.549  16.510 -0.2169 -1.6197  0.2518
12105TIP3   OH257729   3.182   0.101  16.921  0.3497 -0.0980  0.2053
12105TIP3    H157730   3.118   0.171  16.914 -2.2855 -2.4512 -1.4601
12105TIP3    H257731   3.184   0.079  17.014 -1.6091 -0.2224  0.2482
12106TIP3   OH257732   3.755   5.703  16.124 -0.0389 -0.3859 -0.1210
12106TIP3    H157733   3.735   5.749  16.042  1.6938  0.2585 -0.2269
12106TIP3    H257734   3.684   5.727  16.183  0.1812  1.4961 -0.5520
12107TIP3   OH257735   0.043   0.251  13.408 -0.9170 -0.6723  0.2983
12107TIP3    H157736  -0.039   0.206  13.386 -0.2244 -2.0859  0.5239
12107TIP3    H257737   0.106   0.181  13.422  0.8074  0.4220 -1.6134
12108TIP3   OH257738   0.221   4.245  16.264 -0.0847  0.0298  0.0635
12108TIP3    H157739   0.161   4.315  16.287 -0.7096 -0.8530  1.2430
12108TIP3    H257740   0.197   4.172  16.322 -2.1082 -2.6091 -3.6593
12109TIP3   OH257741   6.139   5.760   2.590 -0.4267  0.4418  0.1760
12109TIP3    H157742   6.194   5.691   2.553 -1.1252 -0.2360  0.3859
12109TIP3    H257743   6.129   5.736   2.682 -2.8157 -0.6286 -0.2950
12110TIP3   OH257744   4.242   5.891   4.090 -0.3515  0.3472  0.2466
12110TIP3    H157745   4.320   5.918   4.139  0.1107 -0.8319  0.1953
12110TIP3    H257746   4.226   5.963   4.029  1.8545 -0.1834 -1.0711
12111TIP3   OH257747   1.557   3.314   5.504 -0.2439 -0.1670 -0.1845
12111TIP3    H157748   1.644   3.346   5.481 -0.1407 -0.5297 -0.3114
12111TIP3    H257749   1.538   3.248   5.437  0.0709 -1.2589  0.7833
12112TIP3   OH257750   1.502   2.778  16.503 -0.4345 -0.0891 -0.1053
12112TIP3    H157751   1.535   2.690  16.490 -0.2600  0.1287 -1.2727
12112TIP3    H257752   1.579   2.834  16.496 -0.6982  0.2358 -0.4541
12113TIP3   OH257753   1.542   2.270  14.702  0.7643 -0.4942 -0.3393
12113TIP3    H157754   1.515   2.362  14.703  2.8322  0.1487 -0.1241
12113TIP3    H257755   1.572   2.254  14.613  1.0309 -0.7836 -0.1991
12114TIP3   OH257756   5.894   6.347   1.520 -0.3410 -0.0441  0.1614
12114TIP3    H157757   5.815   6.303   1.488 -0.8933 -0.1140  1.5722
12114TIP3    H257758   5.931   6.286   1.584  0.6654  0.1586 -0.2000
12115TIP3   OH257759   4.821   5.140   2.264 -0.1982 -0.1285  0.2362
12115TIP3    H157760   4.862   5.170   2.345 -0.3554 -0.1271  0.3147
12115TIP3    H257761   4.856   5.052   2.251  0.4178  0.1571 -0.1003
12116TIP3   OH257762   0.609   1.610  15.845 -0.3507 -0.2467 -0.3019
12116TIP3    H157763   0.668   1.552  15.894 -0.0025  0.5203  0.1964
12116TIP3    H257764   0.576   1.555  15.773 -0.8278 -1.3746  0.7492
12117TIP3   OH257765   4.961   6.200   4.495 -0.0945 -0.0825 -0.2203
12117TIP3    H157766   4.883   6.237   4.535 -0.8729 -1.9130  0.0426
12117TIP3    H257767   4.980   6.122   4.548  1.4724 -0.0817 -0.7388
12118TIP3   OH257768   0.272   0.232  10.795  0.4891 -0.5832 -0.3467
12118TIP3    H157769   0.288   0.137  10.796  0.1691 -0.6634 -1.5540
12118TIP3    H257770   0.358   0.270  10.779  0.6434 -0.6460  0.2798
12119TIP3   OH257771   4.548   1.314  12.902 -0.4260 -0.5429  0.2650
12119TIP3    H157772   4.635   1.348  12.923  0.0373  0.2495 -2.5687
12119TIP3    H257773   4.546   1.226  12.940  1.4505 -0.4332  0.6918
12120TIP3   OH257774   4.913   0.253  16.120  0.2855 -0.1439  0.6567
12120TIP3    H157775   4.847   0.260  16.190 -0.1346  1.7375  0.1408
12120TIP3    H257776   4.862   0.248  16.040  0.7695 -0.2816  0.3559
12121TIP3   OH257777   2.020   1.052   0.104  0.6391  0.3207  0.4551
12121TIP3    H157778   2.097   1.110   0.110  1.8459 -1.2833  1.0385
12121TIP3    H257779   2.056   0.968   0.076 -0.8464 -0.6119  1.2708
12122TIP3   OH257780   4.855   3.168  10.669 -0.2501  0.0466  0.2771
12122TIP3    H157781   4.833   3.256  10.641 -0.8826 -1.2213 -3.7545
12122TIP3    H257782   4.941   3.151  10.629 -0.7730 -1.6205 -0.2000
12123TIP3   OH257783   5.571   0.983  17.013 -0.1030  0.2262 -0.3079
12123TIP3    H157784   5.495   1.017  17.061 -0.0424 -0.4606  0.2973
12123TIP3    H257785   5.642   0.983  17.078  0.0628 -0.4201 -0.4812
12124TIP3   OH257786   3.877   3.595   6.446  0.0564  0.3123 -0.2998
12124TIP3    H157787   3.859   3.670   6.504 -0.5374  1.0388 -1.3808
12124TIP3    H257788   3.923   3.532   6.501 -2.4908 -0.0199  1.6199
12125TIP3   OH257789   0.787   5.866   4.520  0.0804  0.1431 -0.0904
12125TIP3    H157790   0.692   5.868   4.531 -0.3312  1.9370 -2.7826
12125TIP3    H257791   0.821   5.913   4.596 -1.2322  0.0699  0.5685
12126TIP3   OH257792   2.143   3.041   5.770 -0.5544 -0.0937  0.1915
12126TIP3    H157793   2.078   3.066   5.836 -0.0361  1.9304 -0.0201
12126TIP3    H257794   2.165   3.122   5.725 -0.6181 -1.3499 -2.2651
12127TIP3   OH257795   1.945   0.186  17.171  0.0857 -0.0670 -0.0546
12127TIP3    H157796   1.912   0.145  17.091 -4.0280 -0.5021  1.6254
12127TIP3    H257797   1.978   0.113  17.224  0.4564 -0.1159 -0.3561
12128TIP3   OH257798   3.954   1.698   0.693 -0.2058 -0.4886  0.3526
12128TIP3    H157799   4.042   1.733   0.699  0.8945 -2.7541 -1.0382
12128TIP3    H257800   3.934   1.700   0.599 -1.2353 -0.9232  0.5432
12129TIP3   OH257801   4.907   3.075   1.764  0.2729  0.1117  0.6926
12129TIP3    H157802   4.930   3.000   1.709 -0.9318  1.0109 -1.1302
12129TIP3    H257803   4.850   3.039   1.832 -1.5074 -0.4588 -1.0142
12130TIP3   OH257804   4.067   3.971   3.528  0.0624  0.3505  0.2626
12130TIP3    H157805   3.997   3.907   3.542 -1.6804  1.2604 -3.0873
12130TIP3    H257806   4.142   3.918   3.500  0.0612 -0.4752  1.7104
12131TIP3   OH257807   6.621   1.323  15.408  0.3042 -0.3021 -0.2264
12131TIP3    H157808   6.608   1.279  15.492 -0.2477  2.2119  1.1379
12131TIP3    H257809   6.560   1.280  15.348 -1.1294 -0.5590  1.3358
12132TIP3   OH257810   1.434   3.360  12.523 -0.5712  0.2920 -0.1063
12132TIP3    H157811   1.351   3.343  12.478  0.5556 -1.0519 -1.7863
12132TIP3    H257812   1.471   3.435  12.477  0.8065 -1.3776 -1.8702
12133TIP3   OH257813   4.400   3.750  16.297  0.4420 -0.2169  0.2664
12133TIP3    H157814   4.313   3.745  16.258  0.7834 -1.5728 -0.3844
12133TIP3    H257815   4.405   3.839  16.333 -1.6604 -0.5062  1.4385
12134TIP3   OH257816   3.043   5.298   0.896 -0.3202  0.5698 -0.1542
12134TIP3    H157817   3.071   5.381   0.933  0.8664  0.7509 -1.3726
12134TIP3    H257818   3.104   5.233   0.932 -1.7255  0.0477  1.4232
12135TIP3   OH257819   3.189   3.236  14.921  0.0477 -0.2217  0.3685
12135TIP3    H157820   3.280   3.261  14.905 -0.0854 -0.1676 -0.3411
12135TIP3    H257821   3.142   3.266  14.843 -0.1559 -2.4865 -0.4559
12136TIP3   OH257822   4.092   4.212  16.597 -0.7270 -0.1798  0.3951
12136TIP3    H157823   4.020   4.156  16.568  0.1384 -1.8241  1.2673
12136TIP3    H257824   4.145   4.226  16.519 -2.4646  1.9095 -0.5114
12137TIP3   OH257825   3.033   0.257  13.383 -0.1028  0.4015 -0.4611
12137TIP3    H157826   2.948   0.249  13.426  0.6321  0.4661  1.0664
12137TIP3    H257827   3.038   0.182  13.324  0.1703 -1.6196  1.9656
12138TIP3   OH257828   0.347   3.927   2.890  1.3957 -0.3850  0.1127
12138TIP3    H157829   0.257   3.906   2.866  0.9746 -0.6796  1.8059
12138TIP3    H257830   0.381   3.975   2.815  0.2621 -1.4015 -1.1203
12139TIP3   OH257831   3.539   6.527   4.248  0.3025  0.1189  0.3070
12139TIP3    H157832   3.478   6.543   4.176  0.5548  2.3219  0.5027
12139TIP3    H257833   3.618   6.493   4.207 -0.2598 -0.6042 -0.1976
12140TIP3   OH257834   3.801   5.786  11.389  0.3684  0.1514  0.0917
12140TIP3    H157835   3.733   5.852  11.387 -0.3965 -0.6235 -2.0100
12140TIP3    H257836   3.851   5.800  11.309 -0.4895 -2.4243 -0.9980
12141TIP3   OH257837   2.293   6.319  15.227 -0.1461 -0.8358  0.0102
12141TIP3    H157838   2.380   6.354  15.210 -0.1398 -0.7730  0.1759
12141TIP3    H257839   2.264   6.363  15.307 -1.2233  0.8266 -1.2306
12142TIP3   OH257840   1.439   0.652   3.250  0.1959  0.5778  0.2364
12142TIP3    H157841   1.433   0.589   3.322  1.4140 -1.1021 -1.0394
12142TIP3    H257842   1.419   0.600   3.172  1.6021  1.6553 -0.8991
12143TIP3   OH257843   0.310   0.951  11.201  0.0135 -0.0658  0.4255
12143TIP3    H157844   0.371   0.991  11.264  0.9387 -1.0631  0.2104
12143TIP3    H257845   0.287   1.022  11.141  1.2293  0.2830  0.3326
12144TIP3   OH257846   4.567   1.627   0.607 -0.2730  0.3186 -0.0042
12144TIP3    H157847   4.533   1.708   0.570  1.6740  1.2917  0.1736
12144TIP3    H257848   4.645   1.608   0.554 -0.4026 -1.1537  0.3039
12145TIP3   OH257849   2.129   1.423   0.495 -0.4351  0.4472  0.1745
12145TIP3    H157850   2.186   1.475   0.439  0.3635  0.6577  1.1363
12145TIP3    H257851   2.139   1.333   0.464  1.8269  0.2053  1.4019
12146TIP3   OH257852   6.288   5.975   6.698  0.2020 -0.0477 -0.2530
12146TIP3    H157853   6.383   5.983   6.693  0.0740  2.2610 -0.3441
12146TIP3    H257854   6.257   5.996   6.610 -0.4379  1.0665  0.2096
12147TIP3   OH257855   5.165   5.213  11.938 -0.5056 -0.0504  0.0352
12147TIP3    H157856   5.128   5.129  11.911  1.4313 -0.7554 -0.5910
12147TIP3    H257857   5.166   5.266  11.858 -1.2453  0.4127  0.3192
12148TIP3   OH257858   3.358   1.804  13.163  0.0662  0.1084  0.6482
12148TIP3    H157859   3.369   1.899  13.175  1.5512 -0.1768  1.9710
12148TIP3    H257860   3.349   1.770  13.251  1.0017 -1.1205  0.2979
12149TIP3   OH257861   3.462   4.785  13.971  0.0419  0.8762  0.5781
12149TIP3    H157862   3.543   4.735  13.972 -0.6370 -0.2627  0.8849
12149TIP3    H257863   3.476   4.852  13.905 -0.1152 -1.6429 -2.2268
12150TIP3   OH257864   2.627   5.824   5.397  0.1488 -0.0232 -0.5015
12150TIP3    H157865   2.575   5.897   5.431  1.3289  1.0801 -0.9485
12150TIP3    H257866   2.685   5.865   5.333  0.3974 -1.4853 -1.2503
12151TIP3   OH257867   3.818   4.556   4.255 -0.0038 -0.2592 -0.5915
12151TIP3    H157868   3.913   4.546   4.247 -0.2033 -0.4611 -3.6021
12151TIP3    H257869   3.783   4.502   4.184 -2.3543  0.5167 -0.0762
12152TIP3   OH257870   2.872   2.485  11.582 -0.7789  0.5589  0.6212
12152TIP3    H157871   2.811   2.426  11.537 -0.9997 -0.2192  1.8897
12152TIP3    H257872   2.958   2.444  11.571 -0.9870 -0.2463  1.8489
12153TIP3   OH257873   1.809   0.455   6.376 -0.2302  0.7190  0.7407
12153TIP3    H157874   1.764   0.382   6.333  1.2988 -0.0933  0.4617
12153TIP3    H257875   1.835   0.513   6.304  0.7163  0.2879  0.7307
12154TIP3   OH257876   0.753   3.432   4.692  0.3720 -0.2230 -0.1165
12154TIP3    H157877   0.734   3.358   4.635 -0.5703 -0.6824  0.7414
12154TIP3    H257878   0.677   3.436   4.751  0.3400  1.5079 -0.2314
12155TIP3   OH257879   3.804   4.912  12.638 -0.0662  0.6597  0.5672
12155TIP3    H157880   3.848   4.869  12.711 -0.8478 -0.9080  0.1468
12155TIP3    H257881   3.846   4.998  12.633  2.2352 -0.3675  0.8459
12156TIP3   OH257882   5.335   6.557   4.150  0.4778 -0.1400  0.0933
12156TIP3    H157883   5.333   6.480   4.207 -0.4032 -0.0462  0.2007
12156TIP3    H257884   5.243   6.576   4.131  0.6879  0.8078 -0.0446
12157TIP3   OH257885   5.798   2.517   2.374  0.3319  0.3672 -0.3058
12157TIP3    H157886   5.880   2.558   2.346 -0.3493  2.0366 -0.0220
12157TIP3    H257887   5.824   2.455   2.441  1.4251  0.4378 -0.6381
12158TIP3   OH257888   1.199   4.578  13.698 -0.2882  0.2501  0.4530
12158TIP3    H157889   1.167   4.637  13.630  0.3241  2.0057  1.6198
12158TIP3    H257890   1.128   4.515  13.710 -1.1461  0.9847 -0.5530
12159TIP3   OH257891   6.616   3.505   0.393  0.2548  0.1723 -0.1402
12159TIP3    H157892   6.711   3.503   0.406  0.2424 -2.4535  0.2563
12159TIP3    H257893   6.588   3.587   0.431  2.0346 -0.4153  2.7664
12160TIP3   OH257894   3.450   0.345  16.566  0.2112  0.2938 -0.4428
12160TIP3    H157895   3.477   0.433  16.538  0.6313  0.5333  0.6446
12160TIP3    H257896   3.386   0.362  16.636  2.4996 -0.1715  1.9282
12161TIP3   OH257897   6.609   4.495  15.833 -0.1437 -0.2940  0.1268
12161TIP3    H157898   6.654   4.417  15.800  0.5786  0.6279 -1.1575
12161TIP3    H257899   6.519   4.466  15.850  0.4497 -1.7118  0.9499
12162TIP3   OH257900   0.719   3.877  15.597  0.0224  0.2148 -0.1165
12162TIP3    H157901   0.738   3.824  15.675 -0.3423 -0.4611 -0.4786
12162TIP3    H257902   0.697   3.964  15.632 -0.6414 -0.2140  0.5767
12163TIP3   OH257903   0.380   0.571  13.259 -0.0120 -0.6036 -0.4752
12163TIP3    H157904   0.419   0.609  13.338 -0.4726 -3.0963  1.0937
12163TIP3    H257905   0.434   0.494  13.240 -1.2246 -1.3219 -1.2066
12164TIP3   OH257906   2.704   4.759   0.309 -0.4209 -0.4510 -0.2650
12164TIP3    H157907   2.734   4.832   0.255 -2.5319  0.0399 -0.8764
12164TIP3    H257908   2.737   4.681   0.264  0.1661  0.0455 -0.7203
12165TIP3   OH257909   2.428   0.381   6.299  0.7815  0.6292  0.7825
12165TIP3    H157910   2.460   0.430   6.224  0.0581  0.2613  0.2104
12165TIP3    H257911   2.456   0.291   6.283  0.5999  0.5435  0.9368
12166TIP3   OH257912   2.293   2.229   6.119 -0.0060  0.2544 -0.3077
12166TIP3    H157913   2.301   2.301   6.182  0.3761 -0.4478  0.4704
12166TIP3    H257914   2.220   2.177   6.151  0.0086  0.0447 -0.6090
12167TIP3   OH257915   2.349   0.613   4.375  0.0634 -0.2668 -0.2528
12167TIP3    H157916   2.288   0.546   4.345 -1.4904  0.2113  1.6582
12167TIP3    H257917   2.296   0.691   4.386  0.9391  0.1283  1.6092
12168TIP3   OH257918   1.042   5.230  10.626 -0.0016 -0.3583  0.5721
12168TIP3    H157919   1.017   5.317  10.597  2.1845  1.0557  2.5428
12168TIP3    H257920   1.026   5.173  10.551 -0.3251  1.9607 -1.1950
12169TIP3   OH257921   1.012   3.373  10.963  0.4866  0.3986 -0.6196
12169TIP3    H157922   0.950   3.439  10.931 -2.1053 -1.7676 -0.3415
12169TIP3    H257923   1.065   3.351  10.886 -1.4111 -0.1356 -1.8551
12170TIP3   OH257924   3.895   3.382  13.301  0.2774  0.2242 -0.5747
12170TIP3    H157925   3.829   3.451  13.300 -0.3669 -0.3287  1.1779
12170TIP3    H257926   3.962   3.414  13.361  0.9297  0.1489 -1.2422
12171TIP3   OH257927   1.315   1.594   6.088  0.0862  0.4169  0.0454
12171TIP3    H157928   1.332   1.550   6.005  0.8430  1.1889 -0.2179
12171TIP3    H257929   1.400   1.600   6.130 -0.1820  0.6565  0.5618
12172TIP3   OH257930   6.080   5.799  14.382  0.4256  0.5127  0.2052
12172TIP3    H157931   6.077   5.858  14.457  0.0476  1.4674 -0.5227
12172TIP3    H257932   6.119   5.719  14.415 -2.3413 -0.1660  2.1327
12173TIP3   OH257933   4.192   1.097  11.152 -0.4326 -0.0897  0.7299
12173TIP3    H157934   4.180   1.022  11.095  1.5679 -0.8604  1.2208
12173TIP3    H257935   4.152   1.071  11.235  0.3561 -0.6870  0.9334
12174TIP3   OH257936   2.340   3.540   5.628 -0.4578  0.6459  0.6149
12174TIP3    H157937   2.347   3.519   5.721 -2.2340 -0.2979  0.5794
12174TIP3    H257938   2.247   3.558   5.614 -0.4275 -0.2882 -1.1638
12175TIP3   OH257939   1.133   4.965   1.880 -0.1100 -0.3054  0.0501
12175TIP3    H157940   1.071   5.000   1.944 -0.6241 -0.2735 -0.4601
12175TIP3    H257941   1.180   5.042   1.849  0.9923 -0.4550  1.2615
12176TIP3   OH257942   1.887   0.223  10.590 -0.2440  0.1738 -0.2500
12176TIP3    H157943   1.911   0.272  10.669 -0.9938  0.6357 -0.3009
12176TIP3    H257944   1.900   0.131  10.615 -1.3959  0.2460  0.7674
12177TIP3   OH257945   0.295   6.566   3.312 -0.5762 -0.4230 -0.6797
12177TIP3    H157946   0.258   6.575   3.224  0.7605  0.6118 -1.1623
12177TIP3    H257947   0.225   6.526   3.363 -1.3368 -1.1841 -2.2420
12178TIP3   OH257948   6.256   4.855   1.785 -0.0534  0.0141  0.3188
12178TIP3    H157949   6.244   4.830   1.877  0.6815  0.7885  0.6386
12178TIP3    H257950   6.288   4.775   1.743 -1.4186 -0.6528  0.4843
12179TIP3   OH257951   4.811   3.387   3.446  0.3064 -0.1098  0.5116
12179TIP3    H157952   4.885   3.427   3.491  1.1661  0.0118 -0.9460
12179TIP3    H257953   4.763   3.460   3.407  1.0537 -0.3518 -0.9254
12180TIP3   OH257954   4.155   4.777  14.911 -0.1615 -0.1342 -0.0148
12180TIP3    H157955   4.242   4.780  14.870 -1.1496  0.5708 -2.1735
12180TIP3    H257956   4.139   4.866  14.940 -0.6521  0.0231 -0.7442
12181TIP3   OH257957   0.861   4.328   5.210 -0.1083  0.3432 -0.0790
12181TIP3    H157958   0.881   4.246   5.257  0.6123  1.2874  1.3628
12181TIP3    H257959   0.770   4.319   5.184  0.1502 -1.2075 -0.5748
12182TIP3   OH257960   4.137   3.425   3.519 -0.4399  0.5753 -0.4205
12182TIP3    H157961   4.184   3.495   3.565  1.0457 -0.9920  0.5786
12182TIP3    H257962   4.194   3.404   3.444 -0.3423 -0.2435 -0.1274
12183TIP3   OH257963   3.819   6.536   4.896  0.0547  0.4090 -0.6570
12183TIP3    H157964   3.853   6.527   4.985 -2.5783 -1.7410  0.2713
12183TIP3    H257965   3.872   6.476   4.844  0.5905  0.4935 -0.2180
12184TIP3   OH257966   5.070   6.397  14.834  0.1864  0.1601 -0.4706
12184TIP3    H157967   5.118   6.314  14.839 -0.6282 -0.2933  0.1274
12184TIP3    H257968   4.980   6.374  14.858  0.2322  1.4576  1.1559
12185TIP3   OH257969   1.902   4.190  15.428  0.2144  0.5024  0.0950
12185TIP3    H157970   1.845   4.181  15.505 -0.7793  2.3010 -0.3912
12185TIP3    H257971   1.977   4.240  15.460  1.5300 -1.6858  0.6814
12186TIP3   OH257972   2.018   4.488   1.020 -0.8093  0.3970  0.2390
12186TIP3    H157973   1.932   4.491   0.979 -0.0034  0.0614 -1.5370
12186TIP3    H257974   2.014   4.554   1.089 -2.7531 -0.2149  0.7826
12187TIP3   OH257975   3.300   4.805   6.220 -0.8892 -0.1272 -0.1111
12187TIP3    H157976   3.205   4.790   6.225 -0.9373 -0.2336 -1.1432
12187TIP3    H257977   3.310   4.872   6.153 -0.3662  1.4352  1.4803
12188TIP3   OH257978   4.288   2.507   4.780  0.4315  0.4313  0.1489
12188TIP3    H157979   4.253   2.580   4.729  0.5286  0.8178  0.6277
12188TIP3    H257980   4.226   2.436   4.767  0.0214  0.7861  0.1637
12189TIP3   OH257981   5.062   3.572   5.649  0.3255 -0.2692 -0.2966
12189TIP3    H157982   5.088   3.590   5.558  1.1793 -1.3091 -0.2820
12189TIP3    H257983   5.121   3.625   5.702 -0.4355  0.6460 -0.3398
12190TIP3   OH257984   1.730   4.646  11.606  0.1524 -0.4502  0.3152
12190TIP3    H157985   1.705   4.695  11.527 -0.7619  1.4227  1.6917
12190TIP3    H257986   1.669   4.675  11.673  1.6079 -1.1415  2.0316
12191TIP3   OH257987   3.530   5.296  11.609 -0.2890  0.2241  0.0492
12191TIP3    H157988   3.512   5.203  11.622  0.2801  0.1599  0.4326
12191TIP3    H257989   3.613   5.311  11.655 -0.4866  0.9697  0.1789
12192TIP3   OH257990   0.239   4.515  16.398 -0.0855  0.1541 -0.2027
12192TIP3    H157991   0.322   4.557  16.421 -1.0846  1.1246  1.8859
12192TIP3    H257992   0.220   4.547  16.309  2.4088 -1.2351 -1.3430
12193TIP3   OH257993   5.480   4.795   0.257  0.6611 -0.3454 -0.3855
12193TIP3    H157994   5.509   4.712   0.296  2.9012  1.2457  1.6182
12193TIP3    H257995   5.467   4.853   0.332  3.6972  2.4562 -1.7814
12194TIP3   OH257996   0.624   0.894   0.040 -0.0176 -0.3586 -0.3090
12194TIP3    H157997   0.581   0.891   0.126 -0.5404 -1.8388 -0.6028
12194TIP3    H257998   0.685   0.967   0.047  0.0436 -0.5343  1.3750
12195TIP3   OH257999   5.092   3.518  11.310 -0.1193 -0.2213 -0.1016
12195TIP3    H158000   5.108   3.567  11.229 -2.6982 -0.3173 -0.7582
12195TIP3    H258001   5.050   3.437  11.281 -0.9692 -0.3237  1.3215
12196TIP3   OH258002   2.844   6.355   2.157  0.5525 -0.4274 -0.3270
12196TIP3    H158003   2.848   6.405   2.075 -1.2859 -1.0199 -0.8336
12196TIP3    H258004   2.751   6.349   2.176  0.8295 -2.1616  0.6555
12197TIP3   OH258005   3.549   1.011   3.710 -0.5421 -0.1194  0.6710
12197TIP3    H158006   3.477   1.039   3.767 -1.3063  0.1757 -0.4118
12197TIP3    H258007   3.618   1.076   3.726 -1.9307  1.9398 -1.0824
12198TIP3   OH258008   2.005   1.401  13.048 -0.3984  0.4765  0.4400
12198TIP3    H158009   1.986   1.470  13.111 -0.7355  0.9701 -0.1927
12198TIP3    H258010   2.042   1.447  12.972 -0.2830 -0.0709  0.1585
12199TIP3   OH258011   4.732   0.241  14.885  0.2461 -0.0640 -0.6698
12199TIP3    H158012   4.763   0.297  14.956 -2.1216 -1.7496  1.8708
12199TIP3    H258013   4.769   0.155  14.904 -2.6350 -1.1988  0.2565
12200TIP3   OH258014   0.036   6.016   4.087  0.5761 -0.1036 -0.5008
12200TIP3    H158015   0.023   5.942   4.146  0.5689 -0.3453 -0.8012
12200TIP3    H258016   0.063   5.977   4.004  1.5027  0.2966 -0.3931
12201TIP3   OH258017   5.055   1.292   4.815  1.0425 -0.3378  0.3281
12201TIP3    H158018   5.105   1.260   4.889 -1.2787  0.6113  2.4681
12201TIP3    H258019   5.008   1.215   4.783 -1.1495 -0.0976  2.6373
12202TIP3   OH258020   6.319   4.314  11.446  0.6294 -0.1411  0.2876
12202TIP3    H158021   6.315   4.391  11.389 -0.2470  0.6354  1.3337
12202TIP3    H258022   6.338   4.241  11.388 -1.4540  0.4109 -1.1977
12203TIP3   OH258023   6.235   2.710   4.870  0.3169 -0.6321  0.1893
12203TIP3    H158024   6.228   2.683   4.779 -1.7120  0.4830 -0.0583
12203TIP3    H258025   6.203   2.635   4.920  1.2477 -1.1729 -0.0051
12204TIP3   OH258026   5.851   6.667   0.658  0.0642 -0.2020 -0.0767
12204TIP3    H158027   5.848   6.681   0.752 -2.1950  3.3939 -0.4969
12204TIP3    H258028   5.772   6.616   0.638 -1.2883  1.8909 -0.2820
12205TIP3   OH258029   5.755   3.497   5.385  0.3165  0.2459  0.1767
12205TIP3    H158030   5.695   3.502   5.460  0.7007  0.3720  0.4761
12205TIP3    H258031   5.712   3.551   5.318  0.5043  1.0506  0.6825
12206TIP3   OH258032   6.149   0.122   6.444 -0.0910 -0.2934  0.5592
12206TIP3    H158033   6.096   0.185   6.493 -2.3946 -1.4282 -0.3231
12206TIP3    H258034   6.196   0.174   6.379 -1.9788  0.5368 -0.1839
12207TIP3   OH258035   4.065   1.997  10.720  0.0289  0.1436  0.1174
12207TIP3    H158036   4.070   2.075  10.777 -4.3933  0.7119  0.1173
12207TIP3    H258037   4.031   2.031  10.637 -0.6133 -1.6095 -0.3702
12208TIP3   OH258038   6.358   0.739   2.532 -0.0782 -0.8031 -0.5023
12208TIP3    H158039   6.316   0.653   2.529 -0.5973 -0.5833  0.1509
12208TIP3    H258040   6.451   0.720   2.547 -0.2084 -1.2408 -0.2332
12209TIP3   OH258041   2.345   1.637  14.372 -0.9510 -0.3147  0.7176
12209TIP3    H158042   2.364   1.596  14.456  0.1126 -0.3144  0.4826
12209TIP3    H258043   2.314   1.725  14.394 -0.7759 -0.3489  1.1094
12210TIP3   OH258044   1.442   4.449  16.738  0.2164  0.1875 -0.0710
12210TIP3    H158045   1.401   4.401  16.810 -0.8422 -1.2572 -1.5742
12210TIP3    H258046   1.527   4.405  16.726  1.4756  1.9237  1.7442
12211TIP3   OH258047   3.653   4.370   0.770 -0.0856  0.4404 -0.1699
12211TIP3    H158048   3.696   4.408   0.693 -0.1304  1.3814  0.2539
12211TIP3    H258049   3.693   4.416   0.844  0.8591 -1.3200  0.4656
12212TIP3   OH258050   4.431   2.598   5.386  0.0186 -0.6148  0.3699
12212TIP3    H158051   4.520   2.567   5.403  0.0670 -0.7894 -0.1916
12212TIP3    H258052   4.397   2.539   5.319 -0.4719 -0.4634  0.4791
12213TIP3   OH258053   0.964   1.718  16.378 -0.7384 -0.3945  0.0745
12213TIP3    H158054   0.999   1.703  16.466  1.4032 -0.0876 -0.6648
12213TIP3    H258055   0.947   1.812  16.375 -0.0408 -0.2678 -0.0857
12214TIP3   OH258056   3.732   2.292   4.937 -0.6612  0.0203  0.3086
12214TIP3    H158057   3.742   2.387   4.935  0.5893 -0.0921  0.3721
12214TIP3    H258058   3.677   2.272   4.861 -1.2407  0.8142  0.5005
12215TIP3   OH258059   4.408   4.583  11.905  0.2199  0.1108  0.0260
12215TIP3    H158060   4.461   4.618  11.977  0.7521 -1.6205  0.5242
12215TIP3    H258061   4.318   4.586  11.938  0.2766  0.8484  0.1188
12216TIP3   OH258062   3.324   5.999   0.448  0.4043 -0.0587  0.2942
12216TIP3    H158063   3.368   5.996   0.533 -1.3791  2.1232  1.4135
12216TIP3    H258064   3.373   6.065   0.398  0.1258  0.3078  0.4958
12217TIP3   OH258065   5.606   2.573   5.092  0.1667  0.3068 -0.2701
12217TIP3    H158066   5.588   2.646   5.151  0.5684 -0.0384  0.2953
12217TIP3    H258067   5.604   2.496   5.149 -0.2223 -0.1209 -0.8524
12218TIP3   OH258068   2.327   3.430   3.175  0.1479  0.0568 -0.2365
12218TIP3    H158069   2.340   3.494   3.245 -0.3171  1.1988 -1.1485
12218TIP3    H258070   2.232   3.422   3.168  0.2016 -0.4922 -0.3487
12219TIP3   OH258071   2.230   0.724   0.848  0.1175  0.3048  0.0811
12219TIP3    H158072   2.239   0.815   0.821  2.6006  0.1690  0.1744
12219TIP3    H258073   2.205   0.728   0.941  0.7472  0.9106  0.2289
12220TIP3   OH258074   5.150   6.563  17.122 -0.4776  0.0891  0.6189
12220TIP3    H158075   5.056   6.570  17.107 -0.4066  0.4833  0.3421
12220TIP3    H258076   5.188   6.634  17.070 -0.0036 -0.2510  0.4875
12221TIP3   OH258077   2.993   6.711  15.175  0.1005 -0.3153 -0.4797
12221TIP3    H158078   2.909   6.723  15.130  0.3860  0.2348 -0.8793
12221TIP3    H258079   2.992   6.778  15.243  0.2135 -0.3075 -0.4863
12222TIP3   OH258080   4.579   5.272  14.053  0.1364 -0.9606 -0.0838
12222TIP3    H158081   4.484   5.271  14.038 -0.2713  2.7906  1.4058
12222TIP3    H258082   4.616   5.295  13.968 -0.5836  0.6078 -0.0063
12223TIP3   OH258083   4.182   2.940  16.644 -0.2596  0.1123 -0.0516
12223TIP3    H158084   4.111   2.904  16.590  1.1255  0.5660 -2.3209
12223TIP3    H258085   4.229   2.998  16.585  2.0248 -0.1987  1.3568
12224TIP3   OH258086   5.203   3.125  14.716  0.1425  0.3196  0.6770
12224TIP3    H158087   5.108   3.117  14.723 -0.2479  0.2759 -3.0039
12224TIP3    H258088   5.222   3.211  14.752 -1.1286 -0.0057  2.2526
12225TIP3   OH258089   2.829   2.733  17.203 -0.4956  0.3996  0.3844
12225TIP3    H158090   2.921   2.717  17.224  0.1630  1.1330 -1.7303
12225TIP3    H258091   2.784   2.654  17.233  0.9218 -0.3053  0.7736
12226TIP3   OH258092   0.049   4.959  14.309 -0.4776 -0.1807 -0.6220
12226TIP3    H158093   0.081   4.973  14.219 -0.1203  0.8141 -0.3546
12226TIP3    H258094  -0.046   4.948  14.299 -0.3532 -0.8065 -1.1869
12227TIP3   OH258095   6.176   6.211   4.429  0.7824 -0.1271 -0.5116
12227TIP3    H158096   6.131   6.129   4.447  0.0926  0.4639  0.5841
12227TIP3    H258097   6.197   6.207   4.335 -1.7816 -0.3564 -1.1550
12228TIP3   OH258098   2.960   6.476  11.064  0.3282 -0.0932 -0.2725
12228TIP3    H158099   3.030   6.413  11.076  1.5655  1.3077  0.1209
12228TIP3    H258100   2.974   6.511  10.975 -1.1623 -1.2947 -1.0297
12229TIP3   OH258101   5.341   6.067  15.851  0.6803 -0.0966  0.3773
12229TIP3    H158102   5.404   6.004  15.887  0.4380 -0.9894 -0.7044
12229TIP3    H258103   5.278   6.013  15.803  0.1821  0.9490 -0.1700
12230TIP3   OH258104   2.753   6.277   4.951  0.3151 -0.3954 -0.1167
12230TIP3    H158105   2.806   6.258   5.028 -0.0251  0.6942  0.4002
12230TIP3    H258106   2.766   6.370   4.934 -1.6364 -0.0194  0.1934
12231TIP3   OH258107   3.785   6.148   4.049  0.0590  0.5494 -0.0393
12231TIP3    H158108   3.772   6.055   4.064  0.3265  0.7945  2.1065
12231TIP3    H258109   3.815   6.154   3.958  1.2415 -1.5726  0.1357
12232TIP3   OH258110   5.476   5.307  11.691  0.2556  0.7031  0.5058
12232TIP3    H158111   5.493   5.356  11.610 -0.8330  0.5555  0.1618
12232TIP3    H258112   5.394   5.260  11.673  0.1196  0.4939  1.6172
12233TIP3   OH258113   4.488   5.925  16.334 -0.4643  0.1011  0.3729
12233TIP3    H158114   4.578   5.950  16.354 -0.2995  0.6703 -0.9336
12233TIP3    H258115   4.436   5.966  16.404  0.3018 -0.5101  1.3269
12234TIP3   OH258116   0.566   5.120   4.593 -0.0656 -0.2780 -0.3836
12234TIP3    H158117   0.587   5.206   4.630 -0.9787 -0.0831 -0.3073
12234TIP3    H258118   0.472   5.111   4.605 -0.0716 -1.0359 -0.9443
12235TIP3   OH258119   2.386   5.890  17.027 -0.1964  0.4329  0.0878
12235TIP3    H158120   2.459   5.917  17.083 -0.2622  0.1770  0.2957
12235TIP3    H258121   2.323   5.850  17.086  0.0618 -0.5158 -0.2633
12236TIP3   OH258122   0.820   6.393  11.736  0.4408  0.1717 -0.4285
12236TIP3    H158123   0.801   6.430  11.650 -2.0194  1.4056  0.5421
12236TIP3    H258124   0.814   6.298  11.723 -2.3399  0.3819 -1.1959
12237TIP3   OH258125   1.806   2.038   1.410 -0.9555  0.3569  0.0556
12237TIP3    H158126   1.842   2.126   1.400  1.7894 -0.5544  0.8655
12237TIP3    H258127   1.720   2.051   1.449 -0.9499  2.6803 -0.5477
12238TIP3   OH258128   4.688   4.558   1.574 -0.0210 -0.2701 -0.3751
12238TIP3    H158129   4.757   4.622   1.552 -0.5631  0.3994 -0.1649
12238TIP3    H258130   4.724   4.508   1.647  0.2363  0.0932 -0.2506
12239TIP3   OH258131   3.900   3.280  16.087  0.0580 -0.4808 -0.1432
12239TIP3    H158132   3.933   3.296  15.999 -0.3584  0.1797 -0.1860
12239TIP3    H258133   3.910   3.186  16.100  0.2258 -0.5644 -0.8499
12240TIP3   OH258134   0.462   2.202   0.085  0.0308 -0.1335 -0.2115
12240TIP3    H158135   0.433   2.118   0.052  0.2042 -1.4864  2.7234
12240TIP3    H258136   0.381   2.248   0.108 -0.0220 -0.0993 -0.4650
12241TIP3   OH258137   1.381   2.057   6.395  0.3881 -0.2785 -0.2082
12241TIP3    H158138   1.393   1.962   6.394  0.1607 -0.3727  1.7018
12241TIP3    H258139   1.469   2.092   6.410  0.1207 -0.3952  2.0926
12242TIP3   OH258140   6.528   0.477  13.409 -0.0958 -0.0096  0.4252
12242TIP3    H158141   6.586   0.418  13.362  2.8394  1.5979  1.7418
12242TIP3    H258142   6.465   0.506  13.344  1.0937 -1.1978 -1.3534
12243TIP3   OH258143   3.889   5.173   1.506 -0.5831 -0.0237 -0.0097
12243TIP3    H158144   3.848   5.133   1.583 -0.8417 -1.0427 -0.6662
12243TIP3    H258145   3.881   5.108   1.437 -0.4651  0.9216 -0.9488
12244TIP3   OH258146   5.743   3.281   4.720 -0.2898 -0.8348 -0.5097
12244TIP3    H158147   5.752   3.199   4.670  1.0914 -2.0131  1.5216
12244TIP3    H258148   5.686   3.257   4.793  0.1182  0.0428  0.0974
12245TIP3   OH258149   5.196   4.611   4.718  0.0545  0.6382 -0.0234
12245TIP3    H158150   5.169   4.608   4.810  0.3535 -0.7012  0.0434
12245TIP3    H258151   5.145   4.542   4.676  1.2482 -0.0044 -0.4668
12246TIP3   OH258152   3.723   0.350  14.323 -0.5293 -0.3268 -0.3047
12246TIP3    H158153   3.645   0.404  14.335  0.2559  0.4949  1.5879
12246TIP3    H258154   3.695   0.262  14.346 -0.7896  0.0776  1.0525
12247TIP3   OH258155   0.942   1.217  14.795 -0.4470  0.1281 -0.6146
12247TIP3    H158156   0.942   1.304  14.755 -0.5531  0.3256 -0.1897
12247TIP3    H258157   1.030   1.183  14.776  0.2769  1.0759  0.7897
12248TIP3   OH258158   2.238   3.224   0.648 -0.2224  0.1809  0.0482
12248TIP3    H158159   2.176   3.152   0.653 -1.8805  1.5676  0.1425
12248TIP3    H258160   2.292   3.215   0.726 -2.8517  1.1535  2.1271
12249TIP3   OH258161   6.178   6.673  16.393 -0.0576 -0.1763 -0.3979
12249TIP3    H158162   6.187   6.590  16.347 -0.4016  0.5537 -1.8419
12249TIP3    H258163   6.244   6.669  16.463  0.7705 -1.1667 -1.2001
12250TIP3   OH258164   1.044   3.335  16.811 -0.2501 -0.0281 -0.4409
12250TIP3    H158165   1.082   3.423  16.813 -2.2964  0.9203  0.9080
12250TIP3    H258166   0.955   3.349  16.779  0.1488 -2.0274 -2.6866
12251TIP3   OH258167   3.871   1.465  13.972  0.1483 -0.5894 -0.3564
12251TIP3    H158168   3.803   1.490  13.909 -1.0411 -2.4911  0.0804
12251TIP3    H258169   3.938   1.422  13.919 -0.7169 -1.9316 -0.4124
12252TIP3   OH258170   1.486   1.871   2.274 -0.1110 -0.6155  0.4113
12252TIP3    H158171   1.520   1.788   2.305  0.8542 -0.7221 -0.8341
12252TIP3    H258172   1.508   1.873   2.180 -0.1080  1.0307  0.4049
12253TIP3   OH258173   0.305   1.950  16.181 -0.3287 -0.1094  0.0329
12253TIP3    H158174   0.366   1.908  16.241 -1.1503 -1.7790 -0.2463
12253TIP3    H258175   0.256   2.011  16.235  0.6663  0.2723  0.5243
12254TIP3   OH258176   1.076   5.308  15.764 -0.0027 -0.5775  0.0504
12254TIP3    H158177   1.060   5.242  15.696  0.5391 -0.7240  0.0619
12254TIP3    H258178   0.991   5.320  15.806 -0.4092 -0.3136 -0.8071
12255TIP3   OH258179   1.287   3.150  13.138  0.0333  0.3126 -0.0300
12255TIP3    H158180   1.288   3.246  13.134 -1.2862  0.3143 -1.0482
12255TIP3    H258181   1.268   3.123  13.048 -0.6994 -0.8796  0.4663
12256TIP3   OH258182   2.834   4.767  15.678 -0.1101 -0.1170  0.2507
12256TIP3    H158183   2.791   4.691  15.718  0.7771 -0.9142 -0.2430
12256TIP3    H258184   2.888   4.804  15.748 -0.1469 -0.2646  0.3577
12257TIP3   OH258185   4.442   4.413  12.702 -0.5784  0.0038  0.5062
12257TIP3    H158186   4.348   4.428  12.691 -0.3034  1.1195 -0.5683
12257TIP3    H258187   4.464   4.457  12.784 -0.8185  0.6386  0.2385
12258TIP3   OH258188   5.322   0.351  11.842  0.5885 -0.1826  0.0629
12258TIP3    H158189   5.262   0.315  11.776  2.1480 -0.7424 -1.1234
12258TIP3    H258190   5.312   0.292  11.917 -0.3458 -0.2532 -0.1004
12259TIP3   OH258191   3.893   5.652   3.535 -0.2254  0.4944  0.4487
12259TIP3    H158192   3.972   5.606   3.566 -0.0896 -0.1390 -0.7809
12259TIP3    H258193   3.836   5.582   3.503 -0.4667  1.0883 -0.4581
12260TIP3   OH258194   3.090   5.522  14.875 -0.1743  0.6549  0.8055
12260TIP3    H158195   3.053   5.463  14.940 -1.0888  0.5354  0.1893
12260TIP3    H258196   3.135   5.589  14.926  1.0159 -0.6258  1.5136
12261TIP3   OH258197   5.088   5.541  14.621  0.0713  0.7127  0.0122
12261TIP3    H158198   5.166   5.487  14.607  0.3605 -0.0569  3.6751
12261TIP3    H258199   5.021   5.479  14.651 -0.6685  1.8965  0.9134
12262TIP3   OH258200   0.107   4.575   4.970  0.2638 -0.6192  0.1296
12262TIP3    H158201   0.197   4.605   4.959 -0.4634  1.0975 -1.6621
12262TIP3    H258202   0.111   4.515   5.045  2.5102  1.0146  1.4440
12263TIP3   OH258203   2.212   0.797  14.343  0.1388  0.5846  0.4027
12263TIP3    H158204   2.240   0.708  14.322  0.5686  1.4380 -3.3097
12263TIP3    H258205   2.131   0.786  14.393 -1.5139 -1.9883 -2.4964
12264TIP3   OH258206   0.101   0.327  11.828 -0.1353 -0.6287  0.3165
12264TIP3    H158207   0.149   0.249  11.858 -1.8592 -2.5022 -1.5727
12264TIP3    H258208   0.165   0.374  11.775  1.2133 -0.1791  2.1982
12265TIP3   OH258209   2.487   6.466  15.994  0.1458 -0.0609  0.8536
12265TIP3    H158210   2.480   6.511  16.078 -0.5837  0.4364  0.5425
12265TIP3    H258211   2.552   6.516  15.945 -2.0457  1.9396 -0.2215
12266TIP3   OH258212   3.294   5.072  16.871  0.0339  0.4117  0.0064
12266TIP3    H158213   3.355   5.108  16.807 -1.0310 -0.8488 -1.8364
12266TIP3    H258214   3.292   5.136  16.942  2.6136  1.0178 -0.3634
12267TIP3   OH258215   3.025   4.216   4.203 -0.1298  0.2430  0.3414
12267TIP3    H158216   2.967   4.221   4.279  0.4293  0.7336  0.7444
12267TIP3    H258217   3.014   4.299   4.158 -0.9363 -0.2942 -0.4854
12268TIP3   OH258218   0.744   6.494   0.170  0.3694 -0.5072  0.1887
12268TIP3    H158219   0.675   6.505   0.236  0.6795 -0.4260  0.5015
12268TIP3    H258220   0.765   6.584   0.143 -0.7798 -0.5948 -1.0955
12269TIP3   OH258221   3.088   1.772  13.228 -0.3935 -0.0284 -0.2189
12269TIP3    H158222   3.046   1.690  13.250 -1.5712  0.4581 -0.5775
12269TIP3    H258223   3.181   1.751  13.222 -0.4517 -0.9396  1.5092
12270TIP3   OH258224   1.065   4.331  11.547 -0.1674 -0.2129 -0.1995
12270TIP3    H158225   1.084   4.391  11.474  0.1815 -0.0696  0.0047
12270TIP3    H258226   1.151   4.305  11.579 -0.3141 -1.3369 -0.6912
12271TIP3   OH258227   1.592   4.318   1.539 -0.7825 -0.1014  0.1666
12271TIP3    H158228   1.620   4.366   1.462 -1.4180  0.7176  0.4386
12271TIP3    H258229   1.642   4.236   1.535  1.3334  1.1000  0.4036
12272TIP3   OH258230   1.026   0.086  17.119  0.2416  0.2361 -0.1835
12272TIP3    H158231   1.045   0.172  17.083  0.9296  0.1641 -0.0006
12272TIP3    H258232   0.976   0.103  17.199  0.3251  0.4593 -0.1801
12273TIP3   OH258233   4.290   2.968   2.233 -0.1729  0.3981 -0.3466
12273TIP3    H158234   4.359   2.944   2.294 -0.3340  0.1814 -0.2500
12273TIP3    H258235   4.236   3.031   2.282 -2.5449 -2.5655  1.1867
12274TIP3   OH258236   0.052   5.642  16.390  0.5575 -0.1878  0.0016
12274TIP3    H158237   0.101   5.724  16.391 -0.5367  0.4741  1.4541
12274TIP3    H258238   0.082   5.595  16.467 -0.3493 -0.2258  0.3402
12275TIP3   OH258239   0.867   0.536  16.307  0.6766 -0.3175  0.3769
12275TIP3    H158240   0.941   0.596  16.317 -0.3750  1.0470  0.3673
12275TIP3    H258241   0.906   0.450  16.291  2.2326  0.4789 -0.2251
12276TIP3   OH258242   0.111   0.247   3.039  0.7164  0.2646  0.7180
12276TIP3    H158243   0.178   0.216   3.099  1.0218 -0.4121  0.0499
12276TIP3    H258244   0.160   0.284   2.965  0.3550  1.4820  1.0562
12277TIP3   OH258245   3.189   3.016  13.179  0.0291 -0.5109 -0.4054
12277TIP3    H158246   3.135   3.054  13.248 -0.0272 -1.3482  0.0293
12277TIP3    H258247   3.126   2.989  13.112 -0.2760 -2.6185  0.6386
12278TIP3   OH258248   0.364   0.219  16.851 -0.1269 -0.3298  0.1013
12278TIP3    H158249   0.434   0.244  16.791 -0.1099 -0.1168  0.2065
12278TIP3    H258250   0.353   0.295  16.908  2.4696 -1.8302  2.8826
12279TIP3   OH258251   1.472   4.941   0.589  0.0449 -0.3353 -0.2082
12279TIP3    H158252   1.505   4.925   0.677 -0.2775 -0.9115 -0.1840
12279TIP3    H258253   1.494   4.861   0.541 -1.7853 -0.9778 -0.0477
12280TIP3   OH258254   4.169   1.343   4.143 -0.0411  0.0705  0.1242
12280TIP3    H158255   4.139   1.343   4.052 -0.6364  0.0110  0.3125
12280TIP3    H258256   4.264   1.342   4.137 -0.0620  0.7124 -0.5034
12281TIP3   OH258257   1.488   6.756   2.960 -0.5478  0.6053  0.6004
12281TIP3    H158258   1.485   6.689   2.892  1.9551  0.7931  0.1854
12281TIP3    H258259   1.400   6.759   2.995 -0.9350 -2.3843  0.1427
12282TIP3   OH258260   3.246   2.613  12.190  0.1674 -0.0501  0.5870
12282TIP3    H158261   3.181   2.556  12.149  0.3720 -0.8395  1.3123
12282TIP3    H258262   3.330   2.580  12.160  0.2629  0.9079 -0.2683
12283TIP3   OH258263   2.987   5.301   0.619 -0.1053 -0.0255 -0.1506
12283TIP3    H158264   3.019   5.216   0.591 -0.6892 -0.7214  1.2517
12283TIP3    H258265   2.998   5.302   0.714  1.2229  2.0281 -0.2648
12284TIP3   OH258266   5.068   4.326  15.272 -0.3204 -0.2540 -0.0699
12284TIP3    H158267   5.118   4.261  15.321 -0.0657  1.3664  1.9773
12284TIP3    H258268   5.135   4.384  15.234 -0.5744 -0.1833 -0.4118
12285TIP3   OH258269   4.351   4.657  14.313 -0.1236 -0.2186  0.3616
12285TIP3    H158270   4.393   4.740  14.334  0.4648 -0.6517  0.9696
12285TIP3    H258271   4.284   4.646  14.380  0.6865 -0.8404  1.1141
12286TIP3   OH258272   6.228   5.718  11.610  0.1255 -0.0875  0.3770
12286TIP3    H158273   6.285   5.777  11.659  2.4112 -0.4560 -1.6198
12286TIP3    H258274   6.194   5.771  11.538  1.2909 -0.8281 -0.7750
12287TIP3   OH258275   1.251   4.140  11.622 -0.3593  0.7788  0.0458
12287TIP3    H158276   1.182   4.110  11.563  0.4684 -1.0545 -0.0965
12287TIP3    H258277   1.311   4.065  11.628  0.4058  1.4744  1.9829
12288TIP3   OH258278   0.694   4.494   1.218 -0.3123 -0.1348 -0.1928
12288TIP3    H158279   0.607   4.489   1.178 -0.5486  0.7645  0.1928
12288TIP3    H258280   0.735   4.570   1.177 -0.3888  0.5365  0.9352
12289TIP3   OH258281   3.737   1.582   2.216  0.3371  0.0808 -0.3674
12289TIP3    H158282   3.695   1.576   2.302  0.9194 -0.2587 -0.1016
12289TIP3    H258283   3.695   1.658   2.174  2.1883  2.2617  1.4463
12290TIP3   OH258284   2.785   5.382   3.095 -0.6174  0.3038 -0.3350
12290TIP3    H158285   2.800   5.401   3.002 -1.6153  0.3437 -0.5017
12290TIP3    H258286   2.787   5.286   3.100 -2.4267  0.1985 -0.7702
12291TIP3   OH258287   6.570   5.291  13.486  0.2910  0.0465  0.0221
12291TIP3    H158288   6.595   5.273  13.577  2.6987  1.5292 -0.2608
12291TIP3    H258289   6.586   5.208  13.440 -1.7000 -0.9637  1.0095
12292TIP3   OH258290   0.178   2.514  14.684  0.3768 -0.8346  0.4770
12292TIP3    H158291   0.247   2.543  14.625 -0.0954  0.8239  0.6921
12292TIP3    H258292   0.219   2.509  14.770  0.0855  0.9775  0.7640
12293TIP3   OH258293   5.517   2.976  12.740 -0.1785 -0.8323 -0.0517
12293TIP3    H158294   5.445   3.009  12.795 -0.3582  0.8273 -1.1918
12293TIP3    H258295   5.575   2.931  12.801 -1.1806 -0.4426  1.2321
12294TIP3   OH258296   5.534   6.201  10.771 -0.0952 -0.1450 -0.2297
12294TIP3    H158297   5.545   6.107  10.761 -1.6512 -0.1866 -2.0703
12294TIP3    H258298   5.544   6.236  10.683 -1.2382  1.2055  0.1370
12295TIP3   OH258299   2.711   3.055  14.671 -0.2742 -0.4621 -0.2124
12295TIP3    H158300   2.623   3.027  14.644 -0.6803  0.4605  0.0871
12295TIP3    H258301   2.745   3.101  14.594 -0.3825 -0.1181 -0.0570
12296TIP3   OH258302   1.917   3.294  12.129  0.1959 -0.2897  0.0219
12296TIP3    H158303   1.959   3.314  12.045 -0.7710 -0.2864 -0.4743
12296TIP3    H258304   1.986   3.252  12.180  0.2724 -2.2018 -1.5316
12297TIP3   OH258305   5.672   6.137   1.421 -0.2019  0.0660 -0.3838
12297TIP3    H158306   5.661   6.225   1.385 -1.1801 -0.7832 -2.3394
12297TIP3    H258307   5.593   6.090   1.392  0.7109 -1.6829 -0.1527
12298TIP3   OH258308   4.883   2.693  10.441 -0.0850 -0.6898  0.1195
12298TIP3    H158309   4.901   2.609  10.482 -1.2279 -0.5060  1.0528
12298TIP3    H258310   4.962   2.746  10.459  0.3958 -1.3633  0.0259
12299TIP3   OH258311   6.090   2.492   2.019  0.0796  0.2024 -0.0254
12299TIP3    H158312   6.038   2.572   2.009  1.1569  0.9958  0.4685
12299TIP3    H258313   6.104   2.461   1.929 -1.3700 -0.1310 -0.1575
12300TIP3   OH258314   6.404   3.046  11.633 -0.0261 -0.0230  0.6219
12300TIP3    H158315   6.314   3.070  11.614 -0.1819 -1.5484 -0.8295
12300TIP3    H258316   6.456   3.118  11.599 -0.6025 -0.2685 -0.8664
12301TIP3   OH258317   3.643   1.934   5.291  0.1756 -0.0867  0.2678
12301TIP3    H158318   3.703   1.865   5.264  2.3794  1.5686  0.6286
12301TIP3    H258319   3.556   1.896   5.280  1.1777 -1.9919 -2.0827
12302TIP3   OH258320   1.894   3.090   2.158  0.0745 -0.7501 -0.4119
12302TIP3    H158321   1.851   3.127   2.081 -0.3975 -0.8472 -0.2016
12302TIP3    H258322   1.822   3.053   2.210  0.4669 -1.3718 -0.2971
12303TIP3   OH258323   2.396   3.598  11.860  0.1738 -0.0466  0.5365
12303TIP3    H158324   2.447   3.678  11.849 -0.6891  0.6353  1.2860
12303TIP3    H258325   2.325   3.605  11.796 -0.1522  0.0012  0.8991
12304TIP3   OH258326   0.799   0.595   0.577 -0.2009  0.0263 -0.2268
12304TIP3    H158327   0.843   0.676   0.550  0.5144 -0.0789  0.5711
12304TIP3    H258328   0.713   0.599   0.537 -0.5032  1.6156  0.5172
12305TIP3   OH258329   5.457   4.921   5.113  0.4556  0.0522 -0.3278
12305TIP3    H158330   5.412   4.869   5.047 -0.6424  1.4082 -0.7018
12305TIP3    H258331   5.531   4.960   5.066 -0.7526  1.6174 -1.0152
12306TIP3   OH258332   0.094   4.546  15.866  0.5117 -0.8525  0.0597
12306TIP3    H158333  -0.001   4.544  15.868  0.4914 -0.0758  0.3525
12306TIP3    H258334   0.117   4.633  15.899  1.2685 -0.2392 -1.9682
12307TIP3   OH258335   3.549   6.404  12.186  0.3797 -0.0656 -0.8502
12307TIP3    H158336   3.485   6.342  12.219  0.0383  0.5830 -0.2681
12307TIP3    H258337   3.630   6.382  12.232  0.8015 -1.3697 -2.1310
12308TIP3   OH258338   2.359   5.358  12.594  0.5292 -0.0318  0.0217
12308TIP3    H158339   2.313   5.439  12.573  0.8863 -0.2038 -1.5052
12308TIP3    H258340   2.315   5.291  12.542  0.2847 -0.8292  1.2131
12309TIP3   OH258341   4.622   0.443  16.917 -0.0997 -0.0766 -0.4114
12309TIP3    H158342   4.711   0.445  16.953  0.0784 -0.8310 -0.8058
12309TIP3    H258343   4.568   0.407  16.987 -0.2392  1.1121  0.1135
12310TIP3   OH258344   2.042   4.526   5.666  0.1088  0.0114 -0.0960
12310TIP3    H158345   2.013   4.616   5.657 -1.9126 -0.3294  2.0338
12310TIP3    H258346   2.096   4.526   5.745 -0.8140 -0.7987  0.5585
12311TIP3   OH258347   4.145   3.972   4.766 -0.4600 -0.3563  0.4428
12311TIP3    H158348   4.129   3.979   4.672  1.5380  1.6045  0.1683
12311TIP3    H258349   4.184   3.885   4.777 -0.1848 -0.3883 -0.6520
12312TIP3   OH258350   4.442   6.362   0.285 -0.5024 -0.0421  0.3591
12312TIP3    H158351   4.409   6.448   0.260  1.2109  0.1578 -1.4932
12312TIP3    H258352   4.483   6.375   0.370 -1.3873  0.6391  0.7011
12313TIP3   OH258353   4.216   2.165   4.929 -0.4196 -0.0319  0.5101
12313TIP3    H158354   4.184   2.207   4.849  0.2950 -0.6515 -0.1125
12313TIP3    H258355   4.140   2.164   4.987 -0.8582  0.7381 -0.0273
12314TIP3   OH258356   3.463   6.176   1.196 -0.0201  0.3962  0.1953
12314TIP3    H158357   3.477   6.084   1.218 -0.4283  0.4006  0.4645
12314TIP3    H258358   3.459   6.177   1.100 -1.5033 -0.0779  0.2396
12315TIP3   OH258359   4.932   6.088   3.176  0.2413  0.6599 -0.2805
12315TIP3    H158360   5.016   6.098   3.221 -0.4133 -0.7167  1.3306
12315TIP3    H258361   4.869   6.131   3.233 -0.9191 -2.7840  1.2785
12316TIP3   OH258362   4.061   4.041  16.880 -0.2337 -0.4272  0.3229
12316TIP3    H158363   4.080   4.063  16.789 -0.4886 -1.4862 -0.0055
12316TIP3    H258364   4.103   4.110  16.932  0.3203 -0.0788 -0.5763
12317TIP3   OH258365   0.883   2.465   0.085 -0.3988  0.3713  0.1288
12317TIP3    H158366   0.850   2.477   0.174 -0.1005  0.4059  0.2355
12317TIP3    H258367   0.809   2.430   0.036 -0.1754 -0.9522  0.7127
12318TIP3   OH258368   6.313   1.360   4.708 -0.0140  0.9226  0.3252
12318TIP3    H158369   6.347   1.311   4.783 -1.6073 -0.3702  0.2772
12318TIP3    H258370   6.226   1.390   4.737 -0.7948  0.1275 -1.0791
12319TIP3   OH258371   3.931   5.218  14.177  0.4535  0.6749  0.1144
12319TIP3    H158372   3.983   5.297  14.191  0.4747  0.3107  2.3167
12319TIP3    H258373   3.957   5.158  14.246 -0.7098 -0.6867 -0.5622
12320TIP3   OH258374   0.654   4.520  16.836 -0.2381  0.2868 -0.2921
12320TIP3    H158375   0.593   4.451  16.864  0.6098 -0.6288 -0.6488
12320TIP3    H258376   0.724   4.473  16.790  2.2771  0.9683  2.5520
12321TIP3   OH258377   4.242   4.946  16.229 -0.7054  0.4838 -0.1573
12321TIP3    H158378   4.215   4.901  16.310 -1.9956  1.2367 -0.1438
12321TIP3    H258379   4.337   4.938  16.228 -0.7789 -0.7422  0.7257
12322TIP3   OH258380   0.846   6.513  12.129  0.1530 -0.4854  0.0679
12322TIP3    H158381   0.874   6.544  12.215  1.3481  0.8603 -0.7582
12322TIP3    H258382   0.753   6.494  12.139  0.3223 -0.5897  1.7073
12323TIP3   OH258383   5.990   1.065  10.979 -0.2371  0.3091  0.7056
12323TIP3    H158384   6.048   1.138  11.000 -0.6183  1.0014 -0.5955
12323TIP3    H258385   5.949   1.089  10.896 -0.8713 -1.0844  0.5867
12324TIP3   OH258386   2.848   6.059   0.307  0.6657  0.0026  0.4468
12324TIP3    H158387   2.834   5.997   0.236 -0.2704  1.7099 -0.9502
12324TIP3    H258388   2.902   6.012   0.370 -0.5402 -2.4214 -0.2073
12325TIP3   OH258389   0.820   2.160   5.124 -0.0066 -0.2478 -0.1579
12325TIP3    H158390   0.852   2.069   5.125  0.8430  0.0421 -0.3388
12325TIP3    H258391   0.812   2.182   5.031 -1.0925 -0.4261 -0.1221
12326TIP3   OH258392   5.201   6.394  10.869  0.3502  0.1245  0.0654
12326TIP3    H158393   5.261   6.428  10.803 -1.2673 -0.8455 -2.0388
12326TIP3    H258394   5.220   6.300  10.872 -0.0669  0.0488  0.4650
12327TIP3   OH258395   0.927   5.982   0.468 -0.5632  0.3279  0.5294
12327TIP3    H158396   0.905   5.924   0.541 -0.0193  1.0378  1.2663
12327TIP3    H258397   0.918   5.926   0.390  0.5156 -0.9185  1.2552
12328TIP3   OH258398   5.514   3.775   0.881  0.4568 -0.2704 -0.2489
12328TIP3    H158399   5.465   3.723   0.816  0.1128 -0.3234  0.0508
12328TIP3    H258400   5.604   3.775   0.848 -0.0417  1.3417 -1.7760
12329TIP3   OH258401   3.325   2.493   2.070 -0.2134 -0.0129  0.0413
12329TIP3    H158402   3.252   2.505   2.010 -0.2545  1.1354  0.2919
12329TIP3    H258403   3.320   2.401   2.097 -2.1353  0.2616  0.7713
12330TIP3   OH258404   6.398   4.870  15.419  0.3529  0.0497 -0.6406
12330TIP3    H158405   6.373   4.946  15.472 -0.3612 -1.2526  1.0313
12330TIP3    H258406   6.483   4.844  15.454 -0.4638 -1.2755  0.5142
12331TIP3   OH258407   5.746   6.192  10.210  0.5793  0.1950 -0.4790
12331TIP3    H158408   5.730   6.186  10.116 -0.5868  0.0132 -0.2847
12331TIP3    H258409   5.685   6.259  10.240 -0.3502 -1.0184  0.4194
12332TIP3   OH258410   5.666   1.342  16.229  0.3100  0.1795 -0.4557
12332TIP3    H158411   5.724   1.365  16.156  1.1772 -1.3168 -0.2827
12332TIP3    H258412   5.671   1.247  16.234  0.6093  0.2575  1.8311
12333TIP3   OH258413   3.966   3.089   2.113  0.3363  0.0952  0.3423
12333TIP3    H158414   4.018   3.071   2.034  0.1153 -0.4029  0.3121
12333TIP3    H258415   3.946   3.182   2.106  3.2259  0.9345  1.5288
12334TIP3   OH258416   3.063   0.936   1.450  0.1681 -0.5264 -0.0904
12334TIP3    H158417   2.978   0.967   1.418 -0.6074 -1.2767  1.1479
12334TIP3    H258418   3.044   0.850   1.488  0.4955  1.0980  4.2786
12335TIP3   OH258419   3.874   3.887   0.909 -0.4344 -0.1772 -0.1969
12335TIP3    H158420   3.826   3.920   0.985  2.7382  0.5583  1.6708
12335TIP3    H258421   3.846   3.796   0.901 -0.3150 -0.5259  2.4169
12336TIP3   OH258422   5.458   0.823  15.582  1.2454  0.4297  0.8445
12336TIP3    H158423   5.464   0.865  15.668  0.0172  2.3297  0.0703
12336TIP3    H258424   5.486   0.891  15.520 -1.4031  0.4130 -0.5133
12337TIP3   OH258425   3.396   4.106   2.821 -0.0696 -0.2973  0.0591
12337TIP3    H158426   3.330   4.067   2.878 -0.2884  1.6312  1.2087
12337TIP3    H258427   3.478   4.064   2.847 -0.3962 -0.5232  0.7406
12338TIP3   OH258428   0.756   2.007  13.098 -0.0066  0.4360  0.3661
12338TIP3    H158429   0.662   1.991  13.107 -0.0569 -0.3057 -1.1650
12338TIP3    H258430   0.762   2.075  13.031  0.5921 -0.8051 -0.8653
12339TIP3   OH258431   3.704   2.360   2.053 -0.0098 -0.0938 -0.5339
12339TIP3    H158432   3.694   2.452   2.027 -1.6431  0.4408  1.6692
12339TIP3    H258433   3.761   2.363   2.130 -0.1926 -0.9146 -0.3557
12340TIP3   OH258434   4.939   2.816   1.660  0.4737  0.3154 -0.1725
12340TIP3    H158435   5.005   2.755   1.628 -1.5790 -2.2201  0.0616
12340TIP3    H258436   4.866   2.806   1.598 -0.1060  2.2774  0.1255
12341TIP3   OH258437   6.391   3.960   4.344  0.1243  0.6485  0.5770
12341TIP3    H158438   6.426   3.878   4.312  2.0736  0.3712  3.1038
12341TIP3    H258439   6.300   3.940   4.367  0.1820 -0.4155 -0.0532
12342TIP3   OH258440   3.977   5.829  13.495  0.0227 -0.0327  0.3311
12342TIP3    H158441   4.036   5.839  13.420 -0.0092 -0.3901  0.2563
12342TIP3    H258442   4.032   5.849  13.571  0.2002 -0.2116  0.2500
12343TIP3   OH258443   0.071   4.765  13.123 -0.3153  0.1735 -0.3264
12343TIP3    H158444   0.108   4.750  13.036 -0.5563 -0.1032 -0.3847
12343TIP3    H258445   0.118   4.841  13.157  0.9463 -0.7092 -0.0299
12344TIP3   OH258446   0.060   0.669   3.780 -0.5127 -0.1152  0.9695
12344TIP3    H158447   0.051   0.588   3.830 -1.1051 -0.0467  0.9778
12344TIP3    H258448   0.084   0.641   3.691 -1.0727 -0.3160  0.8820
12345TIP3   OH258449   1.482   3.356   3.344  0.3602 -0.2394 -0.3408
12345TIP3    H158450   1.538   3.280   3.325  1.3401  0.3767  0.0289
12345TIP3    H258451   1.536   3.414   3.397 -1.2462 -0.4378  1.6311
12346TIP3   OH258452   6.774   0.402   3.881  0.3056 -0.3647 -0.4489
12346TIP3    H158453   6.839   0.427   3.946 -0.1511  2.3332 -0.8865
12346TIP3    H258454   6.787   0.309   3.867  2.9846 -0.2238  0.6398
12347TIP3   OH258455   1.597   2.990   0.949  0.0553  0.1393 -0.5832
12347TIP3    H158456   1.671   3.013   0.894 -0.5463  1.2798 -0.9390
12347TIP3    H258457   1.547   3.071   0.958  0.4548  0.1936  2.1586
12348TIP3   OH258458   1.037   5.235   3.677  0.3650  0.1262 -0.3510
12348TIP3    H158459   1.060   5.258   3.587  0.8933 -2.9325 -1.1034
12348TIP3    H258460   1.114   5.190   3.711 -0.5402 -0.4781  0.9643
12349TIP3   OH258461   0.278   5.710  12.799 -0.1838  0.0357 -0.8683
12349TIP3    H158462   0.198   5.663  12.822 -1.4492  1.8161 -1.4472
12349TIP3    H258463   0.268   5.796  12.839  1.1932  0.4753 -1.4177
12350TIP3   OH258464   2.408   4.271  13.307 -0.7036 -0.1182  0.1553
12350TIP3    H158465   2.464   4.264  13.230  0.0695 -2.1825  0.8088
12350TIP3    H258466   2.437   4.350  13.351 -0.6755  0.6994 -1.2842
12351TIP3   OH258467   4.528   2.922  16.988  0.1161  0.2145  0.2678
12351TIP3    H158468   4.447   2.884  16.954  2.5689 -3.8071 -1.7439
12351TIP3    H258469   4.542   2.878  17.072  0.2326  0.9661  0.6526
12352TIP3   OH258470   6.621   0.705  14.369  0.3370  0.0485 -0.1731
12352TIP3    H158471   6.689   0.638  14.375 -0.2629 -0.4476  2.3739
12352TIP3    H258472   6.540   0.655  14.360  0.0050  0.4558  0.4626
12353TIP3   OH258473   1.866   2.204   3.901 -0.1315 -0.1872  0.4370
12353TIP3    H158474   1.820   2.196   3.985  0.0639  1.4838  0.7511
12353TIP3    H258475   1.800   2.182   3.836 -0.4654 -0.9028  1.0066
12354TIP3   OH258476   1.523   2.065  10.840  0.3800 -0.5072  0.4010
12354TIP3    H158477   1.502   2.119  10.764  0.3389 -1.3392 -0.1889
12354TIP3    H258478   1.602   2.105  10.876  0.4196 -0.1234 -0.0966
12355TIP3   OH258479   2.692   4.021  12.521 -0.2866  0.3614 -0.5520
12355TIP3    H158480   2.741   3.951  12.478 -0.6205 -0.6300  0.6279
12355TIP3    H258481   2.605   4.018  12.480 -0.8514 -1.0962  0.6660
12356TIP3   OH258482   1.276   6.425   5.671 -0.0317  0.2495 -0.5525
12356TIP3    H158483   1.232   6.456   5.750  0.3580  1.5367 -0.8062
12356TIP3    H258484   1.262   6.331   5.670 -0.7383  0.3287  0.6161
12357TIP3   OH258485   1.330   5.588   0.026  0.3999 -0.2097 -0.1725
12357TIP3    H158486   1.394   5.562  -0.041  1.9212 -1.1675  1.5687
12357TIP3    H258487   1.349   5.679   0.044  2.1742 -0.8031  1.2021
12358TIP3   OH258488   1.003   2.282  12.283  0.7468 -0.0539  0.3346
12358TIP3    H158489   1.031   2.362  12.237 -1.0059 -0.2081 -1.1462
12358TIP3    H258490   1.078   2.257  12.336  1.6880  2.0396  0.0995
12359TIP3   OH258491   3.481   3.007   1.974 -0.1066 -0.1601  0.1694
12359TIP3    H158492   3.569   3.041   1.985 -1.1860  2.7366  0.9178
12359TIP3    H258493   3.461   2.962   2.056  0.6930 -0.9805 -0.0738
12360TIP3   OH258494   6.363   5.670   1.597 -0.5270 -0.1721  0.4052
12360TIP3    H158495   6.358   5.575   1.589  0.9440 -0.2635  0.2759
12360TIP3    H258496   6.449   5.692   1.562  0.1261  0.9676  2.5898
12361TIP3   OH258497   6.119   1.638  16.350 -0.0703  0.5723 -0.7362
12361TIP3    H158498   6.130   1.616  16.257 -0.5996 -0.0980 -0.6426
12361TIP3    H258499   6.042   1.589  16.378 -0.6523  1.7213 -0.2425
12362TIP3   OH258500   4.504   4.004   0.752  0.2216  0.2686 -0.3100
12362TIP3    H158501   4.455   3.974   0.676  0.1010 -0.3718  0.0137
12362TIP3    H258502   4.487   3.938   0.819 -2.8930  2.7054  1.6155
12363TIP3   OH258503   3.129   4.531   2.515  0.3831 -0.4755 -0.2413
12363TIP3    H158504   3.141   4.451   2.464  1.1312 -1.0512  0.7949
12363TIP3    H258505   3.141   4.503   2.606  1.2129  0.9038  0.1035
12364TIP3   OH258506   1.679   1.077   1.263  0.0611  0.4838 -0.0775
12364TIP3    H158507   1.689   0.982   1.263 -1.1406  0.2816 -2.3122
12364TIP3    H258508   1.585   1.091   1.250 -0.0228  2.0247  1.8621
12365TIP3   OH258509   1.184   1.762  14.502 -0.1264 -0.0688 -0.0763
12365TIP3    H158510   1.098   1.751  14.461 -0.3489 -0.1623  0.4071
12365TIP3    H258511   1.218   1.673  14.513  0.2846 -0.0006 -0.7947
12366TIP3   OH258512   1.733   3.607   5.906 -0.1435  0.2435 -0.5990
12366TIP3    H158513   1.730   3.702   5.911  1.2556  0.2581  0.4467
12366TIP3    H258514   1.809   3.582   5.959 -0.8057 -1.4858 -0.3956
12367TIP3   OH258515   2.773   6.070   1.822  0.2538  0.2607  0.2360
12367TIP3    H158516   2.699   6.129   1.806 -0.4580 -0.6416  0.1199
12367TIP3    H258517   2.769   6.052   1.916  0.7116  0.6994  0.3439
12368TIP3   OH258518   6.016   0.768  12.769  0.8998 -0.4047 -0.0050
12368TIP3    H158519   6.008   0.823  12.847 -0.1304  1.5965 -1.4386
12368TIP3    H258520   6.100   0.793  12.731  0.1096  0.8040 -1.0461
12369TIP3   OH258521   5.695   1.848  12.631  0.0998 -0.0115  0.3415
12369TIP3    H158522   5.763   1.862  12.565 -1.3327  0.7055 -1.0615
12369TIP3    H258523   5.636   1.785  12.591 -1.8076  1.8257  0.0702
12370TIP3   OH258524   6.084   6.105  15.805 -0.3704 -0.3301  0.0896
12370TIP3    H158525   6.060   6.102  15.712 -0.4110 -0.3394  0.0997
12370TIP3    H258526   6.155   6.041  15.814  0.6800  0.7657 -0.2284
12371TIP3   OH258527   2.568   3.016  14.258 -0.0884  0.0688 -0.0631
12371TIP3    H158528   2.517   3.079  14.207 -0.8312 -0.8225 -0.4592
12371TIP3    H258529   2.659   3.029  14.229 -0.1209  1.4217  0.3851
12372TIP3   OH258530   0.524   2.630  15.398  0.2216 -0.4021 -0.4302
12372TIP3    H158531   0.482   2.703  15.444  0.8327 -1.0519  1.2638
12372TIP3    H258532   0.616   2.635  15.425  0.8298 -0.2562 -2.4039
12373TIP3   OH258533   2.537   5.781   1.141 -0.2958 -0.3538  0.1890
12373TIP3    H158534   2.515   5.746   1.228  2.3430  2.6936  2.3216
12373TIP3    H258535   2.556   5.703   1.088 -1.0950 -2.3146  2.5876
12374TIP3   OH258536   5.654   0.152  12.758 -0.1987  0.4154 -0.3010
12374TIP3    H158537   5.723   0.121  12.817  0.2785 -0.6019 -1.3586
12374TIP3    H258538   5.609   0.220  12.808 -1.1572 -1.7928  2.0294
12375TIP3   OH258539   0.994   1.158  16.176 -0.3516  0.1171 -0.0486
12375TIP3    H158540   1.038   1.074  16.190 -1.0558 -0.0688  1.2549
12375TIP3    H258541   0.903   1.141  16.201 -0.7140  1.0167 -0.7165
12376TIP3   OH258542   2.584   3.268  16.446 -1.0377 -0.1132 -0.5770
12376TIP3    H158543   2.653   3.203  16.457  0.8268  2.1673  3.1650
12376TIP3    H258544   2.503   3.220  16.465 -0.0113 -1.8815 -0.4441
12377TIP3   OH258545   3.243   3.715  10.997  0.0944 -0.5060 -0.1888
12377TIP3    H158546   3.171   3.704  10.934 -1.2889  0.4586  1.1434
12377TIP3    H258547   3.269   3.806  10.988  1.0500 -0.8044 -0.5278
12378TIP3   OH258548   5.724   3.707  14.522  0.4997 -0.0744 -0.3122
12378TIP3    H158549   5.699   3.799  14.530  0.8104  0.1044 -1.2674
12378TIP3    H258550   5.713   3.687  14.429  3.7743 -0.0063 -0.8303
12379TIP3   OH258551   6.612   3.712  13.734 -0.6309  0.5750 -0.1334
12379TIP3    H158552   6.592   3.682  13.645  0.0805  0.3475 -0.2211
12379TIP3    H258553   6.681   3.778  13.722  2.9369 -2.6507  0.4848
12380TIP3   OH258554   1.878   1.154  14.721  0.0741  0.3940 -0.0062
12380TIP3    H158555   1.907   1.228  14.774 -0.6368  0.9211 -0.3400
12380TIP3    H258556   1.867   1.082  14.784 -0.8433  1.0342  0.5782
12381TIP3   OH258557   3.290   1.888   5.470  0.0559  0.1574  0.2690
12381TIP3    H158558   3.253   1.921   5.389 -0.1930  0.7531  0.6150
12381TIP3    H258559   3.358   1.826   5.443  0.2351  0.6348 -0.3958
12382TIP3   OH258560   0.894   0.894  14.256 -0.3252 -0.7235 -0.7174
12382TIP3    H158561   0.904   0.903  14.351 -0.6820 -1.9705 -0.5339
12382TIP3    H258562   0.979   0.921  14.220  0.1184 -1.0900  0.0322
12383TIP3   OH258563   6.715   4.530  15.040 -0.1415  0.5537 -0.3024
12383TIP3    H158564   6.692   4.471  15.112  0.9703  0.9910  0.4399
12383TIP3    H258565   6.811   4.524  15.034 -0.2056  0.5591 -1.7331
12384TIP3   OH258566   5.514   3.331   1.212 -0.6494  0.0753  0.2337
12384TIP3    H158567   5.519   3.379   1.130 -0.7482 -0.6131 -0.1811
12384TIP3    H258568   5.576   3.376   1.270  0.0729  0.0213 -0.4878
12385TIP3   OH258569   2.541   1.171   2.613 -0.2089 -0.1384  0.2118
12385TIP3    H158570   2.618   1.171   2.669 -1.7395  1.0889  2.4639
12385TIP3    H258571   2.530   1.079   2.588  1.9064 -0.3394 -0.1277
12386TIP3   OH258572   4.535   5.845  12.651 -0.1167 -0.5594  0.1738
12386TIP3    H158573   4.623   5.817  12.675  0.3177 -0.8578 -1.6716
12386TIP3    H258574   4.528   5.934  12.686  1.3592 -0.0896 -0.6526
12387TIP3   OH258575   5.298   3.964  13.343  0.0910  0.8210 -0.3253
12387TIP3    H158576   5.218   3.917  13.320  0.9405 -0.5039 -0.7464
12387TIP3    H258577   5.299   3.964  13.439 -0.3250  0.7009 -0.3188
12388TIP3   OH258578   5.061   3.939   5.375  0.1169  0.0871 -0.4671
12388TIP3    H158579   5.054   3.979   5.462 -2.2645  0.1614 -0.6110
12388TIP3    H258580   5.055   4.013   5.315  1.9006  0.0490 -0.7499
12389TIP3   OH258581   3.657   3.427  11.733 -0.0055 -0.1449  0.1570
12389TIP3    H158582   3.593   3.384  11.791  1.5144 -1.4352  0.9708
12389TIP3    H258583   3.635   3.394  11.646  1.4224 -3.2150  0.8033
12390TIP3   OH258584   0.569   2.908   2.163 -0.1595  0.2140 -0.6944
12390TIP3    H158585   0.589   2.910   2.257 -0.9547  0.9417 -0.5278
12390TIP3    H258586   0.538   2.819   2.147 -1.2945  0.4547  0.0240
12391TIP3   OH258587   1.903   1.571   3.921  0.0741 -0.1104  0.0922
12391TIP3    H158588   1.815   1.605   3.905  0.6552  0.5848 -1.8913
12391TIP3    H258589   1.944   1.637   3.978 -0.2489  0.2742 -0.1121
12392TIP3   OH258590   3.231   4.749   1.719  0.0897  0.1152  0.9273
12392TIP3    H158591   3.307   4.801   1.693  1.1119 -1.4500  0.6483
12392TIP3    H258592   3.156   4.808   1.706  0.8719  0.6187 -2.1618
12393TIP3   OH258593   3.768   4.535   1.409  0.3595  0.3629  0.0468
12393TIP3    H158594   3.841   4.475   1.396  0.7194  0.9671 -0.8004
12393TIP3    H258595   3.792   4.585   1.488 -0.0595 -0.7442  0.9003
12394TIP3   OH258596   0.288   3.507   3.368 -0.1250  0.0571  0.0283
12394TIP3    H158597   0.234   3.584   3.349  0.6054 -0.0347 -2.8936
12394TIP3    H258598   0.371   3.542   3.400 -0.6777  0.3262  1.2278
12395TIP3   OH258599   3.836   0.186  10.651  0.2619  0.3673  0.0327
12395TIP3    H158600   3.742   0.203  10.637  0.0732 -1.7258 -1.8837
12395TIP3    H258601   3.838   0.115  10.715  0.4633 -0.1494 -0.5332
12396TIP3   OH258602   4.941   2.942   0.542  0.4151 -0.1098  0.0697
12396TIP3    H158603   5.019   2.997   0.544  0.4514 -0.1642  0.1765
12396TIP3    H258604   4.869   3.003   0.523  0.6220 -0.2370 -1.2058
12397TIP3   OH258605   6.009   0.123   5.768  0.3508 -0.5452 -0.3201
12397TIP3    H158606   6.057   0.154   5.691  1.2998 -0.4612  0.2909
12397TIP3    H258607   6.026   0.189   5.835 -2.2782  0.5523 -0.6370
12398TIP3   OH258608   2.708   2.203   5.373  0.2997  0.0601 -0.0834
12398TIP3    H158609   2.794   2.208   5.415  1.2895  1.9730 -2.1601
12398TIP3    H258610   2.662   2.281   5.403 -0.9211 -1.1152  1.2703
12399TIP3   OH258611   6.036   1.758  13.720  0.3070  0.0808 -0.1303
12399TIP3    H158612   6.100   1.688  13.726 -0.2983 -0.5939 -1.2618
12399TIP3    H258613   5.961   1.728  13.772 -1.0332 -1.3980 -2.6840
12400TIP3   OH258614   2.132   1.855   1.477 -0.0541 -0.1026 -1.1003
12400TIP3    H158615   2.116   1.770   1.518 -0.3010  1.0168  1.2770
12400TIP3    H258616   2.069   1.914   1.518  0.5236  1.3625 -2.2330
12401TIP3   OH258617   5.359   0.489  16.935  0.7349  0.5065  0.0074
12401TIP3    H158618   5.269   0.459  16.945  1.2564 -0.7772  1.1395
12401TIP3    H258619   5.362   0.573  16.980 -0.1791  1.1971 -1.1584
12402TIP3   OH258620   3.565   5.236   6.058  0.8935 -0.4404  0.0805
12402TIP3    H158621   3.569   5.322   6.101 -1.3415  1.2149 -2.6756
12402TIP3    H258622   3.656   5.212   6.045  1.7034  2.6961 -1.0749
12403TIP3   OH258623   2.846   4.038   6.543 -0.7183  0.1756  0.3455
12403TIP3    H158624   2.941   4.047   6.547 -0.6591 -0.7790  1.2697
12403TIP3    H258625   2.831   3.969   6.479 -0.7738  0.0104  0.5376
12404TIP3   OH258626   4.313   0.427  14.494  0.4719  0.1596  0.0837
12404TIP3    H158627   4.397   0.390  14.520  1.9937  1.7290 -2.2075
12404TIP3    H258628   4.291   0.488  14.565  1.3917 -0.0761  0.5847
12405TIP3   OH258629   1.264   4.357  14.095  0.3517  0.0992 -0.1653
12405TIP3    H158630   1.303   4.352  14.008  0.6083  0.1021 -0.0516
12405TIP3    H258631   1.316   4.296  14.148 -1.1766 -1.5896 -0.5206
12406TIP3   OH258632   2.689   4.447   4.123 -0.0125 -0.0547 -0.3271
12406TIP3    H158633   2.661   4.459   4.214  1.1251  1.7220 -0.1631
12406TIP3    H258634   2.682   4.352   4.109  0.1965 -0.4421  1.7452
12407TIP3   OH258635   1.155   0.763   5.391  0.1088  0.3172 -0.1447
12407TIP3    H158636   1.219   0.778   5.461  0.5881 -0.2028 -0.4644
12407TIP3    H258637   1.186   0.684   5.347  1.0875  1.8597 -2.3868
12408TIP3   OH258638   6.052   4.212  15.612  0.5477  0.3533  0.0698
12408TIP3    H158639   6.100   4.198  15.531 -1.2039 -2.8089 -0.5840
12408TIP3    H258640   5.993   4.285  15.593  1.4088  0.8358 -0.8332
12409TIP3   OH258641   4.464   0.030  17.021  0.5029  0.2372 -0.1013
12409TIP3    H158642   4.385   0.083  17.034  0.8612  0.5387  0.9232
12409TIP3    H258643   4.487   0.044  16.929 -0.4197  0.4501 -0.3058
12410TIP3   OH258644   0.544   1.709   4.577 -0.3385  0.7345  0.5242
12410TIP3    H158645   0.508   1.761   4.649 -0.1356  1.8709 -0.1779
12410TIP3    H258646   0.470   1.657   4.545 -0.3727  0.0294  1.6963
12411TIP3   OH258647   5.040   2.977  16.660  0.1787  0.2293 -0.3453
12411TIP3    H158648   5.070   3.051  16.608  0.1317  0.1841 -0.4367
12411TIP3    H258649   5.003   2.916  16.596 -0.1243  0.2922 -0.2311
12412TIP3   OH258650   2.647   6.554   1.161  0.2342  0.1862  0.4354
12412TIP3    H158651   2.643   6.477   1.218  0.4378 -0.4464 -0.3862
12412TIP3    H258652   2.582   6.537   1.093  0.7353  0.4242 -0.1185
12413TIP3   OH258653   0.371   5.623   0.218  0.6409 -0.7858  0.6595
12413TIP3    H158654   0.393   5.658   0.304 -2.5427  0.7257  1.0145
12413TIP3    H258655   0.286   5.581   0.230  0.2246 -0.7340 -1.6604
12414TIP3   OH258656   4.366   6.626   3.883  0.1496  0.2317 -0.0294
12414TIP3    H158657   4.273   6.646   3.874  0.2507  1.2927  1.0142
12414TIP3    H258658   4.410   6.710   3.868  0.8487  0.0185  0.7491
12415TIP3   OH258659   5.236   3.644   3.557 -0.3355  0.0686  1.2149
12415TIP3    H158660   5.176   3.640   3.483 -0.8360 -2.0430  1.6532
12415TIP3    H258661   5.321   3.617   3.522 -0.6541 -1.3131  1.4178
12416TIP3   OH258662   5.438   5.405   2.329 -0.7160  0.4793  0.1675
12416TIP3    H158663   5.426   5.440   2.417  1.7711  0.6757  0.5161
12416TIP3    H258664   5.417   5.312   2.337 -3.5919  1.0401  0.1441
12417TIP3   OH258665   4.880   5.178  11.370 -0.1388 -0.0226  0.1749
12417TIP3    H158666   4.837   5.111  11.318 -0.6240  0.1376  0.3679
12417TIP3    H258667   4.973   5.153  11.369 -0.2510 -0.4376 -0.1352
12418TIP3   OH258668   5.322   3.210  16.676 -0.4219  0.0010  0.2174
12418TIP3    H158669   5.234   3.206  16.639  0.8123 -0.2663 -2.9989
12418TIP3    H258670   5.356   3.296  16.650  0.9961 -0.7563 -0.6172
12419TIP3   OH258671   2.005   1.404  14.824  0.4632 -0.2888  0.6785
12419TIP3    H158672   2.063   1.471  14.859  0.0816  0.2697  0.2601
12419TIP3    H258673   2.044   1.380  14.740  1.0380 -1.1785  1.1902
12420TIP3   OH258674   0.010   6.689   2.488  0.1502 -0.3441 -0.2139
12420TIP3    H158675  -0.022   6.727   2.406  1.7267 -3.0875 -2.2888
12420TIP3    H258676   0.094   6.733   2.503  0.0684 -0.1561 -0.3064
12421TIP3   OH258677   6.485   3.246   3.451 -0.9282 -0.2122  0.4131
12421TIP3    H158678   6.484   3.277   3.360  0.4354 -0.7903  0.1771
12421TIP3    H258679   6.420   3.301   3.496 -1.5220  0.1702 -0.8701
12422TIP3   OH258680   3.053   4.833   6.111  0.2001  0.0465  0.1830
12422TIP3    H158681   3.046   4.790   6.025  2.4837 -0.0591 -0.0140
12422TIP3    H258682   3.002   4.777   6.169  0.5190 -1.2115 -0.6841
12423TIP3   OH258683   3.228   2.777  12.824  0.0311 -0.1904 -0.0650
12423TIP3    H158684   3.239   2.705  12.761 -0.4958  0.2577 -0.6911
12423TIP3    H258685   3.292   2.843  12.796  1.3947 -0.9013  1.2681
12424TIP3   OH258686   3.686   1.679   3.542 -0.5514  0.4927 -0.4302
12424TIP3    H158687   3.653   1.694   3.453  0.5309  2.1812 -0.5979
12424TIP3    H258688   3.781   1.676   3.531 -0.4339  0.1177  0.6066
12425TIP3   OH258689   6.562   5.619  11.263 -0.3517 -0.0114  0.1508
12425TIP3    H158690   6.632   5.570  11.306  0.8896  0.5640 -1.1314
12425TIP3    H258691   6.561   5.704  11.307 -2.1301 -0.8986  1.9952
12426TIP3   OH258692   3.466   5.820   2.442  0.1792 -0.7207 -0.1073
12426TIP3    H158693   3.409   5.748   2.416  0.8942 -1.5146  0.4380
12426TIP3    H258694   3.412   5.899   2.434 -0.3099 -1.1821 -1.7374
12427TIP3   OH258695   1.632   5.957   6.819  0.2994 -0.0298  0.5860
12427TIP3    H158696   1.619   5.863   6.832 -0.9368 -0.0448 -0.4928
12427TIP3    H258697   1.544   5.994   6.823  0.4837  0.7433 -1.3755
12428TIP3   OH258698   5.186   3.076  16.922 -0.1833  0.6705 -0.0905
12428TIP3    H158699   5.197   3.171  16.924 -2.8788  1.1118  3.5630
12428TIP3    H258700   5.227   3.045  17.002  1.2128 -1.4234 -1.5344
12429TIP3   OH258701   3.385   1.163  11.080  0.7033  0.6993  0.6631
12429TIP3    H158702   3.460   1.139  11.026 -0.1101 -1.6241  0.4466
12429TIP3    H258703   3.360   1.082  11.124 -2.0774  1.1881  0.2079
12430TIP3   OH258704   2.474   4.762   3.619 -0.4561  0.0088  0.4493
12430TIP3    H158705   2.484   4.841   3.671 -1.0296  0.4387 -0.0817
12430TIP3    H258706   2.560   4.720   3.622 -0.0502  0.8329  0.4358
12431TIP3   OH258707   1.946   5.975  14.039 -0.0530 -0.3849 -0.3006
12431TIP3    H158708   1.973   6.066  14.032 -0.7008 -0.1309  0.4354
12431TIP3    H258709   2.024   5.930  14.072 -0.0762  0.0980  0.4297
12432TIP3   OH258710   1.309   2.910   3.171  0.1409 -0.4514  0.3551
12432TIP3    H158711   1.330   2.922   3.079  0.1476 -0.7981  0.3082
12432TIP3    H258712   1.308   2.815   3.183  0.9277 -0.3999  0.8889
12433TIP3   OH258713   0.963   0.006  11.494 -0.0406  0.0090  0.5914
12433TIP3    H158714   1.011   0.082  11.526  1.0191 -1.5219  2.9205
12433TIP3    H258715   1.028  -0.044  11.443 -0.3310 -0.0638  0.2868
12434TIP3   OH258716   0.520   6.717  16.391  0.5856 -0.0609 -0.7037
12434TIP3    H158717   0.429   6.714  16.363  0.5407 -0.3996 -0.5251
12434TIP3    H258718   0.564   6.652  16.335  0.3872 -1.1652  0.3886
12435TIP3   OH258719   0.620   1.743   3.676  0.7105  0.4756 -0.3613
12435TIP3    H158720   0.670   1.686   3.734  0.5590 -1.9607 -2.4590
12435TIP3    H258721   0.529   1.717   3.691  0.6217  0.3080 -1.1574
12436TIP3   OH258722   2.869   1.883   4.240  0.2084  0.5125 -0.1181
12436TIP3    H158723   2.793   1.896   4.183 -1.0534 -2.0646  0.8333
12436TIP3    H258724   2.844   1.922   4.324  0.5055  0.8824 -0.1988
12437TIP3   OH258725   1.332   0.761   2.269 -0.0775 -0.5949  0.1269
12437TIP3    H158726   1.308   0.691   2.330  0.2609 -1.3165 -0.5382
12437TIP3    H258727   1.263   0.759   2.203  0.3114 -0.7975 -0.2811
12438TIP3   OH258728   3.673   0.275  13.279 -0.1186  0.5569 -0.5686
12438TIP3    H158729   3.758   0.232  13.269  0.0200  0.6925  0.0041
12438TIP3    H258730   3.615   0.205  13.308 -0.4099  0.2728 -1.7531
12439TIP3   OH258731   5.742   3.307   5.168  0.5287  0.8108  0.1036
12439TIP3    H158732   5.810   3.258   5.122  0.0586  0.8841 -0.6983
12439TIP3    H258733   5.745   3.275   5.258  2.9651  2.2200  0.6193
12440TIP3   OH258734   4.415   1.807  11.350  0.7252 -0.0275 -0.5965
12440TIP3    H158735   4.439   1.809  11.257  0.1375 -0.5995 -0.7619
12440TIP3    H258736   4.320   1.815  11.351  0.6466 -0.8694 -0.0833
12441TIP3   OH258737   2.218   0.850  14.065 -0.7308 -0.3427 -0.9808
12441TIP3    H158738   2.235   0.940  14.092 -2.1766 -0.4546  0.5480
12441TIP3    H258739   2.197   0.804  14.147  0.7095 -2.2792 -1.6047
12442TIP3   OH258740   1.281   2.482   6.448  0.1838 -0.2962 -0.1716
12442TIP3    H158741   1.365   2.521   6.471  0.8467 -0.4655 -2.1239
12442TIP3    H258742   1.286   2.392   6.481  0.8965 -0.3883 -0.5084
12443TIP3   OH258743   6.665   0.874   0.316 -0.0211 -0.5164 -0.4586
12443TIP3    H158744   6.682   0.825   0.396  0.7425  0.1843 -0.1852
12443TIP3    H258745   6.731   0.843   0.254  2.1183  1.8708  0.4631
12444TIP3   OH258746   5.134   4.201  16.209  0.1553  0.4245  0.1358
12444TIP3    H158747   5.228   4.203  16.194  0.5846 -0.7804  2.3036
12444TIP3    H258748   5.118   4.118  16.254 -2.0963  0.1496 -1.0161
12445TIP3   OH258749   2.456   0.514   1.478 -0.0635 -0.5795 -0.1209
12445TIP3    H158750   2.431   0.422   1.474  1.3413 -0.9610 -0.7472
12445TIP3    H258751   2.540   0.515   1.523 -0.2605  0.4527  0.2623
12446TIP3   OH258752   0.482   1.673  12.947  0.4509 -0.0376  0.0784
12446TIP3    H158753   0.419   1.602  12.936 -0.0693 -0.4465  4.1406
12446TIP3    H258754   0.557   1.647  12.893 -0.7601 -2.2579 -0.6509
12447TIP3   OH258755   1.981   5.996   1.440 -0.5478  0.6816  0.1376
12447TIP3    H158756   1.950   6.023   1.527 -1.3418  0.7062 -0.1500
12447TIP3    H258757   1.940   6.058   1.380  0.2499  0.8619 -0.2392
12448TIP3   OH258758   1.507   0.123   3.568  0.3646  0.8390 -0.1376
12448TIP3    H158759   1.428   0.125   3.515  1.1874  1.1601 -1.4059
12448TIP3    H258760   1.575   0.088   3.509  1.0351 -0.0466  1.1073
12449TIP3   OH258761   0.891   6.217  15.117  0.0008 -0.4261  0.0613
12449TIP3    H158762   0.976   6.179  15.095  0.7001  0.6030  0.8743
12449TIP3    H258763   0.907   6.311  15.120 -1.4041 -0.1310 -0.7292
12450TIP3   OH258764   0.614   6.240   0.327 -0.0862  0.5980 -0.7137
12450TIP3    H158765   0.567   6.169   0.284  0.5164  0.0964 -0.5452
12450TIP3    H258766   0.550   6.276   0.389 -0.3689  0.1629 -0.7505
12451TIP3   OH258767   0.530   6.043  13.106 -0.0257  0.1948 -0.5457
12451TIP3    H158768   0.574   6.110  13.054 -2.1103  2.0062 -0.1097
12451TIP3    H258769   0.483   5.989  13.042 -1.0251  1.2326 -0.7142
12452TIP3   OH258770   1.786   1.487  17.016  0.5029  0.2705 -0.1368
12452TIP3    H158771   1.809   1.419  17.080  1.9495  1.0615  0.2320
12452TIP3    H258772   1.870   1.508  16.973 -0.4356 -0.3920 -2.4804
12453TIP3   OH258773   0.336   4.514  13.401 -0.9241  0.0412  0.1845
12453TIP3    H158774   0.249   4.553  13.392 -0.9084  0.0087 -0.1091
12453TIP3    H258775   0.371   4.552  13.482 -1.8785 -1.2335  1.2306
12454TIP3   OH258776   5.657   3.004  13.038  0.3617 -0.4308 -0.3204
12454TIP3    H158777   5.722   2.957  13.091 -0.3214  0.3233  1.2595
12454TIP3    H258778   5.575   2.958  13.055  0.1161 -0.1295 -0.6793
12455TIP3   OH258779   3.185   4.683  12.084  0.6004 -0.0960 -0.1190
12455TIP3    H158780   3.259   4.713  12.032  0.1591  1.0287 -0.1338
12455TIP3    H258781   3.224   4.633  12.155  1.2262 -1.4458 -1.3627
12456TIP3   OH258782   4.855   5.953   1.871  0.2274 -0.4808  0.0635
12456TIP3    H158783   4.857   6.042   1.908 -0.9779 -0.3632 -0.1033
12456TIP3    H258784   4.816   5.964   1.784  2.9690 -0.7638 -1.3039
12457TIP3   OH258785   5.368   6.507  10.676  0.6534 -0.4400  0.0782
12457TIP3    H158786   5.448   6.499  10.625  1.0256  0.1760  0.5549
12457TIP3    H258787   5.298   6.517  10.610  1.2363  1.3976 -0.3353
12458TIP3   OH258788   1.452   6.673   5.288  0.0333 -0.2144 -0.4789
12458TIP3    H158789   1.487   6.677   5.377  0.7992 -0.3426 -0.7623
12458TIP3    H258790   1.366   6.714   5.294  0.4578  0.6303  0.1432
12459TIP3   OH258791   1.930   0.029   4.781 -0.2849 -0.0424 -0.0045
12459TIP3    H158792   2.010   0.082   4.771 -0.2419  0.0783  0.9229
12459TIP3    H258793   1.945  -0.022   4.860 -0.4705 -1.2051 -0.7067
12460TIP3   OH258794   4.968   1.576   3.894 -0.5016  0.3069 -0.1643
12460TIP3    H158795   4.998   1.658   3.854 -0.4930  0.3258 -0.1188
12460TIP3    H258796   4.972   1.592   3.988 -0.9232  0.4064 -0.1611
12461TIP3   OH258797   1.530   0.787   5.271  0.2580 -0.2845 -0.0197
12461TIP3    H158798   1.498   0.861   5.220  0.0074  0.8077  1.6611
12461TIP3    H258799   1.557   0.824   5.355  1.3217 -1.9150  0.4208
12462TIP3   OH258800   4.251   0.919   3.165  0.0514  0.4814  0.2889
12462TIP3    H158801   4.161   0.891   3.150  0.6001 -0.5487 -1.3011
12462TIP3    H258802   4.298   0.839   3.188  0.3559  1.2065  2.5131
12463TIP3   OH258803   6.089   4.035  13.585  0.3207  0.0331 -0.4539
12463TIP3    H158804   6.046   4.093  13.648  1.3945  0.3047  0.0577
12463TIP3    H258805   6.037   4.044  13.505 -1.4654 -0.8244  0.5521
12464TIP3   OH258806   5.018   0.893  13.957 -0.1147  0.0666  0.5642
12464TIP3    H158807   4.937   0.927  13.921  1.2574  0.3891 -2.5602
12464TIP3    H258808   5.074   0.970  13.967  0.6502 -0.4344  0.2443
12465TIP3   OH258809   4.948   0.905   1.317 -0.0560  0.4646  0.0530
12465TIP3    H158810   4.885   0.950   1.374 -2.4508 -1.0365 -1.2635
12465TIP3    H258811   5.004   0.856   1.377 -0.1388  1.7970  1.2647
12466TIP3   OH258812   4.992   0.185  16.865 -0.1128 -0.1775 -0.2150
12466TIP3    H158813   4.959   0.269  16.834  2.2740  1.4512  1.3058
12466TIP3    H258814   5.005   0.133  16.786  0.8464  1.8767 -1.4794
12467TIP3   OH258815   5.866   3.845   5.534  0.4881 -0.1426 -0.4343
12467TIP3    H158816   5.947   3.807   5.566 -0.1006 -1.5440 -0.5203
12467TIP3    H258817   5.844   3.912   5.598  1.4153 -0.1329 -0.1114
12468TIP3   OH258818   6.282   0.073   1.370 -0.3544 -0.1248  0.4806
12468TIP3    H158819   6.269   0.114   1.456  1.6195  0.6473  0.4653
12468TIP3    H258820   6.371   0.038   1.374 -0.4831 -0.6810 -1.0213
12469TIP3   OH258821   2.041   3.084   1.641 -0.0914 -0.3424 -0.2577
12469TIP3    H158822   1.999   3.170   1.642  0.4506 -0.0736 -0.3045
12469TIP3    H258823   2.044   3.060   1.549  1.2492  0.3399 -0.4170
12470TIP3   OH258824   1.998   6.240  16.502 -0.4279 -0.5853 -0.1294
12470TIP3    H158825   2.053   6.246  16.580 -0.4298 -0.6082 -0.1267
12470TIP3    H258826   1.908   6.238  16.535 -0.3835 -2.5683 -0.0206
12471TIP3   OH258827   5.870   4.594  14.343 -0.5221 -0.4044 -0.0344
12471TIP3    H158828   5.831   4.508  14.334 -1.0188 -0.0823 -1.1906
12471TIP3    H258829   5.964   4.579  14.337 -0.6141 -0.8476 -0.3713
12472TIP3   OH258830   5.618   1.679   0.619  0.8049  0.3504 -0.3009
12472TIP3    H158831   5.577   1.687   0.533  0.5450  2.6800 -0.0283
12472TIP3    H258832   5.545   1.680   0.681  1.0856  1.0125  0.0315
12473TIP3   OH258833   1.276   3.239   0.320  0.2542  0.1018 -0.0441
12473TIP3    H158834   1.355   3.292   0.312  0.0405  0.2876 -1.0308
12473TIP3    H258835   1.252   3.244   0.412  0.6613  1.1069  0.0098
12474TIP3   OH258836   6.463   6.364   2.849 -0.6750 -0.3597 -0.2385
12474TIP3    H158837   6.533   6.355   2.784  2.0345  2.5329  1.9162
12474TIP3    H258838   6.435   6.455   2.842 -2.4741 -0.8038  0.6517
12475TIP3   OH258839   2.198   0.988  15.551  0.4115  0.3464  0.1125
12475TIP3    H158840   2.250   0.993  15.632  2.3437  0.3609 -1.0632
12475TIP3    H258841   2.183   0.894  15.539  1.3898  0.2192 -0.2383
12476TIP3   OH258842   5.094   3.622   5.383  0.1121  0.4637  0.2072
12476TIP3    H158843   5.073   3.716   5.381 -2.4798 -0.0451 -0.0488
12476TIP3    H258844   5.040   3.585   5.313  0.7610 -1.2991  0.6043
12477TIP3   OH258845   1.542   5.948   2.051  0.0604 -0.4421  0.2351
12477TIP3    H158846   1.463   5.950   2.106 -0.3392 -3.7286  0.0166
12477TIP3    H258847   1.509   5.930   1.963  0.9858 -2.4102  0.2278
12478TIP3   OH258848   3.417   2.940   3.041  0.2878  0.0118 -1.2826
12478TIP3    H158849   3.386   2.882   3.111  0.1812  1.1182 -0.3801
12478TIP3    H258850   3.366   2.914   2.964  0.0222 -0.8789 -0.8215
12479TIP3   OH258851   0.424   0.051   1.096 -0.8120 -0.7704  0.2839
12479TIP3    H158852   0.503   0.091   1.058  0.1689  1.2280  3.8984
12479TIP3    H258853   0.454  -0.034   1.129  0.2584  0.4031  2.5592
12480TIP3   OH258854   2.244   3.107   4.452 -0.3678 -0.2379  0.0911
12480TIP3    H158855   2.191   3.176   4.492 -1.6288 -1.1347  0.0165
12480TIP3    H258856   2.322   3.101   4.508 -0.6496  0.6540  0.5886
12481TIP3   OH258857   5.509   3.252  15.612 -0.3771 -0.2681  0.0115
12481TIP3    H158858   5.594   3.250  15.654 -0.9922 -0.2447  1.3122
12481TIP3    H258859   5.527   3.275  15.521  1.0420 -0.8371  0.1275
12482TIP3   OH258860   3.895   3.074  11.615 -0.1055  0.2816 -0.2450
12482TIP3    H158861   3.883   3.113  11.528 -1.5239  0.2487 -0.0780
12482TIP3    H258862   3.808   3.046  11.641  0.2561  0.5393  1.3195
12483TIP3   OH258863   1.926   5.885  11.267 -0.4846  0.0559  0.5376
12483TIP3    H158864   1.854   5.878  11.330  1.8114 -0.0056  3.3660
12483TIP3    H258865   1.948   5.794  11.246 -1.5368  0.0830 -0.7759
12484TIP3   OH258866   5.216   5.105  13.512  0.1351  0.1708  0.6358
12484TIP3    H158867   5.203   5.163  13.587 -1.0010  0.0152  0.5632
12484TIP3    H258868   5.133   5.106  13.465  0.2413 -1.1519  0.3759
12485TIP3   OH258869   1.364   2.613   4.833  0.4316 -0.1827 -0.0101
12485TIP3    H158870   1.293   2.604   4.769 -1.4223  0.8226  1.7769
12485TIP3    H258871   1.380   2.524   4.863 -0.5234 -0.3640 -0.0068
12486TIP3   OH258872   4.554   0.334  10.862  0.0943 -0.1200  0.2500
12486TIP3    H158873   4.495   0.299  10.795 -0.2685  0.4856  0.2379
12486TIP3    H258874   4.640   0.337  10.820  0.0084 -0.4229  0.0534
12487TIP3   OH258875   1.547   6.500   4.148  0.2753 -0.0289  0.0717
12487TIP3    H158876   1.494   6.547   4.083 -0.6947 -1.5173 -0.2543
12487TIP3    H258877   1.555   6.561   4.221  0.7250  1.3911 -1.1001
12488TIP3   OH258878   1.570   0.565  12.964  0.6958 -0.3246  0.1818
12488TIP3    H158879   1.506   0.559  13.035  0.4277  0.8422  0.0469
12488TIP3    H258880   1.612   0.479  12.963 -0.5142 -0.9461  0.6036
12489TIP3   OH258881   0.069   2.796  15.806 -0.1215  0.1101 -0.5428
12489TIP3    H158882   0.009   2.870  15.816  0.6036  1.0769 -2.6932
12489TIP3    H258883   0.024   2.734  15.750 -0.9615 -1.4657  1.7105
12490TIP3   OH258884   1.816   1.074   1.011 -0.1494  0.6582  0.4523
12490TIP3    H158885   1.867   1.148   0.980 -2.0380  1.5181 -0.7708
12490TIP3    H258886   1.774   1.105   1.092  0.8631  0.1056  1.2109
12491TIP3   OH258887   2.460   0.218   3.482  0.4057 -0.1785  0.3015
12491TIP3    H158888   2.381   0.227   3.535  0.9608 -0.4812  1.2097
12491TIP3    H258889   2.428   0.208   3.392 -0.6937 -2.3829  0.8738
12492TIP3   OH258890   5.020   5.713  12.950  0.4471  0.2771  0.4474
12492TIP3    H158891   4.994   5.734  13.040 -2.2768  1.6783 -0.5585
12492TIP3    H258892   4.971   5.633  12.930  2.7990 -1.3801  0.8426
12493TIP3   OH258893   2.847   4.444   6.035  0.3155 -0.1479  0.1527
12493TIP3    H158894   2.860   4.349   6.038 -1.5765 -0.4205  0.4590
12493TIP3    H258895   2.810   4.467   6.120 -3.4208  0.1342 -1.3817
12494TIP3   OH258896   3.165   4.446  16.032  0.2573 -0.0667  0.3807
12494TIP3    H158897   3.190   4.440  15.940 -0.0400 -2.5955  0.3925
12494TIP3    H258898   3.075   4.480  16.030 -0.5866 -2.1377 -0.4909
12495TIP3   OH258899   3.059   5.972  13.737  0.0491  0.4316 -0.4297
12495TIP3    H158900   3.130   5.913  13.763 -0.6450 -0.2853 -0.0803
12495TIP3    H258901   3.014   5.992  13.819 -0.7759  0.0144 -0.7570
12496TIP3   OH258902   4.298   3.149   4.115  0.8917 -0.7616 -0.1419
12496TIP3    H158903   4.330   3.067   4.153 -0.7162 -1.5769 -0.4678
12496TIP3    H258904   4.250   3.192   4.186  2.6232  0.4744  0.3568
12497TIP3   OH258905   0.598   6.122   1.171  0.1400  0.3651 -0.7057
12497TIP3    H158906   0.656   6.052   1.142 -0.0892 -0.2115  0.1687
12497TIP3    H258907   0.510   6.089   1.152  0.0333  0.4222 -0.3199
12498TIP3   OH258908   4.017   4.513  13.783  0.1510  0.6911  0.0386
12498TIP3    H158909   4.031   4.438  13.726 -1.7011 -0.9577  1.6291
12498TIP3    H258910   3.988   4.583  13.724  2.5150  0.4278 -1.5440
12499TIP3   OH258911   6.567   6.719  10.602 -0.1650  0.1244 -0.8558
12499TIP3    H158912   6.662   6.705  10.600 -0.1793 -0.2247  0.3011
12499TIP3    H258913   6.533   6.659  10.536  0.3720 -0.1575 -0.8821
12500TIP3   OH258914   4.165   0.583  13.204 -0.2535 -0.1705  0.1677
12500TIP3    H158915   4.110   0.642  13.256 -0.4445  0.4915 -0.7571
12500TIP3    H258916   4.234   0.639  13.169  0.7734 -0.9149  0.9694
12501TIP3   OH258917   5.367   4.880  11.440 -0.3621  0.4868 -0.4093
12501TIP3    H158918   5.419   4.923  11.372 -1.0160  1.1168 -0.5277
12501TIP3    H258919   5.339   4.798  11.400 -0.3613  0.6427 -0.7355
12502TIP3   OH258920   5.330   3.922  14.882 -0.3630 -0.3206  0.2726
12502TIP3    H158921   5.347   3.978  14.958  1.9199 -0.1489 -0.2748
12502TIP3    H258922   5.390   3.955  14.815 -1.5278 -1.1866 -1.2540
12503TIP3   OH258923   2.012   2.279  11.975  0.0254 -0.3700  0.5933
12503TIP3    H158924   2.009   2.370  11.944 -1.0992  0.1931  2.2034
12503TIP3    H258925   1.921   2.250  11.972 -0.0507 -0.4821  2.6601
12504TIP3   OH258926   0.593   3.562  14.935  0.4922 -0.5830 -0.1691
12504TIP3    H158927   0.656   3.493  14.913  1.7145  0.7170 -0.9207
12504TIP3    H258928   0.598   3.623  14.861  1.7288  1.8645  1.7895
12505TIP3   OH258929   1.384   5.200  14.750 -0.5425 -0.2332  0.1678
12505TIP3    H158930   1.300   5.210  14.795 -1.5721  0.3622 -1.7542
12505TIP3    H258931   1.426   5.286  14.758 -0.3269 -0.3836  0.7014
12506TIP3   OH258932   2.464   5.580   4.635  0.0687 -0.0712  0.0318
12506TIP3    H158933   2.438   5.530   4.712  0.9492 -1.1420 -0.3394
12506TIP3    H258934   2.436   5.670   4.653  0.2581 -0.3109  1.5833
12507TIP3   OH258935   2.017   5.880  11.867  0.0171 -0.1730  0.0651
12507TIP3    H158936   2.092   5.830  11.897 -1.4021 -1.3011  1.9470
12507TIP3    H258937   2.022   5.963  11.915 -0.1219 -0.3734  0.4217
12508TIP3   OH258938   6.241   2.328   3.223  0.4354  0.0314  0.2041
12508TIP3    H158939   6.314   2.387   3.246  2.2081 -1.3580 -1.5291
12508TIP3    H258940   6.256   2.307   3.131 -2.2656 -0.2496 -0.2358
12509TIP3   OH258941   1.025   0.333   1.824  0.6278 -0.6174 -0.6417
12509TIP3    H158942   1.002   0.240   1.817  0.1687 -0.4630 -1.1987
12509TIP3    H258943   1.120   0.334   1.811  0.4830 -0.8942 -1.9222
12510TIP3   OH258944   2.563   0.430   3.106  0.0432 -0.1175 -0.0072
12510TIP3    H158945   2.582   0.472   3.189  0.8718 -0.3998 -0.0490
12510TIP3    H258946   2.550   0.337   3.128 -0.8925 -0.0118 -0.0412
12511TIP3   OH258947   2.677   1.218   4.373 -0.3439 -0.1743  0.1466
12511TIP3    H158948   2.582   1.233   4.378 -0.3845 -0.0520 -0.7184
12511TIP3    H258949   2.701   1.186   4.460 -0.8212  1.7433  1.0446
12512TIP3   OH258950   0.554   6.093   3.660 -0.2706 -0.0729  0.3194
12512TIP3    H158951   0.604   6.026   3.707 -0.5612 -1.3582 -1.1100
12512TIP3    H258952   0.574   6.077   3.567 -1.7280  0.6820 -0.1546
12513TIP3   OH258953   1.226   3.500   2.093 -0.1986 -0.8801  1.1708
12513TIP3    H158954   1.312   3.529   2.064 -0.3961 -0.3542  1.0994
12513TIP3    H258955   1.242   3.417   2.139  0.4172 -0.4751  1.6899
12514TIP3   OH258956   4.117   3.269   0.387  0.4523 -0.1865  0.2625
12514TIP3    H158957   4.129   3.181   0.351 -3.0573 -0.1149 -1.4786
12514TIP3    H258958   4.068   3.316   0.319 -0.4276  2.1815  2.3871
12515TIP3   OH258959   5.050   6.412   4.346  0.4674  0.4076 -0.1127
12515TIP3    H158960   5.008   6.349   4.403 -0.1684 -0.8535 -1.8862
12515TIP3    H258961   5.137   6.375   4.328  0.1236  0.0562 -1.0959
12516TIP3   OH258962   1.609   4.006  12.385  0.1009  0.1808  0.1073
12516TIP3    H158963   1.616   3.945  12.311  1.8879  0.3982  0.0513
12516TIP3    H258964   1.580   4.088  12.345 -0.3469 -0.0864 -0.1239
12517TIP3   OH258965   1.400   0.294   5.170 -0.1905 -0.8101  0.3877
12517TIP3    H158966   1.457   0.367   5.191 -0.3904  0.1626 -2.1496
12517TIP3    H258967   1.458   0.218   5.166  0.0645 -0.8068  2.7231
12518TIP3   OH258968   4.329   2.189   3.477  0.5389  0.0355  0.4421
12518TIP3    H158969   4.346   2.170   3.569  0.2501  1.0518  0.7108
12518TIP3    H258970   4.373   2.117   3.430  0.4937 -0.6232  1.3665
12519TIP3   OH258971   5.680   2.273  15.132 -0.1804 -0.4033  0.2999
12519TIP3    H158972   5.724   2.190  15.153  0.1236 -0.3560 -0.1308
12519TIP3    H258973   5.669   2.270  15.037  1.1854  0.7093  0.0812
12520TIP3   OH258974   1.559   3.947   0.111 -0.0987  0.0242 -0.4000
12520TIP3    H158975   1.548   3.944   0.016 -0.9757  0.0877 -0.3068
12520TIP3    H258976   1.498   4.015   0.140  0.0351 -0.1216  0.2298
12521TIP3   OH258977   5.154   6.375  10.524  0.2654  0.5598 -0.0491
12521TIP3    H158978   5.165   6.470  10.518 -0.3930  0.5532 -1.9131
12521TIP3    H258979   5.123   6.349  10.437 -2.9240 -0.9096  1.3493
12522TIP3   OH258980   1.713   0.280   3.298 -0.2422 -0.5349  0.3204
12522TIP3    H158981   1.713   0.201   3.352  0.9941 -0.1224  0.9697
12522TIP3    H258982   1.792   0.272   3.245 -0.1088  0.2569  0.3932
12523TIP3   OH258983   6.311   3.534   6.751  0.2690  0.3073  0.0707
12523TIP3    H158984   6.245   3.477   6.712  0.6347  0.0756 -0.2221
12523TIP3    H258985   6.284   3.623   6.727 -0.0614  0.2276  0.1493
12524TIP3   OH258986   1.495   2.993   3.520  0.4663  0.0459 -0.3147
12524TIP3    H158987   1.547   3.027   3.447  2.1934  1.1112  1.3179
12524TIP3    H258988   1.559   2.973   3.588 -1.1253 -0.4026  1.1163
12525TIP3   OH258989   0.590   6.695   2.588  0.1213 -0.0161 -0.0769
12525TIP3    H158990   0.603   6.782   2.551  0.6023  0.4677  1.1885
12525TIP3    H258991   0.647   6.638   2.536  0.5226  0.5753 -0.2901
12526TIP3   OH258992   0.866   2.476  13.674 -0.1470  0.2068  0.3127
12526TIP3    H158993   0.846   2.462  13.581  0.5931  1.4946 -0.0729
12526TIP3    H258994   0.796   2.430  13.721 -0.4472 -0.5901 -0.8724
12527TIP3   OH258995   3.286   4.393   2.107 -0.0108 -1.1015  0.1514
12527TIP3    H158996   3.260   4.369   2.196  2.3102 -0.1907  1.1554
12527TIP3    H258997   3.381   4.406   2.112 -0.1304  1.3109 -1.9066
12528TIP3   OH258998   5.509   0.789   3.161 -0.2482 -0.0522 -0.1570
12528TIP3    H158999   5.469   0.873   3.179  1.1242  0.9553 -1.4928
12528TIP3    H259000   5.577   0.808   3.095 -0.2823 -2.2807 -0.9425
12529TIP3   OH259001   3.249   6.680  14.223 -0.4291  0.4245 -0.5098
12529TIP3    H159002   3.166   6.727  14.237  0.4862  2.1550 -0.6682
12529TIP3    H259003   3.305   6.709  14.295 -0.2567 -1.5609  0.2179
12530TIP3   OH259004   4.387   1.614  14.665 -0.3003 -0.1235  0.4054
12530TIP3    H159005   4.333   1.682  14.706  1.5362  2.1890 -0.7708
12530TIP3    H259006   4.467   1.611  14.719 -1.3570 -3.4477  2.0919
12531TIP3   OH259007   5.484   2.959   4.804 -0.3628  0.4785 -0.4659
12531TIP3    H159008   5.548   3.027   4.825 -0.5935  0.6383 -0.2700
12531TIP3    H259009   5.441   2.939   4.887  0.4168 -0.6627 -0.3212
12532TIP3   OH259010   4.047   2.568   3.267 -0.3320 -0.0303  0.1301
12532TIP3    H159011   4.110   2.498   3.246 -0.9338 -0.2937 -0.8805
12532TIP3    H259012   4.039   2.618   3.185 -2.3650 -0.7600 -0.1896
12533TIP3   OH259013   0.202   1.533  17.059 -0.1750 -0.1507 -0.5779
12533TIP3    H159014   0.149   1.493  17.128 -2.9653  1.7611 -1.4209
12533TIP3    H259015   0.235   1.459  17.008 -2.1986 -1.4828 -0.0771
12534TIP3   OH259016   0.061   3.889   5.050 -0.0443 -0.1304 -0.6084
12534TIP3    H159017  -0.015   3.849   5.007 -0.6891 -0.7870  1.0490
12534TIP3    H259018   0.096   3.820   5.107 -0.9555  1.4369  2.0710
12535TIP3   OH259019   4.495   4.710  12.865 -0.4364  0.0925  0.6037
12535TIP3    H159020   4.460   4.643  12.924 -1.8635  0.3585  0.1006
12535TIP3    H259021   4.427   4.777  12.862 -0.0576  0.4403 -0.7390
12536TIP3   OH259022   4.337   3.082  12.451 -0.2430 -0.2449  0.6229
12536TIP3    H159023   4.378   3.130  12.523 -1.2475  2.6384 -0.5974
12536TIP3    H259024   4.402   3.016  12.427  2.2939  1.9820  0.9351
12537TIP3   OH259025   1.960   5.357   4.438 -0.0206 -0.1178 -0.4133
12537TIP3    H159026   2.040   5.406   4.453  1.3805 -1.9019 -1.6629
12537TIP3    H259027   1.916   5.404   4.367  0.6477  0.0442 -0.7228
12538TIP3   OH259028   1.327   1.507  17.127 -0.1395  0.3946  0.1068
12538TIP3    H159029   1.411   1.485  17.087 -0.1342 -1.6829  1.0873
12538TIP3    H259030   1.317   1.601  17.114  0.7956  0.1708 -2.8683
12539TIP3   OH259031   4.360   0.575   2.580 -0.6332 -0.0004  0.3229
12539TIP3    H159032   4.413   0.524   2.641 -2.4070  0.3626  2.2891
12539TIP3    H259033   4.270   0.566   2.613 -1.4315  1.7051 -1.1988
12540TIP3   OH259034   2.208   0.995   5.125  0.5111 -0.1405  0.2818
12540TIP3    H159035   2.214   1.075   5.177 -1.6444  0.0119  0.3657
12540TIP3    H259036   2.116   0.988   5.101  0.1553 -3.6725  2.0436
12541TIP3   OH259037   0.776   0.422  15.057 -0.4334  0.2425  0.3388
12541TIP3    H159038   0.796   0.494  14.998 -4.2707  1.0598 -0.2416
12541TIP3    H259039   0.741   0.464  15.136 -2.1972 -0.8911  0.2213
12542TIP3   OH259040   6.287   1.961   0.017  0.2868  0.3198  0.3123
12542TIP3    H159041   6.329   1.929  -0.063 -0.8133 -2.4468  0.7273
12542TIP3    H259042   6.312   1.898   0.084  0.4500  2.0835  1.9961
12543TIP3   OH259043   1.441   4.744  11.313  0.0519 -0.2429 -0.0034
12543TIP3    H159044   1.384   4.721  11.240  0.1827  0.0345 -0.1918
12543TIP3    H259045   1.455   4.838  11.305 -0.2981 -0.1295  0.6400
12544TIP3   OH259046   0.997   2.595   1.589 -0.0289  0.7718 -0.3466
12544TIP3    H159047   0.964   2.674   1.632 -0.7137  0.2128  0.1816
12544TIP3    H259048   0.966   2.601   1.499 -2.8344 -0.3828  0.4321
12545TIP3   OH259049   6.659   2.358   5.630 -0.3776  0.2186 -0.0814
12545TIP3    H159050   6.567   2.377   5.645 -0.2430  0.0071  1.1029
12545TIP3    H259051   6.660   2.306   5.550 -1.2624  0.3895 -0.2144
12546TIP3   OH259052   5.628   1.670   2.287 -0.1469  0.2171  0.0194
12546TIP3    H159053   5.588   1.659   2.201 -0.8302  1.7303  0.1086
12546TIP3    H259054   5.669   1.757   2.284  1.5345 -0.5086  0.5761
12547TIP3   OH259055   2.040   6.663  11.057 -0.2977  0.1248 -0.4039
12547TIP3    H159056   2.022   6.756  11.067 -0.8724 -0.0970  0.8683
12547TIP3    H259057   2.037   6.628  11.147 -0.2940 -1.1502 -0.8736
12548TIP3   OH259058   5.777   2.738   0.992  0.6388 -0.1456 -0.6677
12548TIP3    H159059   5.800   2.646   1.005 -0.4974 -0.2162  1.2415
12548TIP3    H259060   5.736   2.741   0.906 -0.1248 -1.6089 -0.3790
12549TIP3   OH259061   6.497   5.410   0.221 -0.4173 -0.8891  0.5045
12549TIP3    H159062   6.552   5.360   0.282 -1.5211 -2.2666  0.4169
12549TIP3    H259063   6.424   5.441   0.274  0.2238  0.6514  0.5461
12550TIP3   OH259064   5.016   3.465   3.612  0.0679  0.4735 -0.1944
12550TIP3    H159065   5.080   3.482   3.542  0.5877  0.0967  0.1774
12550TIP3    H259066   5.070   3.442   3.688 -0.5332 -0.8352 -0.1330
12551TIP3   OH259067   1.637   3.062  13.203  0.1534 -0.0267  0.8823
12551TIP3    H159068   1.556   3.076  13.154  0.3117 -0.4500  0.4880
12551TIP3    H259069   1.661   2.971  13.183  2.4016  0.9945 -1.5877
12552TIP3   OH259070   4.933   1.833  11.611 -0.5880  0.0756 -0.0185
12552TIP3    H159071   4.890   1.765  11.662  0.9576 -0.3517  0.7692
12552TIP3    H259072   4.863   1.873  11.559 -1.8123 -0.9259  0.8318
12553TIP3   OH259073   6.687   1.125  14.318 -0.2211  0.0503  0.4612
12553TIP3    H159074   6.716   1.045  14.272 -0.4355 -0.4316  1.1537
12553TIP3    H259075   6.633   1.171  14.253  0.3435 -0.0948 -0.1262
12554TIP3   OH259076   2.532   2.465  16.095  0.2447 -0.6850 -0.3304
12554TIP3    H159077   2.477   2.475  16.173  0.0579 -2.4354 -0.1784
12554TIP3    H259078   2.615   2.430  16.128  1.6823  2.2182 -0.5193
12555TIP3   OH259079   1.686   5.775  14.574 -0.0689 -0.1686  0.3490
12555TIP3    H159080   1.651   5.852  14.617  0.5957  0.8689 -0.8903
12555TIP3    H259081   1.694   5.800  14.482 -0.3784 -1.9164 -0.2042
12556TIP3   OH259082   1.859   5.326   2.851 -0.6781 -0.3982 -0.4239
12556TIP3    H159083   1.786   5.320   2.789 -1.4046  0.3811  0.3343
12556TIP3    H259084   1.888   5.235   2.863 -2.5829 -0.9418  0.4961
12557TIP3   OH259085   1.691   4.727   5.417 -0.2167 -0.2750  0.2242
12557TIP3    H159086   1.720   4.806   5.462 -2.5685  1.0334 -0.4212
12557TIP3    H259087   1.596   4.730   5.421 -0.5917 -0.4430 -4.0334
12558TIP3   OH259088   2.873   2.384  12.202  0.5579 -0.7461 -0.0613
12558TIP3    H159089   2.867   2.291  12.222 -0.3430 -0.4226  1.3247
12558TIP3    H259090   2.950   2.415  12.250  1.9461 -1.0835 -1.9645
12559TIP3   OH259091   6.666   1.454  14.381 -0.0320  0.8079  0.0761
12559TIP3    H159092   6.741   1.408  14.420 -0.1345 -0.1488 -0.7945
12559TIP3    H259093   6.618   1.489  14.455  0.4955  0.1785  0.7342
12560TIP3   OH259094   0.210   0.319   5.747 -0.2439 -0.0442 -0.0131
12560TIP3    H159095   0.260   0.400   5.755  1.4983 -1.0164 -0.5557
12560TIP3    H259096   0.209   0.282   5.835 -0.6060  0.2872  0.1294
12561TIP3   OH259097   1.531   2.553   1.235 -0.7762  0.3135 -0.3985
12561TIP3    H159098   1.470   2.529   1.306  0.7189 -0.1981  0.7564
12561TIP3    H259099   1.557   2.643   1.256  0.8858 -0.3737  0.6420
12562TIP3   OH259100   5.620   1.871   5.779  0.9123 -0.2260  0.8300
12562TIP3    H159101   5.614   1.929   5.854  1.7657 -0.6606  1.2571
12562TIP3    H259102   5.706   1.830   5.788  0.9463 -0.4233 -0.2840
12563TIP3   OH259103   3.995   4.670   3.552 -0.0644  0.2155  0.3702
12563TIP3    H159104   4.050   4.743   3.580 -0.7783  0.4259  1.2785
12563TIP3    H259105   3.966   4.694   3.464 -0.9912  1.4750  0.9787
12564TIP3   OH259106   2.715   0.964   2.365 -0.1161  0.4965 -0.0778
12564TIP3    H159107   2.780   1.016   2.318 -0.5865  1.9748  0.8414
12564TIP3    H259108   2.638   0.964   2.308 -0.5132  1.8541  0.4154
12565TIP3   OH259109   2.129   4.414  13.066 -0.1915 -0.2006 -0.4878
12565TIP3    H159110   2.199   4.398  13.130  1.0241 -1.0150 -1.9532
12565TIP3    H259111   2.066   4.344  13.083 -0.1673 -0.0690  0.1875
12566TIP3   OH259112   3.048   1.766   1.954  0.1144  0.0567  0.3174
12566TIP3    H159113   3.128   1.817   1.966  0.5016  0.3060 -2.6258
12566TIP3    H259114   3.047   1.704   2.027  2.3332  0.8319  1.0712
12567TIP3   OH259115   3.016   3.783   1.705  0.4801 -0.5415 -0.0830
12567TIP3    H159116   2.936   3.754   1.663 -0.4410  2.9746 -1.0702
12567TIP3    H259117   3.083   3.778   1.637  0.4365 -0.7704 -0.1081
12568TIP3   OH259118   6.301   1.533  16.917 -0.0947  0.5618 -0.2426
12568TIP3    H159119   6.324   1.490  16.835  0.8287  2.2032 -0.8778
12568TIP3    H259120   6.366   1.502  16.980  1.4718  2.0771 -1.0510
12569TIP3   OH259121   4.114   1.429  15.669  0.0938  0.0852 -0.5324
12569TIP3    H159122   4.165   1.510  15.657  2.0697 -1.0930 -0.6063
12569TIP3    H259123   4.120   1.385  15.584 -2.4257  0.5856 -1.0440
12570TIP3   OH259124   4.602   6.126   2.930 -0.5073  0.5115 -0.1325
12570TIP3    H159125   4.525   6.116   2.874 -2.2853  1.6223  1.9389
12570TIP3    H259126   4.673   6.085   2.881 -2.8979 -2.9779 -1.0782
12571TIP3   OH259127   0.645   0.598   2.071  0.2371  0.3467 -1.1632
12571TIP3    H159128   0.563   0.577   2.116  0.6494 -0.3672 -0.7132
12571TIP3    H259129   0.628   0.680   2.025 -1.1262 -0.4366 -2.1071
12572TIP3   OH259130   4.438   6.390   5.131  0.1944 -0.6120  0.1807
12572TIP3    H159131   4.403   6.376   5.219 -1.4343  1.5124 -0.0490
12572TIP3    H259132   4.530   6.412   5.144  0.3952 -1.9291  1.1751
12573TIP3   OH259133   2.685   2.769   3.847  0.2730  0.0209 -0.2881
12573TIP3    H159134   2.780   2.777   3.840  0.0835  1.9968 -1.0702
12573TIP3    H259135   2.668   2.675   3.841  1.9581 -0.1981 -3.6220
12574TIP3   OH259136   3.923   6.110  13.641  0.2126  0.1759  0.0523
12574TIP3    H159137   3.916   6.193  13.688 -0.2437  0.4526 -0.4963
12574TIP3    H259138   4.016   6.086  13.648  0.3735  0.7995  0.0979
12575TIP3   OH259139   5.010   0.072   4.039  0.9062  0.2936  0.4347
12575TIP3    H159140   5.092   0.024   4.042  1.2339  0.8993  1.9887
12575TIP3    H259141   4.944   0.006   4.017  1.9862  0.1335 -2.8059
12576TIP3   OH259142   2.098   6.278  13.306 -0.4786  0.3388 -0.1125
12576TIP3    H159143   2.049   6.266  13.225 -0.8968 -1.4738  0.3782
12576TIP3    H259144   2.054   6.223  13.370  1.3069 -0.2338  0.7081
12577TIP3   OH259145   2.596   0.925   3.047  0.4596 -0.4095  0.3296
12577TIP3    H159146   2.519   0.963   3.003  1.3209 -0.2034 -1.0911
12577TIP3    H259147   2.560   0.875   3.120 -1.1088 -1.1256 -0.8684
12578TIP3   OH259148   0.191   6.693  13.030 -0.2047  0.2219 -0.1965
12578TIP3    H159149   0.280   6.671  13.061  0.2173  1.8038 -0.2184
12578TIP3    H259150   0.134   6.631  13.076  0.7785  0.1201  0.9382
12579TIP3   OH259151   0.967   0.602  15.645  0.2065  0.3022 -0.4298
12579TIP3    H159152   1.030   0.600  15.717  2.5519  0.4515 -2.3474
12579TIP3    H259153   1.003   0.542  15.580 -1.2363  0.9785 -1.9172
12580TIP3   OH259154   4.474   3.395  11.825 -0.0180  0.2495  0.1153
12580TIP3    H159155   4.442   3.323  11.878 -2.7747  1.6566  0.5909
12580TIP3    H259156   4.417   3.469  11.849  1.1584  1.9533 -1.9870
12581TIP3   OH259157   6.022   2.863  16.513  0.0206 -0.0344 -0.1277
12581TIP3    H159158   6.088   2.794  16.510 -1.4422 -1.4766  0.0261
12581TIP3    H259159   6.009   2.889  16.422  0.0883 -0.4244 -0.2462
12582TIP3   OH259160   2.252   2.340  15.552 -0.0936 -0.3003  0.5716
12582TIP3    H159161   2.324   2.394  15.586 -0.2583  0.8750 -0.8280
12582TIP3    H259162   2.296   2.270  15.504  0.1210 -1.4221  2.3121
12583TIP3   OH259163   2.097   1.603  13.211 -0.0687 -0.6603  0.3108
12583TIP3    H159164   2.030   1.664  13.242 -0.8192 -1.5782  0.4993
12583TIP3    H259165   2.177   1.657  13.205 -1.3377  1.1750 -2.4879
12584TIP3   OH259166   1.933   1.921   0.595  0.2080  0.1066 -0.0424
12584TIP3    H159167   1.856   1.868   0.617  0.0997  0.8507  1.4719
12584TIP3    H259168   1.900   1.985   0.532 -0.1891 -0.1724 -0.1290
12585TIP3   OH259169   0.438   3.918  15.348 -0.7375  0.0539 -0.6141
12585TIP3    H159170   0.423   4.009  15.321 -0.6483 -0.0829 -1.1487
12585TIP3    H259171   0.466   3.874  15.267  1.9166  0.1411  0.1518
12586TIP3   OH259172   0.856   2.666  11.404 -0.6547 -0.4324  0.0646
12586TIP3    H159173   0.893   2.693  11.489 -0.8748  3.2170 -0.8400
12586TIP3    H259174   0.932   2.660  11.346 -0.8738  1.2784 -0.4299
12587TIP3   OH259175   0.280   1.376   2.937  0.8952  0.2036 -0.8475
12587TIP3    H159176   0.249   1.351   2.850 -0.9650 -0.1357 -0.1380
12587TIP3    H259177   0.325   1.298   2.970 -1.5146 -0.9894 -0.1588
12588TIP3   OH259178   3.236   1.391   1.848  0.0642  0.1967  0.3107
12588TIP3    H159179   3.280   1.414   1.930  0.5606  0.8611 -0.1279
12588TIP3    H259180   3.287   1.318   1.814 -0.0231  0.0493  0.4915
12589TIP3   OH259181   6.511   4.162   6.062 -0.1241  0.1296  0.0062
12589TIP3    H159182   6.578   4.223   6.092 -1.3525  3.8542 -3.7668
12589TIP3    H259183   6.447   4.158   6.133  0.6462  2.3576  0.8978
12590TIP3   OH259184   2.498   0.057  16.983 -0.3834  0.6485  0.3413
12590TIP3    H159185   2.456   0.141  17.001  1.2178  1.4234  0.5579
12590TIP3    H259186   2.586   0.079  16.954 -0.5090 -0.8780 -1.4663
12591TIP3   OH259187   0.086   3.348  16.030 -0.0185 -0.1350  0.3720
12591TIP3    H159188   0.042   3.284  15.974  2.3254  1.3863 -3.5774
12591TIP3    H259189   0.043   3.431  16.010  1.4949  0.5956  0.0122
12592TIP3   OH259190   0.420   4.746   1.137 -0.0287  0.2999  0.2387
12592TIP3    H159191   0.488   4.691   1.096 -2.0998 -0.5283 -2.3963
12592TIP3    H259192   0.448   4.836   1.119  0.6754 -0.0111 -0.2695
12593TIP3   OH259193   3.982   5.756   2.092  0.0338 -0.0224 -0.3436
12593TIP3    H159194   3.921   5.687   2.067 -0.2043  0.1283 -0.1851
12593TIP3    H259195   3.951   5.786   2.177  0.3250  0.0614 -0.2659
12594TIP3   OH259196   5.340   4.070  13.981 -0.6612 -0.3092 -0.1039
12594TIP3    H159197   5.300   3.984  13.988  0.6566 -1.1389 -1.9317
12594TIP3    H259198   5.325   4.111  14.066 -4.8494 -0.6965 -0.4541
12595TIP3   OH259199   6.004   4.325   2.076 -0.0641 -0.0405  0.0629
12595TIP3    H159200   6.009   4.335   2.171 -0.9574  1.5378 -0.0121
12595TIP3    H259201   6.007   4.231   2.061  1.3085 -0.2712  1.5651
12596TIP3   OH259202   4.071   6.588  13.049 -0.3161  0.4782 -0.0657
12596TIP3    H159203   4.004   6.531  13.012 -0.0991 -0.6779  1.2026
12596TIP3    H259204   4.083   6.657  12.985 -1.8626  0.0494 -0.8559
12597TIP3   OH259205   3.349   1.548  15.498  0.7396 -0.1162 -0.2983
12597TIP3    H159206   3.366   1.594  15.580  0.2400  1.5223 -1.0825
12597TIP3    H259207   3.282   1.483  15.520 -1.0731  1.8189  0.1529
12598TIP3   OH259208   1.061   1.529  16.002 -0.2516  0.0306  0.0371
12598TIP3    H159209   1.120   1.542  15.928  2.7900 -1.6237  1.9796
12598TIP3    H259210   0.989   1.477  15.966  0.1846  0.7811 -2.0944
12599TIP3   OH259211   5.252   3.763  11.640  0.2512  0.3987  0.4030
12599TIP3    H159212   5.166   3.761  11.597  0.6567 -1.0878 -0.4143
12599TIP3    H259213   5.234   3.797  11.728 -0.9843  1.2076 -0.1286
12600TIP3   OH259214   5.114   5.408   2.014  0.4896 -0.2861 -0.0652
12600TIP3    H159215   5.115   5.417   1.919 -2.1147  0.1783 -0.1186
12600TIP3    H259216   5.023   5.385   2.035  1.3826 -2.1756  2.1754
12601TIP3   OH259217   0.423   3.762   6.005 -0.1869 -0.0184  0.4408
12601TIP3    H159218   0.440   3.849   6.040 -1.3958  0.2555  0.4067
12601TIP3    H259219   0.453   3.702   6.073 -0.1573  0.4502  0.8437
12602TIP3   OH259220   2.399   3.242  11.460 -0.1888  0.1327  0.1934
12602TIP3    H159221   2.415   3.224  11.367  1.7115  0.2279  0.4614
12602TIP3    H259222   2.376   3.335  11.463 -0.0133  0.1905 -0.1552
12603TIP3   OH259223   4.048   0.541  12.321  0.1206  0.5565  0.3959
12603TIP3    H159224   4.080   0.631  12.323 -1.5855  1.2142  0.0521
12603TIP3    H259225   3.953   0.549  12.335 -0.5025 -0.9304 -2.3008
12604TIP3   OH259226   5.335   3.646  15.981  0.1948  0.0650 -0.4849
12604TIP3    H159227   5.391   3.644  15.904  0.1778 -0.9324 -0.4905
12604TIP3    H259228   5.288   3.563  15.979  1.2330 -0.6421  1.3615
12605TIP3   OH259229   6.382   5.870   4.042 -0.3398 -0.2573  0.3359
12605TIP3    H159230   6.456   5.809   4.044 -0.5751 -0.7277 -2.0571
12605TIP3    H259231   6.311   5.822   4.084  0.3717 -0.2427  1.6182
12606TIP3   OH259232   2.016   3.226  16.083  0.2455 -0.3533  0.3431
12606TIP3    H159233   2.082   3.247  16.017 -0.0876  0.0556  0.1376
12606TIP3    H259234   2.063   3.173  16.147  0.9993  0.6267  0.6346
12607TIP3   OH259235   1.174   3.119  13.372  0.4977 -0.1149 -0.2265
12607TIP3    H159236   1.117   3.190  13.343  0.7316 -0.0117 -0.4407
12607TIP3    H259237   1.249   3.123  13.313  0.2678 -0.8908 -0.5809
12608TIP3   OH259238   0.162   1.301  13.709 -0.3261 -0.5445  0.1026
12608TIP3    H159239   0.121   1.379  13.671  0.8462  0.0571  0.0278
12608TIP3    H259240   0.256   1.317  13.700 -0.0421 -1.1767  1.7009
12609TIP3   OH259241   3.359   1.069  11.468 -0.0830  0.8670 -1.0822
12609TIP3    H159242   3.377   1.108  11.554 -0.9620  0.3341 -0.6316
12609TIP3    H259243   3.424   1.106  11.410  1.7736 -0.1909  0.2066
12610TIP3   OH259244   5.267   3.281  17.154 -0.4167  0.0180 -0.2691
12610TIP3    H159245   5.259   3.237  17.239  2.5543 -0.1464  0.0235
12610TIP3    H259246   5.346   3.334  17.162  0.6136 -0.8723 -3.3153
12611TIP3   OH259247   5.567   5.876   0.670 -0.3073  0.4979  0.0649
12611TIP3    H159248   5.629   5.949   0.669  1.5257 -0.9838 -1.0294
12611TIP3    H259249   5.513   5.891   0.748  1.9548  1.4310  1.5406
12612TIP3   OH259250   6.406   1.209   0.987  0.0532 -0.1918 -0.4795
12612TIP3    H159251   6.413   1.243   1.076  0.9770  1.5189 -1.1391
12612TIP3    H259252   6.489   1.164   0.971 -0.3463 -1.0091 -0.2947
12613TIP3   OH259253   4.302   0.777   6.164 -0.2959 -0.0731  0.0486
12613TIP3    H159254   4.270   0.866   6.148 -3.3945 -1.0073  0.3208
12613TIP3    H259255   4.303   0.770   6.260 -1.1611 -0.6177  0.0347
12614TIP3   OH259256   3.968   1.673  15.160 -0.3507  0.1073 -0.1385
12614TIP3    H159257   3.877   1.704  15.158 -0.3199  0.2558  0.6760
12614TIP3    H259258   4.008   1.720  15.232 -0.0952 -1.2409  0.6285
12615TIP3   OH259259   3.929   6.248  13.174  0.3063 -0.3219  0.2729
12615TIP3    H159260   4.010   6.251  13.225  1.4099  1.0371 -1.4625
12615TIP3    H259261   3.944   6.308  13.101 -3.0590  1.6806  1.0193
12616TIP3   OH259262   0.620   5.197   2.046 -0.2657  0.3108  0.3538
12616TIP3    H159263   0.649   5.255   1.975  0.7590  0.0845  0.5607
12616TIP3    H259264   0.535   5.164   2.018 -0.2852  0.9284 -0.3495
12617TIP3   OH259265   6.355   3.771  11.709  0.1392 -0.0033 -0.2501
12617TIP3    H159266   6.412   3.755  11.783  1.8564  1.9076 -1.0730
12617TIP3    H259267   6.269   3.789  11.748  0.1214 -2.4011  1.0199
12618TIP3   OH259268   3.056   3.563   1.164  0.5596  0.1894 -0.8262
12618TIP3    H159269   3.080   3.603   1.080  1.0653  0.6732 -0.4612
12618TIP3    H259270   3.073   3.632   1.228 -1.7396  0.5270 -0.5096
12619TIP3   OH259271   2.157   4.446   2.150  0.4874  0.2555 -0.3502
12619TIP3    H159272   2.098   4.450   2.075 -0.6109  0.8870  0.5240
12619TIP3    H259273   2.127   4.515   2.208  0.2866 -1.2464  1.4207
12620TIP3   OH259274   5.811   2.472  12.229 -0.3991  0.3257  0.2208
12620TIP3    H159275   5.828   2.415  12.304  0.5619  0.5929  0.2208
12620TIP3    H259276   5.829   2.560  12.261  1.5793  0.3361 -0.6985
12621TIP3   OH259277   1.662   0.064  16.151 -0.0172  0.0522  0.0670
12621TIP3    H159278   1.676   0.055  16.056  0.0717 -0.1064  0.0943
12621TIP3    H259279   1.646  -0.026  16.180  1.0657 -0.0494  0.3819
12622TIP3   OH259280   5.102   2.659   2.541  0.2473 -0.1654  0.3750
12622TIP3    H159281   5.024   2.619   2.504  2.0889 -1.0546 -3.0159
12622TIP3    H259282   5.129   2.601   2.611 -0.0534 -2.0652 -1.0090
12623TIP3   OH259283   0.443   6.720   4.403 -0.2018  0.2023  0.1812
12623TIP3    H159284   0.455   6.650   4.468  0.1970 -0.8033 -0.9335
12623TIP3    H259285   0.531   6.753   4.386  0.0948 -1.3739 -1.7580
12624TIP3   OH259286   1.227   5.801   0.857  0.1690 -0.1635 -0.1148
12624TIP3    H159287   1.283   5.725   0.842 -2.4163 -1.7693 -2.6965
12624TIP3    H259288   1.230   5.850   0.775 -1.3315  0.2628  0.0440
12625TIP3   OH259289   0.672   2.781  13.620  0.8318 -0.4532  0.0852
12625TIP3    H159290   0.627   2.858  13.655  0.0529 -0.8468 -0.0278
12625TIP3    H259291   0.638   2.708  13.671  0.6715 -0.8737 -0.6122
12626TIP3   OH259292   2.775   3.056  16.415  0.3944 -0.1087 -0.3057
12626TIP3    H159293   2.774   3.048  16.319  1.8668 -1.4479 -0.2459
12626TIP3    H259294   2.831   2.984  16.445 -0.0483  0.2766  1.5774
12627TIP3   OH259295   4.066   5.123   2.440  0.4584  0.8040 -0.3533
12627TIP3    H159296   3.986   5.175   2.432  0.6230  1.1671  0.3060
12627TIP3    H259297   4.111   5.161   2.515 -0.4713 -1.7028  1.5890
12628TIP3   OH259298   2.893   2.536  15.567  0.1668  0.7881 -0.4131
12628TIP3    H159299   2.862   2.481  15.495  0.9878  0.4392 -0.5103
12628TIP3    H259300   2.931   2.474  15.629 -0.2161  1.1209  0.1564
12629TIP3   OH259301   5.223   1.588  11.175 -0.3194 -0.2010 -0.3443
12629TIP3    H159302   5.252   1.641  11.101 -1.5378  0.1931 -0.5692
12629TIP3    H259303   5.135   1.620  11.194 -1.4527 -2.6998 -1.0063
12630TIP3   OH259304   1.197   3.171   6.014 -0.5223 -0.3451 -0.8953
12630TIP3    H159305   1.287   3.137   6.013 -0.2187  0.4171 -0.5390
12630TIP3    H259306   1.167   3.154   6.104  0.4241  2.2586 -0.0035
12631TIP3   OH259307   3.577   2.628  11.629 -0.3844  0.4943 -0.3704
12631TIP3    H159308   3.645   2.586  11.682 -0.7879 -0.8288 -0.8588
12631TIP3    H259309   3.626   2.691  11.575  0.2342  0.6928  0.3912
12632TIP3   OH259310   2.605   1.752   5.131 -0.3988  0.1158 -0.3375
12632TIP3    H159311   2.683   1.715   5.171  0.5508  0.6757 -1.6141
12632TIP3    H259312   2.617   1.847   5.134 -0.1146  0.1860 -2.1942
12633TIP3   OH259313   1.038   3.993  15.993 -0.1439  0.4608 -0.3675
12633TIP3    H159314   0.986   3.925  16.037  0.2510  0.1454 -0.3875
12633TIP3    H259315   0.976   4.036  15.934 -0.6179  0.7133  0.2942
12634TIP3   OH259316   1.323   5.575  12.210 -0.5552  0.2942 -0.1303
12634TIP3    H159317   1.287   5.597  12.124 -1.5182  1.1896  0.4713
12634TIP3    H259318   1.279   5.493  12.235 -0.7183  0.3501 -0.2366
12635TIP3   OH259319   6.582   1.073   4.556  0.6590 -0.4250  0.0963
12635TIP3    H159320   6.610   0.982   4.550  0.1538 -0.6738  1.1685
12635TIP3    H259321   6.625   1.107   4.634  0.5581  0.1544 -0.0912
12636TIP3   OH259322   4.513   2.935  14.148 -0.3215  0.4134 -0.1102
12636TIP3    H159323   4.591   2.954  14.095 -0.2918 -1.4654 -0.8239
12636TIP3    H259324   4.481   3.021  14.175  2.6067  1.2620  1.1606
12637TIP3   OH259325   1.849   1.817  10.824 -0.2214  0.0996 -0.9439
12637TIP3    H159326   1.817   1.862  10.902 -0.7216 -0.4408 -0.8301
12637TIP3    H259327   1.832   1.724  10.841 -0.4181 -0.0184 -1.7328
12638TIP3   OH259328   2.815   0.264   2.471  0.1595  0.3555 -0.2218
12638TIP3    H159329   2.831   0.278   2.565 -0.2574  0.5478 -0.1772
12638TIP3    H259330   2.903   0.260   2.432  0.4039 -1.4659  0.4099
12639TIP3   OH259331   4.972   5.013  15.053 -0.1665 -0.4019  0.2449
12639TIP3    H159332   4.918   4.955  15.000 -1.3701 -0.7366  1.7566
12639TIP3    H259333   4.993   4.962  15.131  1.3546  0.1509  0.2312
12640TIP3   OH259334   4.112   3.893  14.017  0.5212 -0.3693  0.1737
12640TIP3    H159335   4.194   3.941  14.025  0.1387  0.0620  1.6969
12640TIP3    H259336   4.133   3.805  14.050  0.6680 -0.6328 -0.5948
12641TIP3   OH259337   0.255   5.155  10.707 -0.1407 -0.7323 -0.6536
12641TIP3    H159338   0.237   5.171  10.614 -2.0851  0.8735 -0.0645
12641TIP3    H259339   0.350   5.165  10.715 -0.1946  1.4787 -2.0827
12642TIP3   OH259340   5.938   4.494  15.520  0.6057 -0.5088  0.7073
12642TIP3    H159341   5.844   4.481  15.537  0.0074  2.6703  0.3629
12642TIP3    H259342   5.946   4.487  15.424  0.9928 -2.0195  0.8278
12643TIP3   OH259343   3.358   3.936  11.449  0.0737 -0.1916 -0.4293
12643TIP3    H159344   3.306   3.949  11.370  1.1139 -0.4922 -1.1923
12643TIP3    H259345   3.294   3.915  11.517 -1.1037  2.5397 -0.5738
12644TIP3   OH259346   1.456   1.586   4.438  0.3983  0.1686 -0.1882
12644TIP3    H159347   1.537   1.622   4.473  0.4705 -0.5803  0.4464
12644TIP3    H259348   1.396   1.583   4.513  0.6286 -1.6576 -0.0343
12645TIP3   OH259349   0.055   1.839   1.713 -0.3255 -0.1504  0.6583
12645TIP3    H159350   0.070   1.930   1.690  0.1131  0.0455  1.6936
12645TIP3    H259351   0.061   1.792   1.629 -2.2226  0.9374 -0.1522
12646TIP3   OH259352   5.748   4.663   5.301  0.2694  0.3887 -0.1601
12646TIP3    H159353   5.827   4.682   5.250 -0.1442  0.4543 -0.7887
12646TIP3    H259354   5.717   4.750   5.330 -0.3580  0.4961 -1.1184
12647TIP3   OH259355   5.635   4.648  11.945 -0.3421  0.0044 -0.1349
12647TIP3    H159356   5.676   4.562  11.941 -2.2606 -1.0369  1.3453
12647TIP3    H259357   5.590   4.657  11.861  1.4214  0.4742 -1.1026
12648TIP3   OH259358   0.343   6.001   1.102 -0.0623 -0.2579 -0.6303
12648TIP3    H159359   0.349   6.033   1.012 -0.0469 -0.8134 -0.8298
12648TIP3    H259360   0.398   5.923   1.104 -1.8396 -1.5587 -0.7358
12649TIP3   OH259361   5.819   6.450  14.152  0.2931 -0.0439 -0.7731
12649TIP3    H159362   5.886   6.382  14.146 -1.0106 -1.4447 -0.2257
12649TIP3    H259363   5.754   6.425  14.086  0.2209  1.2051 -1.1952
12650TIP3   OH259364   6.477   6.084   4.234  0.3293  0.3556  0.0101
12650TIP3    H159365   6.508   6.154   4.177  0.7224  1.0579  1.0605
12650TIP3    H259366   6.432   6.024   4.175  2.6404 -0.1226 -1.3965
12651TIP3   OH259367   5.173   5.304  13.723  0.3240  0.4144  0.9405
12651TIP3    H159368   5.092   5.343  13.693  0.7794  1.2417  0.7710
12651TIP3    H259369   5.147   5.248  13.797 -0.7442 -1.3127 -0.6463
12652TIP3   OH259370   3.245   5.851  12.929 -0.3966  0.0179  0.5963
12652TIP3    H159371   3.304   5.797  12.983 -0.7447 -0.1053  0.8635
12652TIP3    H259372   3.180   5.788  12.897 -0.3760  0.1514  0.2950
12653TIP3   OH259373   2.185   5.240   1.922  0.2063  0.3586 -0.6637
12653TIP3    H159374   2.136   5.257   2.003  0.7308  0.2189 -0.3081
12653TIP3    H259375   2.171   5.318   1.869 -2.1821 -0.5788 -1.5020
12654TIP3   OH259376   1.227   3.593  14.900 -0.3072 -0.3155  0.2234
12654TIP3    H159377   1.186   3.506  14.899 -0.0440 -0.4943 -2.1391
12654TIP3    H259378   1.318   3.577  14.924 -0.6901 -0.4136  1.6845
12655TIP3   OH259379   5.220   4.466   4.051  0.0423  0.0083  0.4989
12655TIP3    H159380   5.245   4.378   4.023  3.5729  0.7471  0.8353
12655TIP3    H259381   5.244   4.522   3.978  1.4878  1.0380  1.7009
12656TIP3   OH259382   3.680   4.939  17.165 -0.3581  0.5228 -0.3812
12656TIP3    H159383   3.595   4.926  17.123  0.1477 -0.1469 -1.2324
12656TIP3    H259384   3.710   5.024  17.133  0.1305 -0.0829 -1.6217
12657TIP3   OH259385   3.957   2.703   1.252  0.2156 -0.7580  0.4121
12657TIP3    H159386   4.003   2.772   1.299 -1.1874  0.2882  0.3065
12657TIP3    H259387   3.893   2.749   1.197 -1.5771 -2.1575  1.2138
12658TIP3   OH259388   3.102   1.108   3.307 -0.4822  0.0103  0.0446
12658TIP3    H159389   3.162   1.180   3.286  1.3657 -1.3054  0.5043
12658TIP3    H259390   3.113   1.046   3.235 -1.4076 -0.2162  0.0858
12659TIP3   OH259391   0.832   1.412   2.753 -0.4781  0.5041  0.2221
12659TIP3    H159392   0.828   1.497   2.797  1.0719  0.4897  0.4358
12659TIP3    H259393   0.749   1.369   2.776 -0.9081  1.6154  0.8063
12660TIP3   OH259394   0.151   2.743   0.851  0.0867 -0.0611  0.4750
12660TIP3    H159395   0.060   2.766   0.869 -0.1693 -1.3587  0.9441
12660TIP3    H259396   0.164   2.763   0.758 -1.2291 -1.5443 -0.0624
12661TIP3   OH259397   3.974   1.390  14.719  0.7720  0.0301  0.2512
12661TIP3    H159398   3.985   1.455  14.649  0.2414  1.4436  1.4121
12661TIP3    H259399   3.895   1.342  14.695 -0.2349  1.4605  0.5431
12662TIP3   OH259400   2.575   0.016   1.247 -0.3391 -0.4292 -0.1659
12662TIP3    H159401   2.577  -0.080   1.249 -0.6651 -0.5312 -2.2661
12662TIP3    H259402   2.485   0.037   1.221 -0.0513  0.4116 -0.5025
12663TIP3   OH259403   6.072   2.946  11.176  0.5566  0.0846  0.0049
12663TIP3    H159404   6.015   3.020  11.156  1.8053  1.2532  0.6050
12663TIP3    H259405   6.110   2.921  11.091 -0.1264 -0.1024 -0.2502
12664TIP3   OH259406   3.901   5.582  12.755  0.1341 -0.3707  0.5892
12664TIP3    H159407   3.907   5.537  12.671  2.2580  0.8044  0.0420
12664TIP3    H259408   3.980   5.557  12.802 -0.1427  0.4022  1.5109
12665TIP3   OH259409   0.997   2.603   5.353 -0.0877 -0.2791 -0.3824
12665TIP3    H159410   0.965   2.635   5.269 -1.6011  0.3316  0.3871
12665TIP3    H259411   1.031   2.515   5.334 -1.4986 -0.6277 -1.4248
12666TIP3   OH259412   1.616   6.489  11.409  0.2087  0.3843  0.4126
12666TIP3    H159413   1.542   6.429  11.416  0.8727 -0.4900  0.2203
12666TIP3    H259414   1.592   6.549  11.338  0.3070 -0.8434 -0.6990
12667TIP3   OH259415   1.139   3.637   5.434 -0.0438 -0.4276 -0.4099
12667TIP3    H159416   1.179   3.563   5.480 -1.9869 -0.4956  1.3536
12667TIP3    H259417   1.198   3.655   5.361  1.9997 -1.8503  0.7769
12668TIP3   OH259418   0.843   3.146   2.332  0.4504  0.1328  0.4550
12668TIP3    H159419   0.848   3.050   2.335  0.1672  0.1264  0.7171
12668TIP3    H259420   0.859   3.168   2.240 -1.8550 -0.3117 -0.1192
12669TIP3   OH259421   2.737   3.341  12.851  0.0638  0.4941 -0.6667
12669TIP3    H159422   2.762   3.249  12.841 -1.1996  0.1134 -0.5136
12669TIP3    H259423   2.790   3.372  12.924 -0.8179 -0.6616  0.5195
12670TIP3   OH259424   1.246   0.787  12.921  0.0463  0.0829 -0.3115
12670TIP3    H159425   1.273   0.710  12.871  2.2461 -0.1645  1.0936
12670TIP3    H259426   1.301   0.858  12.887  0.6501  0.1849  0.8264
12671TIP3   OH259427   1.538   4.718   4.005  0.5491  0.5566 -0.1720
12671TIP3    H159428   1.467   4.723   4.069  0.2523 -0.9708 -0.3569
12671TIP3    H259429   1.494   4.713   3.921  0.9002  0.2429 -0.3351
12672TIP3   OH259430   1.414   3.549   0.216 -0.2963  0.8915 -0.1466
12672TIP3    H159431   1.466   3.475   0.248  1.7894  2.7651  1.1095
12672TIP3    H259432   1.476   3.621   0.211 -2.2946  2.6445 -1.0930
12673TIP3   OH259433   3.011   4.813   0.042 -0.1083  0.6873 -0.1004
12673TIP3    H159434   2.994   4.852  -0.043 -1.6750 -2.7424 -1.5697
12673TIP3    H259435   2.926   4.776   0.068  1.4467 -3.2534  0.1069
12674TIP3   OH259436   5.561   4.152   4.481 -0.3494  0.4696  0.2996
12674TIP3    H159437   5.534   4.233   4.524 -1.4214 -0.3158  1.1750
12674TIP3    H259438   5.643   4.129   4.522 -0.7287  0.4045  1.0315
12675TIP3   OH259439   3.770   5.766   6.760 -0.4466  0.2309  0.8405
12675TIP3    H159440   3.743   5.675   6.772 -2.7511 -0.5146 -5.9792
12675TIP3    H259441   3.690   5.813   6.736  1.3427  2.9489 -0.3467
12676TIP3   OH259442   3.405   3.620   0.825  0.1812 -0.0878 -0.3737
12676TIP3    H159443   3.405   3.595   0.733  1.0989  0.4689 -0.5413
12676TIP3    H259444   3.393   3.715   0.825  0.5119 -0.0391  0.0580
12677TIP3   OH259445   3.625   1.770   0.533 -0.0182 -0.0067 -0.0124
12677TIP3    H159446   3.708   1.807   0.502 -0.1114 -0.6965 -1.1337
12677TIP3    H259447   3.559   1.833   0.505  0.0918  0.3463  0.5269
12678TIP3   OH259448   2.099   2.143   3.445  0.5819 -0.3560  0.3433
12678TIP3    H159449   2.102   2.074   3.379  1.1594 -2.5957  2.5252
12678TIP3    H259450   2.046   2.212   3.406  2.7784 -0.4649 -3.3209
12679TIP3   OH259451   4.284   3.912   2.422  0.5820  0.5028 -0.4884
12679TIP3    H159452   4.243   3.827   2.440  0.5837  0.5916 -0.0561
12679TIP3    H259453   4.220   3.958   2.368  2.3123 -1.4019 -4.6670
12680TIP3   OH259454   0.823   6.067  11.073  0.4060  0.2679 -0.0509
12680TIP3    H159455   0.885   6.131  11.109  2.1879 -2.4222  2.0919
12680TIP3    H259456   0.878   5.995  11.043 -1.4907 -0.1824 -2.7804
12681TIP3   OH259457   1.692   4.454   6.245 -0.1763  0.1149 -0.1900
12681TIP3    H159458   1.748   4.387   6.283 -1.2987 -2.2119 -2.3018
12681TIP3    H259459   1.605   4.437   6.281 -0.1200  1.8549  0.8748
12682TIP3   OH259460   3.904   4.610   0.300  0.2847  0.2112  0.2770
12682TIP3    H159461   3.875   4.677   0.239  0.2746  0.5455  0.6406
12682TIP3    H259462   3.840   4.539   0.290  1.3701 -0.5590 -1.4619
12683TIP3   OH259463   5.187   5.568  15.503 -0.2010 -0.6314  0.0705
12683TIP3    H159464   5.149   5.531  15.423  0.0823  0.6352 -0.6706
12683TIP3    H259465   5.111   5.595  15.554 -0.3957 -1.7370  0.4026
12684TIP3   OH259466   6.120   1.521  15.873 -0.0942  0.3546 -0.8350
12684TIP3    H159467   6.153   1.549  15.958  0.4821 -0.0410 -0.9219
12684TIP3    H259468   6.112   1.601  15.822  2.7030  0.3088 -1.5049
12685TIP3   OH259469   4.468   5.971  12.013  0.0502  0.2006 -0.2604
12685TIP3    H159470   4.543   5.982  11.954  0.3464  0.9295  0.2434
12685TIP3    H259471   4.407   6.040  11.986  0.1101  0.4203  0.1541
12686TIP3   OH259472   0.804   4.061   2.408  0.2221  0.0342  0.7294
12686TIP3    H159473   0.723   4.111   2.414 -0.2004 -0.4641 -0.5568
12686TIP3    H259474   0.783   3.987   2.351  2.0025  0.8018 -1.0514
12687TIP3   OH259475   2.791   5.240  11.302 -0.4397  0.5584  0.7624
12687TIP3    H159476   2.845   5.208  11.229 -1.3707 -0.2879  0.4121
12687TIP3    H259477   2.854   5.270  11.367  0.5057 -1.2851  0.7745
12688TIP3   OH259478   5.776   1.688   3.249  0.3446 -0.2054 -0.0206
12688TIP3    H159479   5.796   1.732   3.167  1.3010  1.4652  1.0277
12688TIP3    H259480   5.683   1.669   3.245 -0.1588  2.0633 -0.5486
12689TIP3   OH259481   4.094   0.890  15.995  0.0387 -0.5909 -0.0501
12689TIP3    H159482   4.101   0.847  15.909  0.7700 -1.6049  0.4901
12689TIP3    H259483   4.020   0.846  16.037  0.2048 -0.6776  0.1514
12690TIP3   OH259484   1.403   3.776  15.335 -0.0124 -0.2951  0.3426
12690TIP3    H159485   1.317   3.760  15.297 -0.4035  1.6995  0.2529
12690TIP3    H259486   1.386   3.817  15.420  0.7970  0.9680 -0.0638
12691TIP3   OH259487   3.534   2.640  12.124 -0.2523 -0.1396  0.1374
12691TIP3    H159488   3.490   2.589  12.056  0.5677  0.7278 -1.0921
12691TIP3    H259489   3.568   2.717  12.078  0.0610  0.6291  1.5989
12692TIP3   OH259490   0.735   5.923  14.062  0.0127  0.3881 -0.1832
12692TIP3    H159491   0.789   5.976  14.003  3.0404 -1.4346  0.7238
12692TIP3    H259492   0.721   5.980  14.138  0.1335  1.0951 -0.6752
12693TIP3   OH259493   3.636   3.299  15.096  0.1363 -0.2663 -0.6801
12693TIP3    H159494   3.614   3.381  15.053  1.7634 -0.2869 -1.6474
12693TIP3    H259495   3.714   3.268  15.050  1.7574 -0.4989  1.9721
12694TIP3   OH259496   6.440   3.360   5.617 -0.2065  0.9314  0.0823
12694TIP3    H159497   6.373   3.344   5.551 -0.0002  0.1723  0.0517
12694TIP3    H259498   6.407   3.318   5.696  1.6152 -2.3782 -0.6977
12695TIP3   OH259499   3.896   5.129   2.737  0.5177 -0.0216  0.3712
12695TIP3    H159500   3.946   5.050   2.756  1.2648  0.5582  0.8974
12695TIP3    H259501   3.844   5.108   2.659  2.4764 -0.2608 -0.9226
12696TIP3   OH259502   5.825   5.690  13.020  0.0961  0.0880  0.0316
12696TIP3    H159503   5.825   5.764  13.080 -0.3353 -0.9025  1.3124
12696TIP3    H259504   5.732   5.670  13.005  0.1300  1.3615 -2.3750
12697TIP3   OH259505   3.736   5.721  13.158 -0.6855 -0.1475 -0.1376
12697TIP3    H159506   3.776   5.796  13.114 -0.5185 -0.1022  0.0915
12697TIP3    H259507   3.809   5.666  13.184 -0.8053 -0.3571 -0.2460
12698TIP3   OH259508   6.443   6.022  14.031 -0.0472 -0.0156 -0.1545
12698TIP3    H159509   6.458   6.098  14.087  0.7857 -0.8430  0.7978
12698TIP3    H259510   6.368   5.978  14.070 -0.5347  0.3112 -0.7092
12699TIP3   OH259511   4.843   5.843  15.616  0.5205 -0.2968 -0.1983
12699TIP3    H159512   4.749   5.829  15.627  0.0968  1.9074 -0.5248
12699TIP3    H259513   4.851   5.934  15.587  2.7221 -0.6130 -0.8320
12700TIP3   OH259514   5.004   1.743  15.314  0.1017  1.2959 -0.3714
12700TIP3    H159515   5.066   1.773  15.380  1.7085 -0.5588 -0.9299
12700TIP3    H259516   5.054   1.742  15.233 -0.9110  0.5516 -1.0095
12701TIP3   OH259517   1.846   0.491  13.388  0.5132 -0.0951  0.2456
12701TIP3    H159518   1.800   0.574  13.403  1.6236  0.5705  0.0790
12701TIP3    H259519   1.938   0.511  13.406  0.6663 -1.5758  1.2674
12702TIP3   OH259520   1.673   6.518  11.729  0.2703  0.6329 -0.6654
12702TIP3    H159521   1.596   6.557  11.687 -0.6425  0.0478  0.3959
12702TIP3    H259522   1.646   6.429  11.751  1.2189  0.4508 -0.1797
12703TIP3   OH259523   2.690   3.636  13.549 -0.4045 -0.3683  0.0673
12703TIP3    H159524   2.644   3.700  13.495 -1.4625 -1.0633  0.0965
12703TIP3    H259525   2.736   3.687  13.614 -1.0891  0.3729 -0.0183
12704TIP3   OH259526   4.958   1.004  11.138  0.6819  0.0212 -0.3187
12704TIP3    H159527   4.960   0.917  11.179  1.5473  0.3161  0.2921
12704TIP3    H259528   4.970   1.065  11.210  1.9433  0.5617 -0.9531
12705TIP3   OH259529   5.910   2.812  10.963  0.7136 -0.1618 -0.4544
12705TIP3    H159530   5.926   2.895  10.919  1.2496  0.2572  0.5190
12705TIP3    H259531   5.955   2.747  10.909 -0.7783 -0.0419 -1.9501
12706TIP3   OH259532   1.476   4.864   3.011  0.6541 -0.1053  0.2086
12706TIP3    H159533   1.481   4.917   2.932  0.1954  0.6153  0.6487
12706TIP3    H259534   1.567   4.839   3.028  1.1301  1.8696  0.8529
12707TIP3   OH259535   1.219   0.427   5.875 -0.0861 -0.2413  0.3537
12707TIP3    H159536   1.283   0.360   5.851 -0.8764 -0.1950 -2.2035
12707TIP3    H259537   1.139   0.402   5.829 -0.9953  1.3842  0.9508
12708TIP3   OH259538   0.109   4.578   0.715 -0.0386  0.1854 -0.3712
12708TIP3    H159539   0.081   4.487   0.703  0.4358  0.0361 -0.3929
12708TIP3    H259540   0.096   4.595   0.808 -1.7201  0.6500 -0.6666
12709TIP3   OH259541   4.502   0.680   2.377 -0.5284 -0.4458 -0.1564
12709TIP3    H159542   4.580   0.624   2.383 -0.8966 -0.9885 -0.4056
12709TIP3    H259543   4.446   0.651   2.449 -1.2531 -1.2429 -1.0121
12710TIP3   OH259544   2.067   5.443  15.914  0.5170 -0.4069 -0.1365
12710TIP3    H159545   2.028   5.357  15.900 -0.0395 -0.2367  0.3526
12710TIP3    H259546   1.993   5.502  15.921  0.8555 -0.0586  0.6626
12711TIP3   OH259547   6.188   4.109  12.231 -0.1372 -0.1402  0.4969
12711TIP3    H159548   6.169   4.032  12.284  0.7175 -0.6627  0.0741
12711TIP3    H259549   6.137   4.097  12.151 -0.6703  0.1695  0.7820
12712TIP3   OH259550   4.106   5.749  12.995  1.0737  0.0359  0.9324
12712TIP3    H159551   4.130   5.768  12.904  0.4182  1.0411  0.9526
12712TIP3    H259552   4.108   5.654  13.001  0.1224 -0.0993 -0.4124
12713TIP3   OH259553   1.051   3.382   3.908  0.8594 -0.1987  0.0289
12713TIP3    H159554   1.006   3.407   3.988  2.0982  0.5566  0.5202
12713TIP3    H259555   1.137   3.425   3.914  1.4713 -1.1984 -1.0820
12714TIP3   OH259556   5.426   5.591   2.113 -0.0392 -0.3175  0.9847
12714TIP3    H159557   5.371   5.560   2.041 -0.0750  0.5590  0.6290
12714TIP3    H259558   5.438   5.514   2.168 -0.7102 -0.7907  0.4870
12715TIP3   OH259559   4.646   2.618  17.036  0.5110 -0.2143 -0.4291
12715TIP3    H159560   4.614   2.565  17.109 -0.3851  1.1674  0.2037
12715TIP3    H259561   4.705   2.682  17.075  1.0731 -0.3037 -1.1025
12716TIP3   OH259562   4.892   4.094  15.542  0.2211 -0.6418 -0.0982
12716TIP3    H159563   4.919   4.173  15.589 -0.3201 -1.7770  2.2688
12716TIP3    H259564   4.797   4.104  15.531  0.3445 -0.3870 -0.9700
12717TIP3   OH259565   0.297   1.097  16.085 -0.2937  0.2174 -0.0319
12717TIP3    H159566   0.304   1.006  16.114 -1.2584  0.1520  0.0433
12717TIP3    H259567   0.385   1.119  16.054 -0.3910 -1.2505 -1.5701
12718TIP3   OH259568   2.584   6.361  14.932 -0.5898 -0.2863  0.1355
12718TIP3    H159569   2.560   6.432  14.992 -1.5743 -0.2859 -0.2388
12718TIP3    H259570   2.679   6.368  14.924 -0.6393  0.8603  0.2698
12719TIP3   OH259571   4.527   5.914  16.765  0.0464 -0.2169  0.0662
12719TIP3    H159572   4.467   5.979  16.802  0.9118 -0.5424  2.1544
12719TIP3    H259573   4.611   5.960  16.761  0.2519 -0.6205 -0.2825
12720TIP3   OH259574   3.551   3.696   3.478 -0.3878 -0.2800 -0.5773
12720TIP3    H159575   3.517   3.665   3.562 -1.1553  2.6180  0.2799
12720TIP3    H259576   3.473   3.715   3.426  0.0434  0.1889 -1.0658
12721TIP3   OH259577   0.426   3.163   3.197  0.1060 -0.2754 -0.3400
12721TIP3    H159578   0.365   3.236   3.184  2.0409  1.5354  0.1998
12721TIP3    H259579   0.409   3.104   3.123 -1.5540  0.6471 -0.7543
12722TIP3   OH259580   0.485   5.424  12.977 -0.0547  0.0225 -0.2009
12722TIP3    H159581   0.528   5.384  13.052 -0.6508  0.6708  0.5012
12722TIP3    H259582   0.444   5.503  13.012  0.2661  0.7263 -1.3540
12723TIP3   OH259583   0.056   2.373   0.844 -0.6561 -0.0175  0.2898
12723TIP3    H159584  -0.007   2.416   0.786 -1.3647 -1.3229  0.0613
12723TIP3    H259585   0.053   2.424   0.925 -1.8798  0.0480  0.2221
12724TIP3   OH259586   6.497   2.037  16.979 -0.0457  0.0831 -0.0268
12724TIP3    H159587   6.407   2.057  16.955 -0.1903  0.2161  0.6286
12724TIP3    H259588   6.528   1.979  16.909 -1.0496 -1.0492  0.4343
12725TIP3   OH259589   0.701   1.587  14.981 -0.6860 -0.0637 -0.2468
12725TIP3    H159590   0.795   1.571  14.977 -0.7795 -1.0437  0.9822
12725TIP3    H259591   0.692   1.679  14.955  0.9215  0.9094  2.2445
12726TIP3   OH259592   5.118   2.032   0.442  0.0013  0.3249 -0.2517
12726TIP3    H159593   5.157   2.119   0.450 -1.3993  0.9152  0.4006
12726TIP3    H259594   5.101   2.022   0.349  3.9696 -1.0140 -1.0145
12727TIP3   OH259595   6.019   3.928   0.964 -0.0275 -0.3049 -0.8845
12727TIP3    H159596   6.103   3.914   1.007 -0.4874 -1.1908 -0.2447
12727TIP3    H259597   6.007   3.851   0.909  0.1822  0.4413 -2.0134
12728TIP3   OH259598   6.610   1.850   3.438 -0.3317 -0.3281  0.6623
12728TIP3    H159599   6.532   1.905   3.451 -0.7274 -0.1784 -1.7518
12728TIP3    H259600   6.682   1.913   3.427 -0.4606 -0.3219 -0.2529
12729TIP3   OH259601   2.184   6.602  17.082  0.1497  0.1380 -0.0650
12729TIP3    H159602   2.185   6.664  17.155  1.3976 -0.3930  0.4040
12729TIP3    H259603   2.240   6.643  17.016  0.4804 -0.2052  0.0022
12730TIP3   OH259604   3.226   2.130  16.217  0.6595  0.6478 -0.6142
12730TIP3    H159605   3.230   2.099  16.127 -0.9157  0.7907 -0.7521
12730TIP3    H259606   3.308   2.099  16.256  0.2634 -1.6059 -1.3964
12731TIP3   OH259607   6.127   1.845   0.424 -0.0292  0.6385  0.1179
12731TIP3    H159608   6.157   1.861   0.513 -0.9753  0.7424  0.4277
12731TIP3    H259609   6.207   1.838   0.372  0.5165  0.9151  0.9155
12732TIP3   OH259610   5.071   5.420   0.140  0.0633 -0.1689  0.1024
12732TIP3    H159611   5.067   5.464   0.055 -0.6059 -0.7012 -0.1548
12732TIP3    H259612   5.041   5.331   0.122  2.0596 -0.9570  0.4883
12733TIP3   OH259613   1.051   1.451   6.390 -0.1986 -0.0652 -0.3378
12733TIP3    H159614   1.019   1.374   6.342 -0.3002 -0.5545  0.5053
12733TIP3    H259615   0.978   1.513   6.385  0.4095  0.5497 -2.2436
12734TIP3   OH259616   3.421   5.812  12.616 -0.4054 -0.1790 -0.3090
12734TIP3    H159617   3.490   5.756  12.654 -0.7651 -2.3221 -2.5936
12734TIP3    H259618   3.466   5.863  12.550 -0.3561  1.2924  0.8127
12735TIP3   OH259619   3.393   2.079  13.190 -0.0005 -0.3321 -0.3002
12735TIP3    H159620   3.330   2.149  13.170 -2.3072 -1.8715  1.0691
12735TIP3    H259621   3.466   2.123  13.232 -0.9625  1.3557 -0.3094
12736TIP3   OH259622   1.203   6.473  14.607  0.2102  0.5021 -0.0912
12736TIP3    H159623   1.180   6.553  14.654  0.7947  1.7399 -1.8141
12736TIP3    H259624   1.238   6.415  14.675 -0.0466  1.7639  1.1749
12737TIP3   OH259625   2.313   2.147  11.700 -0.0371  0.5177  0.5938
12737TIP3    H159626   2.269   2.105  11.774  1.3200  0.0589  1.1646
12737TIP3    H259627   2.374   2.080  11.667  2.1161  1.9443  1.4721
12738TIP3   OH259628   2.328   2.370   2.691 -0.0711 -0.4835  0.0534
12738TIP3    H159629   2.372   2.304   2.744  1.3459  1.6493  1.6709
12738TIP3    H259630   2.368   2.453   2.717 -3.2539  1.3114 -0.3023
12739TIP3   OH259631   2.748   1.765   3.312  0.5534 -0.3066  0.0697
12739TIP3    H159632   2.727   1.675   3.339 -0.1974  0.2805  1.5642
12739TIP3    H259633   2.664   1.803   3.289  0.7882  0.1864  0.0224
12740TIP3   OH259634   4.899   4.880  13.649  0.5356  0.3526  0.1993
12740TIP3    H159635   4.980   4.926  13.673  1.1591 -0.5426 -0.1204
12740TIP3    H259636   4.879   4.826  13.726  1.6395 -1.2942 -0.6164
12741TIP3   OH259637   1.097   0.720  16.366 -0.0991  0.3923  0.1821
12741TIP3    H159638   1.187   0.689  16.362  0.4267  1.7141  1.1388
12741TIP3    H259639   1.080   0.731  16.459 -1.5009 -0.4967  0.0598
12742TIP3   OH259640   0.821   6.550   3.078  0.0524  0.3583 -0.3900
12742TIP3    H159641   0.859   6.463   3.087 -1.7658 -0.3619  0.8854
12742TIP3    H259642   0.880   6.607   3.127  0.0819 -0.5524  0.6694
12743TIP3   OH259643   5.073   2.080  17.103  0.0674  0.2572  0.4148
12743TIP3    H159644   5.133   2.154  17.104  0.2975  0.2459  4.4089
12743TIP3    H259645   5.118   2.013  17.051  0.2214  2.4664 -2.5653
12744TIP3   OH259646   1.909   5.674   4.907  0.1749 -0.0798 -0.3152
12744TIP3    H159647   1.853   5.750   4.924 -2.7275 -2.0281 -0.2198
12744TIP3    H259648   1.873   5.635   4.827  2.0866 -0.9422 -0.8097
12745TIP3   OH259649   0.012   5.948   3.048 -0.4860 -0.1542  0.4476
12745TIP3    H159650   0.005   6.025   3.104 -0.6595  0.2703 -0.1554
12745TIP3    H259651  -0.061   5.954   2.987 -2.1301 -2.1998  2.0626
12746TIP3   OH259652   2.745   1.679   3.837 -0.4705 -0.2355 -0.1509
12746TIP3    H159653   2.659   1.672   3.795  0.3005 -2.7922 -1.4835
12746TIP3    H259654   2.804   1.708   3.768  0.0159 -0.0054  0.3493
12747TIP3   OH259655   0.939   3.456  12.828  0.2578 -0.5227 -0.3003
12747TIP3    H159656   0.948   3.547  12.798 -1.3552 -0.1330  0.2621
12747TIP3    H259657   1.024   3.434  12.865  0.9207  0.4815 -1.1630
12748TIP3   OH259658   6.125   2.904  12.643 -0.1241  0.2677  0.7941
12748TIP3    H159659   6.210   2.915  12.687  0.6667  1.4963 -0.9142
12748TIP3    H259660   6.103   2.812  12.656  0.8050  0.2414  2.4174
12749TIP3   OH259661   5.813   3.851  10.873  0.5036  0.5252 -0.5971
12749TIP3    H159662   5.862   3.862  10.791  1.1290  0.8147 -0.1902
12749TIP3    H259663   5.750   3.924  10.873  1.3612  1.2767 -0.2239
12750TIP3   OH259664   6.154   0.844  12.153 -0.2101 -0.1872  0.0843
12750TIP3    H159665   6.197   0.761  12.133  2.3485  1.1599 -0.4794
12750TIP3    H259666   6.156   0.892  12.070  0.4574  1.2846  0.9251
12751TIP3   OH259667   6.263   0.465  14.674 -0.7142 -0.4144 -0.3853
12751TIP3    H159668   6.189   0.408  14.694  0.1793 -1.2976  0.5860
12751TIP3    H259669   6.340   0.407  14.681  0.1025  0.5954 -0.7953
12752TIP3   OH259670   0.996   0.526   4.586  0.0659  0.0416  0.5434
12752TIP3    H159671   1.087   0.541   4.612  0.1888 -0.5306  0.4680
12752TIP3    H259672   0.979   0.435   4.612 -0.3843  0.0434  0.2652
12753TIP3   OH259673   0.598   4.054   1.842 -0.0080 -0.2817  0.3278
12753TIP3    H159674   0.573   3.973   1.796  2.8441 -0.0499 -1.9223
12753TIP3    H259675   0.538   4.120   1.807  1.1416 -0.4242 -2.1455
12754TIP3   OH259676   3.361   4.832  13.464 -0.5167 -0.9172 -0.4334
12754TIP3    H159677   3.302   4.822  13.389 -0.2855  2.3561 -1.2292
12754TIP3    H259678   3.448   4.841  13.424 -0.2849  0.0418  0.2525
12755TIP3   OH259679   1.651   1.175  17.015  0.2092 -0.3542  0.1693
12755TIP3    H159680   1.608   1.170  17.100 -1.9669  0.4777 -0.8167
12755TIP3    H259681   1.745   1.181  17.036 -0.1910 -1.1450  2.4447
12756TIP3   OH259682   0.628   5.471   5.791 -0.2754  0.0958  0.6550
12756TIP3    H159683   0.613   5.441   5.880 -2.3578  2.0408  1.0572
12756TIP3    H259684   0.697   5.414   5.757  0.5253 -0.7340  3.4565
12757TIP3   OH259685   4.616   2.534  16.656  0.2656  0.0180 -0.2982
12757TIP3    H159686   4.683   2.476  16.692  1.3142  0.4630 -1.4627
12757TIP3    H259687   4.659   2.578  16.583 -0.5493  2.1497  0.4351
12758TIP3   OH259688   3.693   6.301  15.273 -0.3386  0.2985  0.0087
12758TIP3    H159689   3.602   6.299  15.301  0.1390 -0.7776  1.6414
12758TIP3    H259690   3.721   6.210  15.276  0.7966  0.6104 -0.4579
12759TIP3   OH259691   2.371   6.398   2.940 -0.0831  0.4344 -0.3991
12759TIP3    H159692   2.295   6.454   2.922 -0.7480 -0.5345 -0.6638
12759TIP3    H259693   2.421   6.446   3.006 -0.9489  1.0691 -0.1903
12760TIP3   OH259694   2.379   3.350   0.409  0.4035 -0.0485 -0.1163
12760TIP3    H159695   2.468   3.328   0.436  0.3865 -1.5513 -1.1712
12760TIP3    H259696   2.324   3.320   0.481  0.5613 -1.6539 -0.6241
12761TIP3   OH259697   3.522   1.003   5.425  0.3657 -0.1178 -0.7080
12761TIP3    H159698   3.537   1.068   5.495 -2.2900  0.0040 -0.1356
12761TIP3    H259699   3.460   0.941   5.464  2.1120 -2.5593 -1.5632
12762TIP3   OH259700   0.799   5.514   5.324  0.3544  0.0081 -0.0391
12762TIP3    H159701   0.783   5.449   5.256 -1.0847 -0.1782  0.4354
12762TIP3    H259702   0.726   5.503   5.385  0.0325  2.0775  0.0392
12763TIP3   OH259703   5.093   3.761  12.893 -0.2530 -0.0415  0.2579
12763TIP3    H159704   5.123   3.796  12.977  1.3178 -2.9262  1.0445
12763TIP3    H259705   5.173   3.744  12.843 -0.8340 -2.4614  0.0095
12764TIP3   OH259706   3.199   5.634  16.281 -0.4663  0.1344  0.4447
12764TIP3    H159707   3.222   5.542  16.277 -0.2677  0.1023  1.8172
12764TIP3    H259708   3.104   5.634  16.292 -0.9762  0.2172 -2.9115
12765TIP3   OH259709   3.085   5.456   4.755 -0.0015 -0.1128  0.1214
12765TIP3    H159710   3.009   5.490   4.802 -0.5377 -1.0508 -0.0360
12765TIP3    H259711   3.155   5.518   4.774  0.1296 -1.0322  3.1495
12766TIP3   OH259712   1.498   3.678  15.908 -0.0323 -0.1252  0.4642
12766TIP3    H159713   1.540   3.634  15.982 -1.9543 -0.5993  1.3177
12766TIP3    H259714   1.466   3.607  15.852  2.8497  0.1590 -1.8425
12767TIP3   OH259715   3.165   5.723  15.271 -0.2405  0.0207  0.7930
12767TIP3    H159716   3.249   5.765  15.290 -0.1160  0.9937 -1.5996
12767TIP3    H259717   3.102   5.772  15.324  0.4644  0.3802  1.3318
12768TIP3   OH259718   0.850   3.871  15.243 -0.6006  0.4820 -0.3661
12768TIP3    H159719   0.891   3.801  15.294 -1.0195  1.1089  0.8743
12768TIP3    H259720   0.808   3.826  15.170 -1.6325 -0.6865  0.8912
12769TIP3   OH259721   6.010   2.024  16.777 -0.1687 -0.0227 -0.0084
12769TIP3    H159722   6.055   2.059  16.854 -0.1467  0.8713 -0.4179
12769TIP3    H259723   6.072   1.960  16.741  0.1059  0.0422  0.3400
12770TIP3   OH259724   5.728   1.680  13.681 -0.2783 -0.0815 -0.1060
12770TIP3    H159725   5.744   1.623  13.607 -0.8846 -0.3047 -0.0671
12770TIP3    H259726   5.638   1.663  13.707 -0.2435  0.3735  0.3538
12771TIP3   OH259727   3.113   4.580   5.566 -0.1768  0.5050  0.0643
12771TIP3    H159728   3.028   4.605   5.532  0.4510  1.0438 -1.1551
12771TIP3    H259729   3.141   4.655   5.618 -0.9360 -0.1379  1.4500
12772TIP3   OH259730   2.869   2.882  14.820 -0.3818 -0.6190 -0.1080
12772TIP3    H159731   2.827   2.819  14.878 -0.1856 -0.3850  0.2915
12772TIP3    H259732   2.798   2.919  14.769 -0.8709  0.7097  1.4559
12773TIP3   OH259733   0.305   4.137  11.361 -0.2276  0.3583  0.2726
12773TIP3    H159734   0.276   4.173  11.445  2.1163  0.5846  1.0636
12773TIP3    H259735   0.377   4.195  11.334  1.4466 -1.7740 -0.0699
12774TIP3   OH259736   3.016   5.244  12.966 -0.0216 -0.1291  0.1136
12774TIP3    H159737   3.054   5.157  12.978 -1.1650 -0.8004 -0.9645
12774TIP3    H259738   3.025   5.286  13.052  0.4239 -1.3544  0.6835
12775TIP3   OH259739   2.073   1.271   1.545  0.0791 -0.2052  0.8616
12775TIP3    H159740   2.086   1.196   1.487 -0.2962 -0.0960  0.6342
12775TIP3    H259741   2.023   1.237   1.619  0.0053 -0.2037  0.8123
12776TIP3   OH259742   2.658   1.474   5.368 -0.2325  0.0067  0.5620
12776TIP3    H159743   2.748   1.472   5.335 -1.1861  0.1315 -2.3324
12776TIP3    H259744   2.661   1.538   5.440  1.6956  1.1922 -0.4782
12777TIP3   OH259745   2.438   0.993   3.978 -0.6997 -0.5393  0.0128
12777TIP3    H159746   2.403   0.965   4.063  3.3844 -1.4708  1.6117
12777TIP3    H259747   2.470   0.913   3.937  0.0241  0.2682 -1.0655
12778TIP3   OH259748   4.944   6.352  10.697 -0.1093  0.1627  0.2449
12778TIP3    H159749   5.000   6.377  10.771  0.3686  1.1548 -0.4350
12778TIP3    H259750   5.005   6.340  10.624 -0.5712 -0.8607  0.0067
12779TIP3   OH259751   4.218   3.068  14.004 -0.1452  0.0371 -0.2497
12779TIP3    H159752   4.238   3.158  14.029  0.9780 -0.1994 -0.2410
12779TIP3    H259753   4.162   3.035  14.074 -0.9023  0.8585 -0.4675
12780TIP3   OH259754   2.662   3.754  12.433  0.4018  0.2338  0.8876
12780TIP3    H159755   2.578   3.759  12.387  1.4481 -0.0174 -1.1556
12780TIP3    H259756   2.652   3.679  12.492 -0.2110 -0.9372 -0.6436
12781TIP3   OH259757   2.905   5.015   4.869  0.0947  0.0321 -0.0192
12781TIP3    H159758   2.931   4.954   4.939  2.0624  0.8791  0.0563
12781TIP3    H259759   2.841   5.072   4.910  0.3922 -0.1819  0.7667
12782TIP3   OH259760   5.601   0.052   0.611  0.3822 -0.3954  0.0874
12782TIP3    H159761   5.576   0.144   0.612 -1.1440 -0.7719 -0.5984
12782TIP3    H259762   5.654   0.041   0.690 -0.5503  0.7628  0.9083
12783TIP3   OH259763   5.957   2.395  14.868  0.0468  0.8755  0.2367
12783TIP3    H159764   5.939   2.346  14.949 -0.9726 -0.3618 -0.7061
12783TIP3    H259765   6.040   2.358  14.836 -0.3243  0.2841 -0.0633
12784TIP3   OH259766   5.020   2.806  15.857  0.4637 -0.2359  0.0452
12784TIP3    H159767   5.074   2.881  15.830 -0.2405 -0.2939 -1.6639
12784TIP3    H259768   5.069   2.766  15.929  2.4120  0.0575 -1.0345
12785TIP3   OH259769   6.076   5.078  14.594 -0.1369 -0.0390  0.1560
12785TIP3    H159770   6.039   4.990  14.592  1.9122 -1.0204  1.4069
12785TIP3    H259771   6.116   5.089  14.507  2.0182 -1.5674  0.8610
12786TIP3   OH259772   2.557   0.425   3.820 -0.1005  0.1532 -0.6648
12786TIP3    H159773   2.562   0.330   3.829 -0.9717  0.1715  0.1386
12786TIP3    H259774   2.618   0.459   3.885 -0.5819  0.1558 -0.2101
12787TIP3   OH259775   0.453   3.376   3.973 -0.1883 -0.2743  0.4038
12787TIP3    H159776   0.377   3.434   3.968  0.4443  0.6858  1.4419
12787TIP3    H259777   0.516   3.414   3.912 -1.0166 -1.9109 -1.6024
12788TIP3   OH259778   5.654   1.596   5.660  0.5039  0.1250  0.2263
12788TIP3    H159779   5.747   1.586   5.679  0.4920 -0.6369 -0.0931
12788TIP3    H259780   5.651   1.659   5.588  0.8660 -0.8272 -0.6467
12789TIP3   OH259781   3.173   3.717  11.904 -0.4768  0.2630 -0.2347
12789TIP3    H159782   3.125   3.789  11.945 -1.7605 -0.5016 -0.3610
12789TIP3    H259783   3.108   3.671  11.852  0.1630 -1.4105  0.3791
12790TIP3   OH259784   5.472   0.876  12.388 -0.3795 -0.3464  0.2444
12790TIP3    H159785   5.458   0.853  12.479  0.7780  0.9292  0.7929
12790TIP3    H259786   5.427   0.960  12.377 -0.5413 -0.5072 -0.3647
12791TIP3   OH259787   4.226   4.828   0.474 -0.0402  0.1527 -0.6019
12791TIP3    H159788   4.148   4.883   0.474  0.3903  0.7721 -0.1795
12791TIP3    H259789   4.289   4.875   0.529  1.4103  0.7894 -2.6667
12792TIP3   OH259790   4.523   5.916  11.389  0.7576  0.0660  0.0791
12792TIP3    H159791   4.519   5.901  11.294 -2.9175 -0.4575  0.1866
12792TIP3    H259792   4.437   5.889  11.421  1.9440  0.0742  3.6351
12793TIP3   OH259793   5.678   2.294  14.862 -0.2092 -0.2408  0.1811
12793TIP3    H159794   5.632   2.241  14.797 -1.1985 -0.6043  1.1578
12793TIP3    H259795   5.746   2.339  14.811 -2.7060  1.7358 -1.7213
12794TIP3   OH259796   6.725   3.043   0.508 -0.5725  0.0534  0.4008
12794TIP3    H159797   6.683   2.998   0.434  1.6438  1.6696 -2.0336
12794TIP3    H259798   6.680   3.127   0.513  0.7658  0.8767 -0.7210
12795TIP3   OH259799   5.549   2.723   5.309  0.2853  0.3314 -0.3072
12795TIP3    H159800   5.463   2.735   5.350  0.2009 -0.4343 -0.2447
12795TIP3    H259801   5.607   2.700   5.381 -0.0812 -2.0617 -0.7131
12796TIP3   OH259802   5.114   0.537   5.080 -0.4422 -0.5060  0.3647
12796TIP3    H159803   5.059   0.504   5.151 -1.4032 -0.9666 -0.5824
12796TIP3    H259804   5.065   0.610   5.043  0.2089 -0.0526  0.3782
12797TIP3   OH259805   6.297   6.658  13.984 -0.4717 -0.9132  0.0836
12797TIP3    H159806   6.294   6.588  14.050  0.2941 -0.7075  0.3483
12797TIP3    H259807   6.243   6.728  14.020  1.2345 -0.1511  1.2895
12798TIP3   OH259808   6.042   5.811   6.659  0.3154  0.4943  0.8395
12798TIP3    H159809   6.113   5.856   6.706 -0.9373  1.9733  1.3992
12798TIP3    H259810   5.972   5.876   6.654 -0.7748 -0.7182 -0.2687
12799TIP3   OH259811   5.569   3.836   1.847  0.0604 -0.1701  0.3317
12799TIP3    H159812   5.476   3.860   1.844 -0.4164 -1.8453  0.6692
12799TIP3    H259813   5.575   3.758   1.793  1.4098  0.2638 -0.1852
12800TIP3   OH259814   6.080   3.752  13.588 -0.4777 -0.0665  0.4351
12800TIP3    H159815   6.086   3.733  13.681  0.6415  2.2494  0.9058
12800TIP3    H259816   6.079   3.847  13.582  1.0498 -0.0989 -1.9725
12801TIP3   OH259817   4.420   2.449   1.194  0.1219  0.7907 -0.7377
12801TIP3    H159818   4.328   2.434   1.214  0.8414 -0.8591  1.7284
12801TIP3    H259819   4.439   2.389   1.122 -1.0712  2.3998 -2.4879
12802TIP3   OH259820   6.504   4.467   2.564  0.1428  0.1978  0.1424
12802TIP3    H159821   6.542   4.437   2.646  0.7340 -0.9980 -0.5339
12802TIP3    H259822   6.410   4.455   2.575  0.2714 -0.6264  0.4034
12803TIP3   OH259823   5.584   0.444   1.087  0.3317 -0.2702 -0.0043
12803TIP3    H159824   5.560   0.440   0.995 -1.0116  0.1879  0.2979
12803TIP3    H259825   5.678   0.458   1.087  0.5077 -1.2886 -1.2854
12804TIP3   OH259826   3.010   2.828   2.906 -0.3941 -0.4401  0.0621
12804TIP3    H159827   2.962   2.849   2.826  0.7388 -0.7029 -0.7051
12804TIP3    H259828   3.099   2.859   2.890  0.6092 -3.0672  0.0704
12805TIP3   OH259829   4.165   3.646  14.660  0.4405  0.1731 -0.0728
12805TIP3    H159830   4.174   3.700  14.581  2.7944  2.2376  1.4471
12805TIP3    H259831   4.102   3.694  14.714 -1.0543 -1.1564 -0.5882
12806TIP3   OH259832   1.067   2.227  14.611  0.7173 -0.4979  0.2680
12806TIP3    H159833   0.979   2.191  14.598  0.6932 -0.4118  0.1909
12806TIP3    H259834   1.088   2.269  14.527  0.6198 -0.0624  0.4620
12807TIP3   OH259835   1.719   3.536   4.219  0.7314  0.0529  0.3054
12807TIP3    H159836   1.775   3.567   4.149  0.6640  0.8763  0.6059
12807TIP3    H259837   1.724   3.604   4.286  2.3321 -1.5617  1.9586
12808TIP3   OH259838   1.459   6.775  11.839 -0.2955  0.6638 -0.4628
12808TIP3    H159839   1.368   6.788  11.813 -0.2542 -0.9914 -1.5602
12808TIP3    H259840   1.510   6.821  11.772 -0.2981  0.9185 -0.2919
12809TIP3   OH259841   4.171   1.838  10.541 -0.4142  0.0933 -0.4228
12809TIP3    H159842   4.138   1.888  10.615 -1.8166  1.4640 -1.8772
12809TIP3    H259843   4.143   1.888  10.464 -1.1068 -2.4531 -1.9536
12810TIP3   OH259844   2.499   0.268  13.417 -0.0275  0.6683  0.1657
12810TIP3    H159845   2.527   0.251  13.507 -0.4237 -1.0215  0.0037
12810TIP3    H259846   2.558   0.336  13.386  1.4197 -0.1348  1.0618
12811TIP3   OH259847   0.426   0.190   0.403  0.5474 -0.0730 -0.0171
12811TIP3    H159848   0.408   0.217   0.313 -1.1332 -0.6448  0.0970
12811TIP3    H259849   0.340   0.168   0.438  1.2630 -0.5821  1.4970
12812TIP3   OH259850   5.134   6.523   2.043  0.3919  0.0235  0.1600
12812TIP3    H159851   5.080   6.565   1.977 -0.9723  0.0621  1.2499
12812TIP3    H259852   5.221   6.562   2.032 -0.5820  2.4903  0.5291
12813TIP3   OH259853   2.776   5.579   6.379 -0.0626  0.1171 -0.4779
12813TIP3    H159854   2.694   5.627   6.392 -0.2428 -0.0839 -0.8507
12813TIP3    H259855   2.842   5.633   6.421 -0.3787  0.3084 -0.2218
12814TIP3   OH259856   6.205   3.211  14.091  0.2070  0.0908 -0.1563
12814TIP3    H159857   6.184   3.296  14.052 -0.5838 -0.6138 -1.3570
12814TIP3    H259858   6.292   3.190  14.058  0.5208  0.5458  0.3662
12815TIP3   OH259859   3.061   0.475  11.159  0.0713  0.2221  0.4421
12815TIP3    H159860   3.023   0.393  11.129  1.9143 -0.7046  0.5117
12815TIP3    H259861   3.080   0.524  11.079 -0.0693  0.1398  0.3583
12816TIP3   OH259862   3.325   5.534   3.880 -0.0043  0.4996 -0.1077
12816TIP3    H159863   3.368   5.551   3.964 -0.9784  2.3690  0.0592
12816TIP3    H259864   3.363   5.451   3.850  0.8386  0.1199  1.8580
12817TIP3   OH259865   5.486   4.851   3.546  0.1853  0.0939 -0.1240
12817TIP3    H159866   5.450   4.877   3.461  1.6811  1.7780 -0.3126
12817TIP3    H259867   5.465   4.758   3.553 -0.0144 -0.0924 -2.3359
12818TIP3   OH259868   0.317   6.443  14.316 -0.2520 -0.0955 -0.2768
12818TIP3    H159869   0.355   6.356  14.302 -1.6427 -0.7258 -0.3827
12818TIP3    H259870   0.373   6.502  14.266  0.9241 -0.8801  0.0865
12819TIP3   OH259871   5.369   1.934  11.790  0.1098  0.1410 -0.1395
12819TIP3    H159872   5.424   1.944  11.868  0.4553  1.7864 -0.5373
12819TIP3    H259873   5.432   1.920  11.719 -0.1984 -1.2742 -0.1474
12820TIP3   OH259874   2.992   4.225  17.072 -0.1545  0.2181 -0.0397
12820TIP3    H159875   2.940   4.254  16.997 -0.3082 -1.2861 -0.5581
12820TIP3    H259876   3.043   4.151  17.038  0.8862  0.4516  0.9594
12821TIP3   OH259877   4.669   4.036   0.419  0.1900 -0.3255 -0.2544
12821TIP3    H159878   4.607   3.975   0.379 -1.3960  1.3223 -0.4400
12821TIP3    H259879   4.660   4.022   0.513 -1.1069  0.4641 -0.2451
12822TIP3   OH259880   5.763   4.458   3.932  0.0807 -0.4155 -0.2529
12822TIP3    H159881   5.828   4.488   3.868  0.0928 -1.3934 -0.7045
12822TIP3    H259882   5.814   4.439   4.010 -0.0235  1.5475  0.3668
12823TIP3   OH259883   5.286   1.514  12.528 -0.5402 -0.2908  0.1570
12823TIP3    H159884   5.350   1.446  12.510 -0.7606 -1.0940  2.1256
12823TIP3    H259885   5.330   1.572  12.591 -1.2830 -0.1569  0.5685
12824TIP3   OH259886   2.961   1.374   5.045  0.3832  0.6723  0.3155
12824TIP3    H159887   2.885   1.406   4.997 -0.1978 -1.4158 -0.2623
12824TIP3    H259888   2.941   1.392   5.137 -0.8424  0.1264  0.1728
12825TIP3   OH259889   4.529   0.826  10.711 -0.0926  0.5499 -0.1450
12825TIP3    H159890   4.549   0.780  10.629  0.1189  1.2767 -0.5097
12825TIP3    H259891   4.579   0.779  10.777 -0.2934 -0.0708 -0.4239
12826TIP3   OH259892   1.952   2.929  16.172 -0.3269 -0.5218  0.0065
12826TIP3    H159893   1.937   2.979  16.252  0.1795 -0.7963  0.2823
12826TIP3    H259894   1.866   2.923  16.131 -0.5849 -0.3433  0.5102
12827TIP3   OH259895   6.192   5.387   5.497  0.6323 -0.0177  0.1061
12827TIP3    H159896   6.128   5.331   5.453  0.8158 -0.9569  0.9982
12827TIP3    H259897   6.141   5.460   5.531 -0.1001 -1.0710  1.3452
12828TIP3   OH259898   5.063   2.619  15.234 -0.1653 -0.1845 -0.2388
12828TIP3    H159899   5.020   2.576  15.308  1.2972 -1.8664 -0.2983
12828TIP3    H259900   5.031   2.709  15.236 -0.8575 -0.4368  1.8622
12829TIP3   OH259901   3.911   1.075   5.340 -0.3893 -0.1263 -0.0840
12829TIP3    H159902   3.850   1.030   5.282  1.8218 -1.5174 -1.4830
12829TIP3    H259903   3.969   1.123   5.282 -0.2814  1.3892  1.2107
12830TIP3   OH259904   4.249   6.508   3.428  0.1160 -0.4522 -0.2519
12830TIP3    H159905   4.267   6.418   3.401  0.8103  0.2227 -2.1852
12830TIP3    H259906   4.314   6.560   3.382 -0.9361  1.1550  0.0079
12831TIP3   OH259907   1.780   4.675   6.445  0.4645 -0.2108  0.4950
12831TIP3    H159908   1.792   4.598   6.389  1.5684  0.2000  0.1503
12831TIP3    H259909   1.868   4.709   6.459  0.0807  0.4531  1.4289
12832TIP3   OH259910   4.914   2.559   4.568 -0.2990 -0.5281 -0.0876
12832TIP3    H159911   4.889   2.649   4.548  2.1904  0.9702  2.7380
12832TIP3    H259912   4.846   2.527   4.627 -0.2751  0.1445  0.3056
12833TIP3   OH259913   2.535   2.911   1.865 -0.5159  0.3884 -0.5000
12833TIP3    H159914   2.473   2.841   1.846  1.0313 -1.2943  0.2727
12833TIP3    H259915   2.580   2.927   1.782 -2.8637  2.6385 -1.4334
12834TIP3   OH259916   3.855   4.888   6.883  0.4269 -0.4588  0.0238
12834TIP3    H159917   3.923   4.953   6.867  0.2189 -0.4201 -0.7398
12834TIP3    H259918   3.849   4.838   6.802 -1.7803  0.7623 -0.6527
12835TIP3   OH259919   0.174   4.017  16.412 -0.2305 -0.0915  0.0959
12835TIP3    H159920   0.170   4.082  16.483  1.4995  0.6288 -0.4267
12835TIP3    H259921   0.153   3.934  16.455  0.2530  0.4102  1.3385
12836TIP3   OH259922   0.982   2.146   1.217 -0.2756  0.0437  0.1082
12836TIP3    H159923   1.064   2.193   1.232 -0.2061 -0.0558  0.0442
12836TIP3    H259924   0.917   2.192   1.271 -0.6732  1.5320 -1.5341
12837TIP3   OH259925   0.277   5.603   3.982 -0.6949  0.0095  0.1855
12837TIP3    H159926   0.214   5.627   4.049  0.1254 -0.2268  1.0648
12837TIP3    H259927   0.336   5.541   4.026  0.1592  0.2441 -0.6047
12838TIP3   OH259928   4.885   3.873  11.253  0.0854  0.4133 -0.1233
12838TIP3    H159929   4.883   3.826  11.169  3.0543 -2.3169  1.1190
12838TIP3    H259930   4.793   3.881  11.278 -0.7476 -1.2695 -2.2921
12839TIP3   OH259931   1.573   1.047  16.781  0.7391 -0.0920  0.7968
12839TIP3    H159932   1.594   1.072  16.871 -1.0770  0.2994  1.1364
12839TIP3    H259933   1.494   1.097  16.759 -0.7896 -2.6163  0.1519
12840TIP3   OH259934   5.861   6.758   0.912 -0.0824  0.3866 -0.1626
12840TIP3    H159935   5.772   6.790   0.898 -0.7346 -0.8615  0.9295
12840TIP3    H259936   5.891   6.804   0.990 -1.0650 -1.6404  1.4782
12841TIP3   OH259937   4.032   2.206   2.006 -0.0730 -0.4338  0.1835
12841TIP3    H159938   4.031   2.294   1.968  0.6836 -0.7299 -0.5476
12841TIP3    H259939   4.031   2.221   2.101 -0.0232  0.3560  0.0679
12842TIP3   OH259940   3.593   3.535  14.947  0.3126 -1.0004  0.0969
12842TIP3    H159941   3.656   3.604  14.969 -2.4954  1.3554  1.5465
12842TIP3    H259942   3.597   3.529  14.851  0.6370  1.2867 -0.1011
12843TIP3   OH259943   4.356   6.098   2.804  0.4373 -0.0638 -0.2195
12843TIP3    H159944   4.300   6.084   2.881  1.3995  2.6953  1.1344
12843TIP3    H259945   4.306   6.158   2.749  0.2289 -1.1595 -1.2634
12844TIP3   OH259946   4.081   1.270   2.640 -0.0784  0.6627  0.2881
12844TIP3    H159947   4.124   1.184   2.630  0.6359  1.2353 -2.3451
12844TIP3    H259948   4.106   1.299   2.727  3.6053  0.1845 -0.4424
12845TIP3   OH259949   2.690   4.036  15.073 -0.0587 -0.0625  1.0975
12845TIP3    H159950   2.781   4.016  15.095  0.4167  1.5505  0.7086
12845TIP3    H259951   2.695   4.096  14.999 -1.4421  0.0631  1.0701
12846TIP3   OH259952   6.365   5.595   3.197  1.0941  0.7718  0.3760
12846TIP3    H159953   6.374   5.557   3.110 -0.6449 -1.0454  0.9196
12846TIP3    H259954   6.335   5.684   3.182 -4.7404 -0.9742 -1.1033
12847TIP3   OH259955   0.466   0.138  15.508  0.3101  0.4131  0.4170
12847TIP3    H159956   0.412   0.060  15.493 -1.7585  2.1649 -2.3770
12847TIP3    H259957   0.408   0.198  15.555  0.4071  1.6817 -1.0174
12848TIP3   OH259958   4.829   5.262  11.630 -0.1913  0.4660  0.3530
12848TIP3    H159959   4.816   5.220  11.545 -0.9148 -0.7670  1.0485
12848TIP3    H259960   4.742   5.291  11.656  0.1074  1.3199  0.4591
12849TIP3   OH259961   0.961   2.392   6.245 -0.2587 -0.4489  0.7054
12849TIP3    H159962   1.036   2.334   6.263  1.0708  1.1829  0.6944
12849TIP3    H259963   0.884   2.336   6.256  0.9566 -3.2990 -3.0603
12850TIP3   OH259964   1.450   5.614   5.601 -0.1420  0.3407  0.0324
12850TIP3    H159965   1.355   5.604   5.595 -0.4699  1.9991  1.6165
12850TIP3    H259966   1.463   5.705   5.626  1.8188 -0.1134  0.8616
12851TIP3   OH259967   0.218   0.948   4.253  0.1104  0.0128 -0.5091
12851TIP3    H159968   0.132   0.986   4.269  0.0968  0.8623 -2.2754
12851TIP3    H259969   0.279   1.020   4.265  0.3481 -0.0390 -1.3308
12852TIP3   OH259970   1.588   2.834  16.947  0.9268  0.3610  0.1038
12852TIP3    H159971   1.562   2.844  17.039  0.6221 -1.5392  0.2628
12852TIP3    H259972   1.510   2.857  16.897  0.1572 -1.3716  0.4479
12853TIP3   OH259973   5.769   0.274   4.507  0.4563  0.4436  0.2618
12853TIP3    H159974   5.777   0.271   4.412 -1.7792 -0.7014  0.0234
12853TIP3    H259975   5.714   0.351   4.524 -0.8451 -0.4821  0.4042
12854TIP3   OH259976   6.200   4.993   2.420 -0.4970 -0.1249  0.5933
12854TIP3    H159977   6.132   5.059   2.407  0.1122  0.0056 -2.9296
12854TIP3    H259978   6.207   4.948   2.335  3.2124 -0.6738  1.0222
12855TIP3   OH259979   5.091   6.499  12.249  0.0310  0.4280 -0.2972
12855TIP3    H159980   5.171   6.519  12.297 -0.4214  0.6245  0.3977
12855TIP3    H259981   5.024   6.554  12.291 -0.6378 -0.3794 -0.2894
12856TIP3   OH259982   4.365   3.613   6.244 -0.2344 -0.1071  0.1337
12856TIP3    H159983   4.409   3.616   6.329  1.3126  0.1569 -0.6400
12856TIP3    H259984   4.273   3.595   6.265  0.4191 -1.9179  1.7633
12857TIP3   OH259985   3.918   2.904  13.572  0.4358 -0.2099  0.0593
12857TIP3    H159986   3.877   2.917  13.658 -0.8665 -1.6051 -0.3074
12857TIP3    H259987   3.863   2.838  13.529  0.3216  1.3423 -2.3588
12858TIP3   OH259988   5.031   1.742   4.655  0.1101  0.7388  0.4416
12858TIP3    H159989   4.993   1.826   4.684  1.2857  0.9428  1.4576
12858TIP3    H259990   4.965   1.677   4.678 -1.8766  1.5286 -2.4104
12859TIP3   OH259991   5.412   0.409   0.856 -0.0424 -0.1406 -0.2225
12859TIP3    H159992   5.403   0.487   0.802  1.2094  1.0842  1.2433
12859TIP3    H259993   5.324   0.392   0.889 -0.0465  1.7489  0.8564
12860TIP3   OH259994   3.002   0.561  14.946 -0.4296  0.2320  0.5060
12860TIP3    H159995   2.961   0.474  14.943 -0.1847 -0.0060  2.4228
12860TIP3    H259996   2.930   0.622  14.932 -0.3377 -0.2447 -2.6419
12861TIP3   OH259997   4.360   2.281   4.044  0.2146  0.4785 -0.2304
12861TIP3    H159998   4.298   2.269   3.972 -0.4489  1.1954  0.2021
12861TIP3    H259999   4.339   2.368   4.079  1.6251  0.8407 -0.2185
12862TIP3   OH260000   5.875   5.928   3.890 -0.2874  0.3568 -0.2300
12862TIP3    H160001   5.919   5.976   3.960  0.5991  0.5495 -0.9069
12862TIP3    H260002   5.933   5.854   3.872 -0.2820  0.5523 -1.0518
12863TIP3   OH260003   4.765   0.647   0.328  0.0879  0.6741  0.6986
12863TIP3    H160004   4.746   0.716   0.391 -1.9327  0.7248  0.0780
12863TIP3    H260005   4.733   0.567   0.370 -0.2868  0.5542  0.1913
12864TIP3   OH260006   0.060   6.242  11.169  0.5075  0.3575  0.0260
12864TIP3    H160007   0.105   6.317  11.131 -2.6993  2.2143 -0.4417
12864TIP3    H260008   0.051   6.180  11.097  1.2244  0.4640 -0.1644
12865TIP3   OH260009   3.644   5.711  15.515  0.0487  0.1046 -0.4552
12865TIP3    H160010   3.685   5.778  15.569 -0.0972  1.3111 -1.7679
12865TIP3    H260011   3.576   5.758  15.466 -0.4680 -1.1304 -0.9766
12866TIP3   OH260012   6.733   2.468   3.590  0.2846  0.0340  0.0363
12866TIP3    H160013   6.700   2.555   3.569  2.2007  1.1040  1.2190
12866TIP3    H260014   6.753   2.472   3.683  0.3553 -1.7134  0.1275
12867TIP3   OH260015   5.078   5.936  11.775 -0.1870 -0.4227 -0.4625
12867TIP3    H160016   5.092   5.970  11.863 -0.9125 -2.1354  0.3500
12867TIP3    H260017   5.007   5.990  11.740 -1.6639 -1.3345  0.9916
12868TIP3   OH260018   0.683   1.967  14.425 -0.1458  0.3372 -0.0542
12868TIP3    H160019   0.721   2.051  14.451  1.0011 -0.1279 -0.1700
12868TIP3    H260020   0.602   1.991  14.380 -0.3102  1.3297  0.7210
12869TIP3   OH260021   5.125   6.232   3.343 -0.3465 -0.0580 -0.3759
12869TIP3    H160022   5.120   6.269   3.431 -1.1724  0.1432 -0.5002
12869TIP3    H260023   5.191   6.285   3.298  2.1934 -1.8786  0.9060
12870TIP3   OH260024   0.460   2.043   6.449  0.3868 -0.1001 -0.0558
12870TIP3    H160025   0.452   2.114   6.385 -0.6542 -0.5230 -0.4321
12870TIP3    H260026   0.431   2.082   6.532  1.0780  0.2617  0.0221
12871TIP3   OH260027   3.054   6.004  15.201 -0.7281  0.1946 -0.4558
12871TIP3    H160028   3.088   5.939  15.139  0.3662  0.6136 -0.3162
12871TIP3    H260029   3.065   5.964  15.287 -1.2243  0.0646 -0.4471
12872TIP3   OH260030   4.433   3.593  16.570 -0.3512  0.0174 -0.1968
12872TIP3    H160031   4.369   3.527  16.543  0.2351 -1.1339  1.1370
12872TIP3    H260032   4.448   3.645  16.491 -2.3172 -0.1738 -0.7468
12873TIP3   OH260033   2.738   1.532   4.965  0.3955 -0.2226  0.7065
12873TIP3    H160034   2.755   1.562   4.876 -1.3359  0.4219  0.5508
12873TIP3    H260035   2.762   1.606   5.020  1.8450 -0.7644  0.8239
12874TIP3   OH260036   1.415   3.197  15.547  0.4043  0.3302  0.0729
12874TIP3    H160037   1.323   3.222  15.556  0.3013 -0.2992  0.8651
12874TIP3    H260038   1.435   3.212  15.455 -0.9458 -0.9754 -0.4703
12875TIP3   OH260039   6.310   0.690  13.536 -0.4371  0.0159  0.1340
12875TIP3    H160040   6.229   0.740  13.524 -1.4706 -1.2733  1.3976
12875TIP3    H260041   6.370   0.724  13.469 -2.3623  0.3052 -1.5331
12876TIP3   OH260042   1.373   5.156  12.833  0.2087 -0.8304  0.5877
12876TIP3    H160043   1.405   5.165  12.923  0.0152 -0.0940  0.5861
12876TIP3    H260044   1.353   5.245  12.805 -0.6000 -1.1433  0.1271
12877TIP3   OH260045   0.297   0.218   0.134 -0.1289  0.5976  0.8307
12877TIP3    H160046   0.321   0.194   0.044  0.1709 -1.0491  1.3194
12877TIP3    H260047   0.204   0.198   0.140 -0.1655  0.7787  0.8692
12878TIP3   OH260048   2.762   5.003   1.746 -0.1285 -0.4205 -0.7869
12878TIP3    H160049   2.740   5.072   1.684 -0.9271  1.3141  1.2998
12878TIP3    H260050   2.682   4.988   1.796  0.6415 -1.3197  0.2414
12879TIP3   OH260051   6.372   0.279   2.022 -0.3006 -0.7330 -0.5609
12879TIP3    H160052   6.416   0.203   2.059  0.5690 -1.3640 -2.7421
12879TIP3    H260053   6.424   0.354   2.053 -0.9721 -0.9896  1.3263
12880TIP3   OH260054   1.261   4.099  15.157  0.0297 -0.4627 -0.0728
12880TIP3    H160055   1.263   4.099  15.062 -1.2242 -0.6392 -0.1096
12880TIP3    H260056   1.257   4.007  15.181  1.0527 -0.4551  0.1907
12881TIP3   OH260057   2.347   4.323   1.508  0.6614 -0.1102 -0.3363
12881TIP3    H160058   2.377   4.411   1.486  3.5429 -1.0808 -0.7929
12881TIP3    H260059   2.354   4.318   1.603  0.1448  0.2643 -0.2781
12882TIP3   OH260060   6.197   6.316   0.394  0.1973  0.0710  0.2148
12882TIP3    H160061   6.225   6.387   0.452 -0.9307  1.3455 -0.7238
12882TIP3    H260062   6.268   6.307   0.330  0.6829 -0.1755  0.7828
12883TIP3   OH260063   5.758   1.298  12.203  0.2742  0.2290 -0.1264
12883TIP3    H160064   5.721   1.256  12.126  0.1602 -2.9633  1.4827
12883TIP3    H260065   5.851   1.276  12.200  0.5563  1.3302 -0.0427
12884TIP3   OH260066   4.096   0.926  13.603  0.1076 -0.4817  0.1129
12884TIP3    H160067   4.148   0.993  13.648  1.4727  0.0165 -2.0637
12884TIP3    H260068   4.087   0.855  13.668  2.2621  0.0457  1.0707
12885TIP3   OH260069   0.751   0.526  12.001 -0.0246  0.9750  0.4481
12885TIP3    H160070   0.824   0.576  11.965  1.6373 -1.4437  0.2350
12885TIP3    H260071   0.712   0.483  11.925  1.5247 -1.6569  1.0252
12886TIP3   OH260072   4.873   5.793   0.962 -1.1668 -0.1340 -0.0520
12886TIP3    H160073   4.820   5.798   1.041 -2.4996  0.4337 -0.9481
12886TIP3    H260074   4.911   5.880   0.953 -1.9525  0.1611 -0.6397
12887TIP3   OH260075   3.341   2.763  11.869  0.6769  0.0960  0.4523
12887TIP3    H160076   3.303   2.823  11.934 -0.2611  1.4700 -1.2953
12887TIP3    H260077   3.373   2.820  11.800  0.3947 -1.3862 -0.9577
12888TIP3   OH260078   4.096   4.789   5.962 -0.4806  0.4964  0.3745
12888TIP3    H160079   4.090   4.853   6.033 -0.6268  0.8569  0.0388
12888TIP3    H260080   4.005   4.760   5.948 -0.0998 -2.6503  3.0907
12889TIP3   OH260081   0.769   5.270  11.316  0.1130  0.0437  0.4437
12889TIP3    H160082   0.836   5.332  11.290  1.0192 -0.5694  1.2247
12889TIP3    H260083   0.813   5.185  11.315 -1.3912 -0.7829 -1.6939
12890TIP3   OH260084   2.216   4.532  14.429  0.6291 -0.1359 -0.2321
12890TIP3    H160085   2.166   4.454  14.454  0.9376  0.5852  3.0455
12890TIP3    H260086   2.306   4.512  14.453  0.5899  1.4638  1.4727
12891TIP3   OH260087   2.798   4.196   5.343 -0.1351 -0.0097  0.0071
12891TIP3    H160088   2.883   4.230   5.371  2.9977 -3.4805 -3.9950
12891TIP3    H260089   2.788   4.115   5.393 -2.4132  1.4250  2.0757
12892TIP3   OH260090   0.437   1.728   5.067  0.3398  0.6009 -0.8106
12892TIP3    H160091   0.449   1.823   5.071 -0.7632  0.7143  1.0105
12892TIP3    H260092   0.490   1.694   5.139 -2.4282  0.2797  1.2285
12893TIP3   OH260093   4.562   5.423  13.293 -0.2560  0.2244  0.0326
12893TIP3    H160094   4.472   5.392  13.288  0.0117 -0.4376 -0.8974
12893TIP3    H260095   4.613   5.346  13.317 -0.0103  0.7735  1.4095
12894TIP3   OH260096   3.545   5.743  14.408 -0.0334  0.0439 -0.3065
12894TIP3    H160097   3.617   5.786  14.362  0.6428 -0.7133  0.0287
12894TIP3    H260098   3.545   5.653  14.374 -0.6845 -0.0256 -0.1428
12895TIP3   OH260099   4.095   5.703   4.240  0.2166 -0.2234 -0.1586
12895TIP3    H160100   4.162   5.770   4.227 -1.4217  1.5639  0.1596
12895TIP3    H260101   4.108   5.673   4.330  0.4215  0.3167 -0.0060
12896TIP3   OH260102   2.373   5.616   6.060 -0.4683  0.2807  0.7521
12896TIP3    H160103   2.308   5.574   6.117 -1.1241  0.0980 -0.1124
12896TIP3    H260104   2.423   5.672   6.120  0.0631 -1.2677  1.8283
12897TIP3   OH260105   3.334   0.526   0.667  0.4310  0.2970 -0.2569
12897TIP3    H160106   3.385   0.511   0.588 -0.5553  1.1712 -1.0775
12897TIP3    H260107   3.310   0.438   0.696  1.2101 -0.0536 -0.6449
12898TIP3   OH260108   1.898   2.835  13.741 -0.6643 -0.5122 -0.5638
12898TIP3    H160109   1.991   2.840  13.718 -0.3831 -2.1511  0.0474
12898TIP3    H260110   1.892   2.756  13.795 -2.1455  0.4601  0.7517
12899TIP3   OH260111   6.142   1.838  11.226  0.2211 -0.6620 -0.0686
12899TIP3    H160112   6.099   1.858  11.143  0.5058 -2.1464 -0.6141
12899TIP3    H260113   6.070   1.818  11.286  0.0032  0.6473  0.1265
12900TIP3   OH260114   5.714   5.686  13.872  0.0746  0.2353  0.5239
12900TIP3    H160115   5.752   5.685  13.784  2.1010  1.8304  1.2853
12900TIP3    H260116   5.646   5.753  13.869 -1.0892 -0.9340 -0.2302
12901TIP3   OH260117   2.303   6.400   0.032  0.1538  0.1623 -0.4153
12901TIP3    H160118   2.253   6.466  -0.016  0.5620  0.5453 -0.3230
12901TIP3    H260119   2.241   6.363   0.093 -0.2874 -0.1003 -1.0148
12902TIP3   OH260120   6.208   1.429  12.877 -0.1169  0.3521  0.2447
12902TIP3    H160121   6.172   1.411  12.791 -1.3559  0.7858  0.6555
12902TIP3    H260122   6.133   1.426  12.936  1.0499 -2.6695  1.7710
12903TIP3   OH260123   4.666   3.107   2.476  0.2272  0.1481 -0.4344
12903TIP3    H160124   4.579   3.121   2.512 -0.0142  0.5605 -1.1486
12903TIP3    H260125   4.654   3.112   2.381  1.2130  1.4250 -0.5252
12904TIP3   OH260126   6.332   4.653   1.494  0.2532  0.1618 -0.4803
12904TIP3    H160127   6.403   4.645   1.431  0.4523  0.4540 -0.2931
12904TIP3    H260128   6.257   4.685   1.443  1.0954  2.9621 -0.1310
12905TIP3   OH260129   4.617   5.825   0.045  0.3119  0.3027 -0.0624
12905TIP3    H160130   4.596   5.781  -0.038 -1.6351 -0.1867  0.6165
12905TIP3    H260131   4.544   5.801   0.103  1.1769  1.3467  1.5222
12906TIP3   OH260132   3.301   3.547   0.315 -0.0267  0.1868  0.0379
12906TIP3    H160133   3.314   3.530   0.222 -0.4878  1.7226 -0.3461
12906TIP3    H260134   3.210   3.523   0.331 -0.2844  0.9492 -0.1976
12907TIP3   OH260135   2.189   6.230   4.801 -0.4050  0.2340  0.3854
12907TIP3    H160136   2.280   6.213   4.776 -0.7728 -0.5141 -0.5031
12907TIP3    H260137   2.144   6.146   4.788 -1.1664  0.5082  1.1181
12908TIP3   OH260138   4.065   4.366   4.961 -0.1486 -0.1903 -0.0132
12908TIP3    H160139   4.133   4.383   5.026  1.3313  0.5109 -1.6472
12908TIP3    H260140   4.005   4.440   4.969  1.0091  0.8475 -0.6067
12909TIP3   OH260141   1.533   1.970   5.044 -0.2492  0.3556  0.2443
12909TIP3    H160142   1.494   1.899   5.096 -0.0809  0.3335  0.3409
12909TIP3    H260143   1.461   2.032   5.031  0.1243  1.2016  1.9778
12910TIP3   OH260144   0.603   3.926   0.308 -0.7091  0.5602  0.3870
12910TIP3    H160145   0.562   3.901   0.225 -1.5611  0.1440  0.9160
12910TIP3    H260146   0.680   3.977   0.282  0.2787 -1.3680 -0.7088
12911TIP3   OH260147   0.365   0.681  11.185 -0.0953 -0.0846 -0.2776
12911TIP3    H160148   0.415   0.678  11.267  0.4280  0.5772 -0.5643
12911TIP3    H260149   0.336   0.773  11.179  1.3166  0.3092 -1.6820
12912TIP3   OH260150   1.873   4.217   0.190 -0.4074 -0.0821  0.3519
12912TIP3    H160151   1.947   4.277   0.198 -1.2822  1.3222 -1.3429
12912TIP3    H260152   1.892   4.168   0.109 -1.5873  0.7444 -0.4595
12913TIP3   OH260153   2.279   3.069   6.346  0.9784  0.2374  0.0404
12913TIP3    H160154   2.363   3.028   6.366  1.6809  0.7333 -1.7085
12913TIP3    H260155   2.295   3.163   6.359  0.9537  0.4064 -1.0313
12914TIP3   OH260156   0.701   1.403  11.827  0.3744  0.0205  0.0582
12914TIP3    H160157   0.791   1.385  11.801  0.3414 -1.1385  0.6882
12914TIP3    H260158   0.707   1.432  11.919  0.1129  0.0231  0.0770
12915TIP3   OH260159   2.691   0.329   3.559  0.1439  0.0466 -0.4726
12915TIP3    H160160   2.742   0.272   3.617  2.0489  1.2809 -0.8271
12915TIP3    H260161   2.617   0.275   3.532  1.3286 -1.9381 -0.0264
12916TIP3   OH260162   4.288   6.412   5.368  0.1549  0.2350 -0.4508
12916TIP3    H160163   4.192   6.404   5.371  0.0317  0.8349 -2.0031
12916TIP3    H260164   4.312   6.439   5.457 -1.0198 -0.7737  0.2115
12917TIP3   OH260165   0.071   2.942   1.442  0.0022 -0.1924 -0.0590
12917TIP3    H160166  -0.016   2.976   1.462 -0.5046 -1.3280 -0.2359
12917TIP3    H260167   0.065   2.848   1.462  1.1758 -0.2901 -0.1095
12918TIP3   OH260168   3.739   1.923  12.337  0.7392 -0.0124  0.2370
12918TIP3    H160169   3.684   1.922  12.259 -0.4410 -0.1898  1.0468
12918TIP3    H260170   3.715   2.003  12.383 -0.4745 -1.1338  1.6855
12919TIP3   OH260171   4.655   0.945   4.679 -0.7788 -0.3048 -0.4854
12919TIP3    H160172   4.586   0.989   4.630 -0.0627  0.1971 -1.0612
12919TIP3    H260173   4.689   0.879   4.619 -0.1238  0.0876 -0.5544
12920TIP3   OH260174   5.305   4.288   3.812  0.3454 -0.1386  0.4809
12920TIP3    H160175   5.385   4.253   3.773  0.9090  0.2280  1.2597
12920TIP3    H260176   5.292   4.235   3.891  1.0676  1.2033  1.5360
12921TIP3   OH260177   4.141   6.474   4.772  0.3313  0.3731  0.4355
12921TIP3    H160178   4.229   6.499   4.746  0.3529 -0.1322  0.0064
12921TIP3    H260179   4.153   6.411   4.843  0.3076  0.4858  0.5402
12922TIP3   OH260180   5.261   6.204   1.621 -0.3241 -0.4260 -0.6756
12922TIP3    H160181   5.309   6.265   1.563  1.3006 -1.2885 -0.3143
12922TIP3    H260182   5.170   6.210   1.592  0.2151  0.2399 -2.3718
12923TIP3   OH260183   2.299   5.051   5.047 -0.1835  0.3211  0.4421
12923TIP3    H160184   2.227   4.989   5.036 -0.0684  0.1388  0.6864
12923TIP3    H260185   2.257   5.132   5.076 -0.6770  1.3228 -2.7327
12924TIP3   OH260186   0.760   3.528  14.465  0.0575  0.1923 -0.2770
12924TIP3    H160187   0.780   3.446  14.421 -0.9527  0.7587 -1.8757
12924TIP3    H260188   0.813   3.526  14.545 -0.1569 -2.1157 -0.1263
12925TIP3   OH260189   4.863   2.937   5.022  0.4347 -0.6580 -0.1057
12925TIP3    H160190   4.835   3.008   5.080  0.5763 -1.9345  1.6012
12925TIP3    H260191   4.951   2.961   4.994  0.9534 -0.7010  1.4153
12926TIP3   OH260192   1.387   4.328  15.157 -0.3366  0.6942  0.3764
12926TIP3    H160193   1.342   4.244  15.166 -0.1646  0.4478 -0.8501
12926TIP3    H260194   1.326   4.392  15.194 -1.0850  0.1903  0.0539
12927TIP3   OH260195   2.037   2.928   3.225 -0.1065 -0.6422 -0.4514
12927TIP3    H160196   2.022   2.835   3.209  2.5799 -1.4247  0.9817
12927TIP3    H260197   2.041   2.967   3.138  1.5124 -2.4013 -1.2196
12928TIP3   OH260198   0.828   5.635   3.723  0.3873  0.3170 -0.0052
12928TIP3    H160199   0.793   5.578   3.791 -2.4101  0.4308 -1.2296
12928TIP3    H260200   0.825   5.582   3.643  0.3673  1.2710 -0.6545
12929TIP3   OH260201   1.303   0.998   3.217 -0.0985  0.5942 -0.1485
12929TIP3    H160202   1.243   1.070   3.199  0.0852  0.9547  0.6327
12929TIP3    H260203   1.356   0.989   3.137 -0.9599  0.4824 -0.7220
12930TIP3   OH260204   1.039   3.022   1.774 -0.1453  0.8313  0.1335
12930TIP3    H160205   1.087   3.060   1.701  0.1945  0.3748  0.1119
12930TIP3    H260206   0.962   3.079   1.785 -0.6854  0.3956 -1.1598
12931TIP3   OH260207   2.854   4.448   1.265 -0.2731 -0.0589 -0.6845
12931TIP3    H160208   2.821   4.406   1.185 -1.4682  0.8129 -0.6819
12931TIP3    H260209   2.904   4.379   1.309 -3.0213 -1.8769 -0.1403
12932TIP3   OH260210   0.638   3.968   3.716  0.2853 -0.3997 -0.7353
12932TIP3    H160211   0.709   3.979   3.780  1.0316 -4.1546 -0.7164
12932TIP3    H260212   0.559   3.993   3.764  1.2428  1.2982  0.0915
12933TIP3   OH260213   0.889   2.648   2.999  0.1027  0.3134  0.1999
12933TIP3    H160214   0.928   2.567   3.034 -0.3505  0.6043  1.4342
12933TIP3    H260215   0.963   2.694   2.960  0.4248 -0.5583 -0.2578
12934TIP3   OH260216   4.485   5.783   4.395  0.1989  0.2266  0.1055
12934TIP3    H160217   4.394   5.778   4.425  0.8641  1.1301  2.4980
12934TIP3    H260218   4.524   5.700   4.422 -0.0297 -0.4543 -1.5357
12935TIP3   OH260219   5.051   3.968   1.891  0.3905  0.4489 -0.2495
12935TIP3    H160220   4.986   4.021   1.938  0.3301 -0.7710  1.1231
12935TIP3    H260221   4.998   3.906   1.840  0.3209 -1.8737  2.3867
12936TIP3   OH260222   3.247   0.133   4.566 -0.1834  0.8135  0.3256
12936TIP3    H160223   3.166   0.181   4.581 -0.9727 -0.7604  1.4169
12936TIP3    H260224   3.232   0.047   4.606  1.0091 -0.4874 -1.8086
12937TIP3   OH260225   0.212   6.711  17.171 -0.2845  0.2080  0.0910
12937TIP3    H160226   0.295   6.734  17.213  0.0773  1.7973 -1.3899
12937TIP3    H260227   0.230   6.714  17.078 -1.8780 -0.0122 -0.2636
12938TIP3   OH260228   4.331   0.084   5.524  0.3370 -0.2103  0.3455
12938TIP3    H160229   4.363   0.076   5.614  0.0695  0.3558  0.5009
12938TIP3    H260230   4.374   0.162   5.490  3.1840 -2.2914 -1.2367
12939TIP3   OH260231   5.604   2.333   0.145  0.2579  0.0670 -0.3734
12939TIP3    H160232   5.683   2.356   0.195  1.0029 -2.3793 -0.3042
12939TIP3    H260233   5.535   2.325   0.210  0.4385  0.1454 -0.1727
12940TIP3   OH260234   0.034   3.940   2.566  0.2036  0.2321  0.1898
12940TIP3    H160235  -0.001   3.853   2.582 -0.9160  0.6326 -0.0062
12940TIP3    H260236   0.121   3.924   2.530 -0.1890 -0.8194 -0.3466
12941TIP3   OH260237   0.112   6.584  16.110 -0.4113 -0.0437 -0.8045
12941TIP3    H160238   0.193   6.624  16.076 -0.5443  1.5301  0.6039
12941TIP3    H260239   0.042   6.627  16.060 -0.5317  1.3257  0.4533
12942TIP3   OH260240   2.977   2.666   4.394 -1.1578  0.1647  0.5988
12942TIP3    H160241   3.052   2.692   4.341 -2.0373 -0.6199 -1.0769
12942TIP3    H260242   2.948   2.748   4.435 -1.0008  0.9786 -0.8357
12943TIP3   OH260243   1.467   6.179  16.220  0.2418  0.3656  0.8698
12943TIP3    H160244   1.483   6.093  16.261  1.0695  1.0688  2.0850
12943TIP3    H260245   1.536   6.185  16.153  1.0676  0.6449  1.7199
12944TIP3   OH260246   0.223   3.186   2.301  0.3565 -0.0474  0.1959
12944TIP3    H160247   0.202   3.157   2.213  1.5319  2.3424 -0.9939
12944TIP3    H260248   0.174   3.268   2.312  0.7552  0.0506  1.4794
12945TIP3   OH260249   1.687   0.610   3.704  0.1220  0.1611 -0.1210
12945TIP3    H160250   1.675   0.518   3.681 -1.4832 -0.2842  2.1103
12945TIP3    H260251   1.605   0.653   3.677  0.2986  0.6413  0.0938
12946TIP3   OH260252   3.185   2.654   6.165 -0.3628  0.3629  0.4913
12946TIP3    H160253   3.201   2.573   6.213 -1.1315  0.1685  0.4401
12946TIP3    H260254   3.141   2.711   6.228  0.0341  0.6809  0.4801
12947TIP3   OH260255   0.894   5.338   5.721  0.5278  0.5116 -0.2411
12947TIP3    H160256   0.970   5.396   5.732  0.9421 -0.2381  1.1594
12947TIP3    H260257   0.886   5.294   5.806 -0.3943 -0.7272 -0.9471
12948TIP3   OH260258   1.218   1.484  13.545  1.2844 -0.6239 -0.2588
12948TIP3    H160259   1.265   1.477  13.462  2.0023 -0.1301  0.0976
12948TIP3    H260260   1.285   1.507  13.609  0.8783 -1.8343  0.6222
12949TIP3   OH260261   2.782   3.727  14.665 -0.4615  0.0510  0.3150
12949TIP3    H160262   2.820   3.651  14.708 -1.8774  0.0091  1.5549
12949TIP3    H260263   2.854   3.790  14.660  0.6130 -1.1888 -0.3515
12950TIP3   OH260264   4.754   6.576   6.350  0.2889 -0.1460 -0.1853
12950TIP3    H160265   4.691   6.539   6.412  0.9531  0.7804  1.0950
12950TIP3    H260266   4.705   6.644   6.304  0.3652  0.7189  0.9561
12951TIP3   OH260267   0.114   1.960  13.146  0.4480 -0.1196  0.0945
12951TIP3    H160268   0.067   1.887  13.106 -0.9219  1.3401 -1.1665
12951TIP3    H260269   0.118   1.939  13.239  0.3626 -1.9028 -0.2746
12952TIP3   OH260270   0.064   4.589  12.518 -0.4083  0.3424  0.5350
12952TIP3    H160271  -0.022   4.577  12.477 -0.3757  0.6813  0.3598
12952TIP3    H260272   0.123   4.531  12.470 -0.3215  0.9135 -0.0642
12953TIP3   OH260273   6.506   4.713   1.721  0.0949  0.1303 -0.1305
12953TIP3    H160274   6.552   4.795   1.702  1.7736 -0.5332  0.8092
12953TIP3    H260275   6.449   4.699   1.646 -0.9510  2.6187  0.0928
12954TIP3   OH260276   1.041   6.671  16.055  0.3423 -0.4173 -0.0500
12954TIP3    H160277   1.076   6.586  16.081  1.8446  0.5114  1.1069
12954TIP3    H260278   0.994   6.703  16.133  0.5121  0.1862 -0.1919
12955TIP3   OH260279   5.578   3.724  12.085 -0.1622  0.1313 -0.1078
12955TIP3    H160280   5.482   3.718  12.088 -0.2511  1.3113 -0.2141
12955TIP3    H260281   5.597   3.759  11.999  0.2440  1.7279  0.6100
12956TIP3   OH260282   3.550   3.672   2.091  0.0947 -0.1494 -0.3572
12956TIP3    H160283   3.615   3.726   2.045 -2.8044  2.2844 -1.9803
12956TIP3    H260284   3.517   3.729   2.161 -1.4145 -0.6828 -0.6015
12957TIP3   OH260285   6.782   5.079  12.605  0.6149  0.5971 -0.5551
12957TIP3    H160286   6.754   4.992  12.635 -2.8034  2.2509  1.8273
12957TIP3    H260287   6.741   5.089  12.519  1.2680 -0.2111 -0.9730
12958TIP3   OH260288   5.556   0.532  13.030 -0.4093 -0.6892 -0.2539
12958TIP3    H160289   5.517   0.458  13.077  0.7077 -1.6370 -0.7497
12958TIP3    H260290   5.550   0.508  12.938  0.1706 -0.2700 -0.4047
12959TIP3   OH260291   0.422   3.797   3.952  0.1883  0.1035  0.2799
12959TIP3    H160292   0.416   3.888   3.923 -0.0959  0.4702  1.4259
12959TIP3    H260293   0.468   3.752   3.881 -1.5831  0.6793 -1.3234
12960TIP3   OH260294   4.149   4.637  14.147  0.4434 -0.3138 -0.0378
12960TIP3    H160295   4.238   4.627  14.182  0.3947  0.8519  0.4639
12960TIP3    H260296   4.102   4.685  14.214 -0.4208 -0.4486 -0.5388
12961TIP3   OH260297   4.425   2.087  11.433  0.4681  0.2986 -0.3488
12961TIP3    H160298   4.509   2.132  11.435  0.6100  0.1776 -1.9306
12961TIP3    H260299   4.448   1.995  11.419  0.0746  0.4100 -1.9160
12962TIP3   OH260300   2.363   5.097   5.720  0.1011 -0.1440  0.5566
12962TIP3    H160301   2.393   5.030   5.659 -1.4757 -1.2938  0.9606
12962TIP3    H260302   2.408   5.076   5.802 -0.1920 -0.5899  0.6125
12963TIP3   OH260303   1.037   6.010  15.360 -0.3838 -0.6850  0.1149
12963TIP3    H160304   0.945   6.022  15.386  0.3036 -0.4321  2.7787
12963TIP3    H260305   1.071   6.099  15.351 -0.2102 -0.7753 -0.1317
12964TIP3   OH260306   3.617   0.801  14.144 -0.2754 -0.2823 -0.0379
12964TIP3    H160307   3.641   0.788  14.052  0.6385 -0.5397  0.2251
12964TIP3    H260308   3.695   0.776  14.192 -0.1366  1.4934  0.7396
12965TIP3   OH260309   4.918   4.772  17.006 -0.7750  0.0223 -0.4115
12965TIP3    H160310   4.894   4.843  16.946 -0.1003  0.8013  0.2210
12965TIP3    H260311   5.008   4.751  16.983  0.0767  1.4700  1.3822
12966TIP3   OH260312   5.469   5.180  14.999 -0.5291  0.2190  0.5151
12966TIP3    H160313   5.501   5.252  15.053  0.7482  1.0055 -1.1831
12966TIP3    H260314   5.415   5.127  15.058 -0.5557  1.9214  2.1014
12967TIP3   OH260315   0.581   3.149  12.258  0.3568 -0.1093  1.0120
12967TIP3    H160316   0.553   3.059  12.274 -0.5954 -0.3308 -1.5075
12967TIP3    H260317   0.650   3.143  12.192 -0.4897  1.0353 -0.0324
12968TIP3   OH260318   1.553   0.452  11.868 -0.1608  0.1241 -0.0804
12968TIP3    H160319   1.646   0.470  11.855 -0.3947 -0.4953 -3.5700
12968TIP3    H260320   1.550   0.371  11.918  1.1896 -0.1609 -0.4384
12969TIP3   OH260321   4.866   5.003   0.740  0.0198 -0.0834  0.5174
12969TIP3    H160322   4.874   5.079   0.797 -0.3314  0.0665  0.3690
12969TIP3    H260323   4.885   5.037   0.652  0.7690 -0.3557  0.5685
12970TIP3   OH260324   0.693   2.665  11.798 -0.4068  0.2011 -0.9673
12970TIP3    H160325   0.679   2.704  11.884 -1.5871 -1.2260 -0.4587
12970TIP3    H260326   0.769   2.712  11.762 -1.3442  2.4421 -0.1741
12971TIP3   OH260327   1.836   0.385   5.437  0.1487 -0.6934  0.5419
12971TIP3    H160328   1.821   0.306   5.385  1.2145 -0.1792 -0.5972
12971TIP3    H260329   1.931   0.389   5.448  0.0485  0.0467  1.2083
12972TIP3   OH260330   1.210   4.909   0.500  0.1583  0.5011 -0.1093
12972TIP3    H160331   1.300   4.906   0.531 -0.2131 -2.1413  0.9135
12972TIP3    H260332   1.204   4.839   0.435 -0.8720  1.4384 -1.0699
12973TIP3   OH260333   0.873   4.319  14.110 -0.1643  0.0025  0.0511
12973TIP3    H160334   0.931   4.267  14.166 -1.0612 -2.2857 -1.0115
12973TIP3    H260335   0.827   4.377  14.171  0.7488 -0.5798  1.3445
12974TIP3   OH260336   4.674   5.001  11.259 -0.2050  0.4558 -0.0728
12974TIP3    H160337   4.599   5.018  11.202  0.1452 -0.4305 -0.8111
12974TIP3    H260338   4.715   4.923  11.223 -0.2071 -0.3874  1.6358
12975TIP3   OH260339   6.128   0.196  12.637  0.0870 -0.4442  0.1250
12975TIP3    H160340   6.221   0.201  12.661  0.1798  0.4742 -0.3804
12975TIP3    H260341   6.107   0.103  12.644  1.3426 -0.8346 -0.7901
12976TIP3   OH260342   0.505   4.324  11.265  0.1619 -0.3775 -0.0452
12976TIP3    H160343   0.494   4.289  11.176 -0.8736  0.4394 -0.2539
12976TIP3    H260344   0.600   4.318  11.281  0.4422 -0.0462 -1.4190
12977TIP3   OH260345   1.944   0.715  15.877 -0.2112 -0.3778  0.0665
12977TIP3    H160346   2.037   0.696  15.866 -0.7223 -1.6595 -3.0147
12977TIP3    H260347   1.904   0.631  15.897 -0.7051  0.2724  2.0440
12978TIP3   OH260348   6.041   6.269  14.089  0.4679 -0.0380 -0.5478
12978TIP3    H160349   6.054   6.201  14.156  1.5357 -0.5391 -1.2444
12978TIP3    H260350   6.083   6.234  14.011  1.6379  1.7198 -0.7523
12979TIP3   OH260351   4.427   6.346  11.781 -0.2511  0.1867 -0.4707
12979TIP3    H160352   4.468   6.350  11.695  1.9993  0.4242  0.5462
12979TIP3    H260353   4.487   6.395  11.838 -1.5694 -0.1410  1.2737
12980TIP3   OH260354   3.964   6.335  11.734  0.5114  0.1598  0.1225
12980TIP3    H160355   3.973   6.378  11.819 -1.5933  2.0966 -0.5543
12980TIP3    H260356   3.969   6.406  11.671 -0.1798 -0.9687 -1.2471
12981TIP3   OH260357   3.610   4.933  16.199 -0.3933  0.3387 -0.2747
12981TIP3    H160358   3.588   4.844  16.175  1.0670 -0.0765 -0.1756
12981TIP3    H260359   3.549   4.988  16.149 -1.7912 -0.7093  0.2210
12982TIP3   OH260360   1.364   4.638  15.145 -0.5390 -0.0618  0.0446
12982TIP3    H160361   1.304   4.698  15.100 -0.4070  0.6993  0.8622
12982TIP3    H260362   1.450   4.660  15.110 -0.9115 -3.3911 -3.6876
12983TIP3   OH260363   0.777   1.325   4.395 -0.1660  0.3414  0.1270
12983TIP3    H160364   0.710   1.351   4.459  0.2512  3.5632 -0.5392
12983TIP3    H260365   0.729   1.281   4.326 -1.1762  0.1336  0.9401
12984TIP3   OH260366   0.704   2.446  13.451 -0.4870  0.2352  0.0535
12984TIP3    H160367   0.706   2.539  13.429  0.0611  0.1097 -0.4550
12984TIP3    H260368   0.731   2.402  13.371 -0.0026 -0.3225  0.5123
12985TIP3   OH260369   1.056   0.566  14.636 -0.1840 -0.3584  0.5503
12985TIP3    H160370   1.091   0.507  14.703 -0.1096 -0.9188  0.0164
12985TIP3    H260371   1.111   0.645  14.643 -0.6323 -0.1220  1.6307
12986TIP3   OH260372   3.545   6.628  11.228 -0.1202  0.1420 -0.6785
12986TIP3    H160373   3.640   6.630  11.242 -0.1600 -0.9984 -0.1186
12986TIP3    H260374   3.513   6.567  11.294 -1.4648  1.8089  0.2966
12987TIP3   OH260375   0.955   4.100  15.150 -0.0007 -0.3808 -0.8192
12987TIP3    H160376   1.050   4.109  15.158 -0.2170  1.2306  0.6272
12987TIP3    H260377   0.935   4.014  15.187  0.8848 -0.6425 -0.9407
12988TIP3   OH260378   1.790   2.631   3.417  0.7156 -0.2419  0.3660
12988TIP3    H160379   1.700   2.627   3.448  0.8254  1.3964  1.0314
12988TIP3    H260380   1.837   2.677   3.487  0.9807  3.6927 -2.0923
12989TIP3   OH260381   0.572   0.466   0.198 -0.0930  0.4894  0.1392
12989TIP3    H160382   0.513   0.431   0.132 -0.9611  1.3573  0.4359
12989TIP3    H260383   0.654   0.418   0.186 -0.1274  0.8547 -1.7686
12990TIP3   OH260384   3.353   6.204   0.935 -0.1875 -0.1913  0.5118
12990TIP3    H160385   3.356   6.280   0.876 -0.9771  0.2935  1.0768
12990TIP3    H260386   3.380   6.130   0.880  0.2315  0.4330 -0.1454
12991TIP3   OH260387   3.162   6.399  12.580  0.2584  0.4477 -0.4067
12991TIP3    H160388   3.222   6.344  12.630  0.2485  0.1922 -0.6726
12991TIP3    H260389   3.215   6.474  12.552  0.6375 -0.0985 -1.2025
12992TIP3   OH260390   2.280   6.304  14.452  0.2130 -0.4353 -1.2407
12992TIP3    H160391   2.309   6.251  14.378 -0.1748  1.7101 -3.0504
12992TIP3    H260392   2.189   6.326  14.431 -0.2849 -0.6804  0.4735
12993TIP3   OH260393   1.554   3.247   1.755  0.5897 -0.4011 -0.0975
12993TIP3    H160394   1.590   3.279   1.672  1.0625 -1.0995 -0.1625
12993TIP3    H260395   1.491   3.180   1.729  0.2286 -0.1361  0.0833
12994TIP3   OH260396   0.625   4.787  17.133  0.5086 -0.3739  0.1456
12994TIP3    H160397   0.586   4.864  17.091  0.3436 -0.9837 -0.8547
12994TIP3    H260398   0.714   4.814  17.154  0.3221  0.2257  0.1899
12995TIP3   OH260399   0.183   5.114   5.646 -0.1645  0.6851  0.4284
12995TIP3    H160400   0.172   5.057   5.722  0.9554 -0.2873 -0.0983
12995TIP3    H260401   0.162   5.201   5.678  0.6468  0.3538  1.9697
12996TIP3   OH260402   2.366   4.518   3.700  0.3713  0.1056  0.1422
12996TIP3    H160403   2.384   4.611   3.684  0.2834  0.3604  1.3624
12996TIP3    H260404   2.416   4.498   3.780  0.4422 -0.9165 -0.1475
12997TIP3   OH260405   0.781   6.642  16.671  0.2745  0.2471  0.0172
12997TIP3    H160406   0.827   6.661  16.752  0.0185  0.3524  0.1381
12997TIP3    H260407   0.817   6.558  16.641  0.7591  0.4776 -0.0489
12998TIP3   OH260408   1.755   4.347   2.810  0.0291  0.0372 -0.0490
12998TIP3    H160409   1.720   4.263   2.778 -1.4391  0.0528  1.3716
12998TIP3    H260410   1.833   4.322   2.859 -0.7678 -0.6286  0.9436
12999TIP3   OH260411   4.961   4.170   3.698  0.3892 -0.2368 -0.1461
12999TIP3    H160412   4.867   4.183   3.713  0.0730 -1.5375 -0.8617
12999TIP3    H260413   4.971   4.076   3.687  1.8887 -0.1831  0.4997
13000TIP3   OH260414   3.691   5.022   5.573 -0.1980  0.3255 -0.4547
13000TIP3    H160415   3.633   5.056   5.641 -0.6088  2.0817 -1.6354
13000TIP3    H260416   3.761   4.979   5.622 -0.1552  2.0527  1.1306
13001TIP3   OH260417   4.764   4.025   5.497 -0.6716 -0.0706 -0.0144
13001TIP3    H160418   4.792   3.950   5.444 -0.9893 -0.7251  0.7276
13001TIP3    H260419   4.839   4.045   5.552 -0.9191 -0.4898  0.4898
13002TIP3   OH260420   3.010   6.417  12.897  0.0417 -0.0232  0.3691
13002TIP3    H160421   3.009   6.322  12.906 -0.9690 -0.2631 -1.6083
13002TIP3    H260422   3.101   6.442  12.911  0.5670 -1.4496 -0.2982
13003TIP3   OH260423   6.480   2.378   0.920 -0.2240  0.2217  0.3017
13003TIP3    H160424   6.511   2.444   0.859 -2.3577 -0.4133 -1.5969
13003TIP3    H260425   6.513   2.295   0.886  0.6280  0.0544  1.4539
13004TIP3   OH260426   2.438   3.002   0.544 -0.3664  0.2621 -0.1902
13004TIP3    H160427   2.489   2.987   0.624  1.1533 -0.3254 -1.2227
13004TIP3    H260428   2.493   3.061   0.492 -1.3289  0.6227 -0.8255
13005TIP3   OH260429   0.210   0.371  12.911  0.3014  0.0687 -0.0380
13005TIP3    H160430   0.227   0.362  12.817  0.2050 -0.6024  0.0015
13005TIP3    H260431   0.163   0.291  12.934  0.6808  0.0357  0.6609
13006TIP3   OH260432   4.708   2.531   4.773 -0.5875  0.1866  0.0298
13006TIP3    H160433   4.632   2.517   4.829 -0.8458  1.6160  0.0724
13006TIP3    H260434   4.755   2.603   4.814 -0.7218  1.1887 -1.5197
13007TIP3   OH260435   6.187   5.234  13.815 -0.4178  0.1500 -0.4801
13007TIP3    H160436   6.094   5.245  13.833 -0.4651  1.4072 -1.3561
13007TIP3    H260437   6.220   5.323  13.801  1.1379 -0.1697  0.7940
13008TIP3   OH260438   4.138   2.697  13.021  0.2852  0.0857  0.2359
13008TIP3    H160439   4.120   2.750  13.098  2.1243 -0.7467  1.3216
13008TIP3    H260440   4.058   2.648  13.005 -1.1157  2.3768 -0.1959
13009TIP3   OH260441   1.873   5.684  15.986 -0.2803  0.0360  0.2690
13009TIP3    H160442   1.910   5.767  15.958 -0.2749 -0.5343 -1.5360
13009TIP3    H260443   1.840   5.701  16.074  2.7170  1.0210  1.3126
13010TIP3   OH260444   2.548   2.378   5.505 -0.0754  0.3412 -0.2196
13010TIP3    H160445   2.571   2.407   5.594 -0.2459 -0.6366  0.1566
13010TIP3    H260446   2.564   2.455   5.450  0.0635  0.9544  0.6514
13011TIP3   OH260447   3.238   4.358   5.062 -0.5678 -0.6226 -0.0329
13011TIP3    H160448   3.222   4.274   5.105 -2.4302 -1.3355 -1.9412
13011TIP3    H260449   3.233   4.422   5.133 -3.4638 -1.7184  0.9107
13012TIP3   OH260450   4.477   3.303  15.160  0.0046 -0.0179 -0.0033
13012TIP3    H160451   4.388   3.285  15.190  0.4733 -1.1414  0.7574
13012TIP3    H260452   4.531   3.235  15.199  1.2118  0.6163 -0.4825
13013TIP3   OH260453   2.427   6.738  15.419  0.2731  0.2370 -0.1349
13013TIP3    H160454   2.343   6.768  15.385  0.1798  2.1157  1.5413
13013TIP3    H260455   2.423   6.643  15.416 -0.3180  0.2683 -3.7351
13014TIP3   OH260456   1.977   0.758   0.374 -0.1400  0.3313  0.0176
13014TIP3    H160457   1.892   0.802   0.374 -0.6858 -0.5771 -2.3352
13014TIP3    H260458   1.982   0.715   0.289  2.8223  0.5562 -0.0298
13015TIP3   OH260459   6.730   1.173  12.727 -0.6186 -0.8303 -0.2449
13015TIP3    H160460   6.675   1.102  12.692 -0.1875 -1.1895 -0.1948
13015TIP3    H260461   6.738   1.153  12.820 -2.1206  0.3560  0.1855
13016TIP3   OH260462   0.479   1.646  10.913  0.5173  0.3074  0.4304
13016TIP3    H160463   0.526   1.723  10.944  1.1346  0.3461 -0.5669
13016TIP3    H260464   0.536   1.608  10.846 -0.4575 -0.1763 -0.1472
13017TIP3   OH260465   3.201   0.274  15.496 -0.0315  0.1399  0.3514
13017TIP3    H160466   3.269   0.340  15.480 -0.6986  0.7678  0.0581
13017TIP3    H260467   3.120   0.316  15.469 -0.4122 -0.9858 -0.3432
13018TIP3   OH260468   6.013   1.797  12.008 -0.0835  0.4427 -0.5041
13018TIP3    H160469   5.973   1.775  12.092  0.0623 -0.6384 -0.7102
13018TIP3    H260470   6.101   1.828  12.030 -0.0667  0.2202 -0.2537
13019TIP3   OH260471   5.150   5.466   3.406  0.3942 -0.2583 -0.6823
13019TIP3    H160472   5.080   5.493   3.465  1.9874  1.5010  0.5089
13019TIP3    H260473   5.141   5.523   3.330  0.5441 -0.0288 -0.5272
13020TIP3   OH260474   2.236   3.072  12.910  0.9457  0.6821  0.5192
13020TIP3    H160475   2.175   3.068  12.983  0.8718  0.6107  0.4526
13020TIP3    H260476   2.256   2.980  12.891 -0.7413  0.5824 -0.9894
13021TIP3   OH260477   5.226   4.031   4.437  0.3897  0.4510 -0.0758
13021TIP3    H160478   5.181   3.975   4.373  0.3079 -0.3537  0.6636
13021TIP3    H260479   5.304   4.062   4.391 -0.4265  1.1201 -1.0669
13022TIP3   OH260480   1.631   2.674   4.730 -0.5842  0.5118  0.4287
13022TIP3    H160481   1.672   2.745   4.779  0.4440  0.7048 -0.6858
13022TIP3    H260482   1.540   2.674   4.760 -0.2694  1.3991  1.4457
13023TIP3   OH260483   2.720   1.305   0.632 -0.2148  0.3386 -0.1434
13023TIP3    H160484   2.655   1.236   0.615 -1.3864  1.4158 -0.1366
13023TIP3    H260485   2.790   1.287   0.569  0.2674 -1.7686  0.8708
13024TIP3   OH260486   1.160   5.634  12.867  0.5008 -0.3649  0.1759
13024TIP3    H160487   1.228   5.568  12.884  1.8197  1.1348  0.9142
13024TIP3    H260488   1.201   5.717  12.887 -0.9935  0.7609 -1.1777
13025TIP3   OH260489   6.598   4.495   1.071 -0.2268 -0.4373  0.3577
13025TIP3    H160490   6.597   4.578   1.118  3.2653  0.0389 -0.1069
13025TIP3    H260491   6.581   4.518   0.980  1.1029 -0.1024  0.1686
13026TIP3   OH260492   6.247   3.597  15.625  0.2647  0.2131  0.1150
13026TIP3    H160493   6.321   3.540  15.643  0.3990  0.0847 -0.7882
13026TIP3    H260494   6.285   3.674  15.583 -0.1929 -0.3517 -1.4280
13027TIP3   OH260495   4.694   4.217  12.880  0.5451  0.3982 -0.7313
13027TIP3    H160496   4.603   4.198  12.902  0.5698 -0.7382 -1.5044
13027TIP3    H260497   4.693   4.303  12.840 -0.0313  0.8382  0.1991
13028TIP3   OH260498   3.985   4.729  12.796 -0.2616 -0.4339 -0.0185
13028TIP3    H160499   3.921   4.664  12.768 -0.7427 -0.0530  0.1941
13028TIP3    H260500   4.045   4.680  12.853 -0.5310 -0.7259  0.0164
13029TIP3   OH260501   3.772   4.784  12.366  0.5463 -0.6359  0.4212
13029TIP3    H160502   3.764   4.794  12.461  0.5923  0.2758  0.3312
13029TIP3    H260503   3.865   4.796  12.349  0.5333 -0.7754  0.2523
13030TIP3   OH260504   5.277   4.157  15.781  0.1844  0.4455  0.5682
13030TIP3    H160505   5.296   4.088  15.845 -0.6742 -1.4788 -1.1461
13030TIP3    H260506   5.331   4.135  15.705 -1.6683  0.3975 -0.7874
13031TIP3   OH260507   3.762   2.435   1.644  0.3082  0.0780 -0.0224
13031TIP3    H160508   3.768   2.507   1.706 -0.4618 -0.4752  0.7201
13031TIP3    H260509   3.668   2.417   1.636  0.5291 -1.8681  1.0477
13032TIP3   OH260510   5.022   0.041   2.583 -0.1486 -0.7481 -0.1546
13032TIP3    H160511   5.113   0.033   2.554  0.2769 -0.0675  0.9364
13032TIP3    H260512   5.024   0.021   2.677 -0.9289  0.4021  0.1332
13033TIP3   OH260513   4.166   6.131   4.007  0.1063  0.5869 -0.0684
13033TIP3    H160514   4.153   6.210   3.955 -0.2899  0.4685 -0.1555
13033TIP3    H260515   4.087   6.123   4.060  0.5144  0.7152  0.5737
13034TIP3   OH260516   3.163   2.792  14.450  0.4311  0.4618  0.0053
13034TIP3    H160517   3.143   2.859  14.515  1.0724  0.0198  0.6644
13034TIP3    H260518   3.235   2.828  14.399  0.0352  0.7393 -0.3670
13035TIP3   OH260519   4.631   1.342   2.606  0.1180 -0.2137  0.3446
13035TIP3    H160520   4.579   1.406   2.556  0.7247 -1.2720 -1.7564
13035TIP3    H260521   4.683   1.396   2.666 -0.5361  1.1546 -0.2620
13036TIP3   OH260522   3.256   4.088   2.235 -0.2029 -0.6202 -0.2561
13036TIP3    H160523   3.227   4.063   2.147 -0.7949 -0.6178 -0.0678
13036TIP3    H260524   3.177   4.079   2.289 -0.6395  2.2492 -0.2833
13037TIP3   OH260525   0.900   1.906   5.077 -0.0646  0.1440  0.4306
13037TIP3    H160526   0.981   1.860   5.098 -0.2483 -0.1046  0.5988
13037TIP3    H260527   0.835   1.837   5.064 -0.0372  0.3046 -0.6274
13038TIP3   OH260528   2.669   0.664  13.933 -0.3218 -0.4821  0.1294
13038TIP3    H160529   2.706   0.748  13.906 -3.9847  0.8288 -1.5732
13038TIP3    H260530   2.617   0.685  14.011 -1.4187 -1.1014 -0.4185
13039TIP3   OH260531   0.761   1.544   1.568 -0.4643  0.2343 -0.1724
13039TIP3    H160532   0.805   1.609   1.623 -0.1312 -0.8974  0.9194
13039TIP3    H260533   0.758   1.586   1.482  0.0679  1.5549  0.4118
13040TIP3   OH260534   3.560   0.377   0.121 -0.3449  0.6225  0.7452
13040TIP3    H160535   3.560   0.426   0.038  1.6853  0.2653  0.4876
13040TIP3    H260536   3.627   0.310   0.109 -2.2043 -1.4745  1.5524
13041TIP3   OH260537   3.640   3.761   6.110 -0.5312 -0.2025  0.2396
13041TIP3    H160538   3.632   3.705   6.187 -1.4752  0.6667  0.8008
13041TIP3    H260539   3.670   3.845   6.145  0.5809 -0.2491 -0.5548
13042TIP3   OH260540   4.419   4.469  16.990  0.3784  0.0804 -0.0229
13042TIP3    H160541   4.351   4.536  16.984  0.8600  0.7792  1.7374
13042TIP3    H260542   4.494   4.514  17.027 -0.0164 -1.8292  3.5299
13043TIP3   OH260543   0.488   2.315   2.387 -0.0786 -0.2180  0.2785
13043TIP3    H160544   0.529   2.233   2.359  1.8502  0.6250  0.4887
13043TIP3    H260545   0.518   2.327   2.477 -0.7226  0.4874  0.4072
13044TIP3   OH260546   3.512   1.242   1.746  0.0686 -0.3789  0.1115
13044TIP3    H160547   3.438   1.183   1.728  0.5061 -0.7730 -0.4240
13044TIP3    H260548   3.581   1.213   1.687  1.4928 -1.5387  2.2617
13045TIP3   OH260549   2.937   3.500  15.082 -0.8098  0.2437 -0.3133
13045TIP3    H160550   2.958   3.408  15.099  0.9212  0.5027 -0.8268
13045TIP3    H260551   2.850   3.512  15.119 -1.2664 -1.7185 -0.6379
13046TIP3   OH260552   5.793   2.566  14.153 -0.0421  0.2921 -0.2499
13046TIP3    H160553   5.734   2.503  14.194  2.5072 -2.5891 -0.6598
13046TIP3    H260554   5.811   2.531  14.066  1.6872  1.4358 -0.4199
13047TIP3   OH260555   2.512   6.304  13.237  0.0231 -0.5951 -0.2157
13047TIP3    H160556   2.453   6.232  13.213 -0.9342  0.3127 -0.6443
13047TIP3    H260557   2.502   6.367  13.166 -1.0911  1.1054  1.3675
13048TIP3   OH260558   1.568   4.290  16.130 -0.0513 -0.0910  0.1547
13048TIP3    H160559   1.493   4.343  16.106  0.5699  0.6669 -0.1597
13048TIP3    H260560   1.542   4.200  16.110 -0.2675  0.3192 -1.5499
13049TIP3   OH260561   2.575   4.926  13.649 -0.1071 -0.3598  0.1812
13049TIP3    H160562   2.594   4.995  13.586  0.1385  0.0819  0.7310
13049TIP3    H260563   2.639   4.857  13.629 -0.6302 -0.6061 -0.6400
13050TIP3   OH260564   5.769   3.707  12.285 -0.8034 -0.4365 -0.0785
13050TIP3    H160565   5.794   3.615  12.278  1.1397  0.1043 -0.9964
13050TIP3    H260566   5.696   3.717  12.223  0.5130 -0.9141 -1.7901
13051TIP3   OH260567   0.800   5.958  16.835 -0.2211 -1.1252 -0.3752
13051TIP3    H160568   0.713   5.952  16.874  0.1810  0.9443  0.9492
13051TIP3    H260569   0.785   5.998  16.749 -0.6323 -1.5380 -0.5030
13052TIP3   OH260570   0.788   1.384  14.027  0.4789 -0.3445  0.3385
13052TIP3    H160571   0.747   1.310  14.073  0.0783  0.1810  0.8364
13052TIP3    H260572   0.823   1.345  13.947 -1.1493 -0.7908 -0.1892
13053TIP3   OH260573   0.249   5.825  16.711 -0.2357 -0.2854  0.3344
13053TIP3    H160574   0.161   5.798  16.684 -0.3425 -0.4565  0.8316
13053TIP3    H260575   0.289   5.746  16.746 -0.0608 -0.0992  0.5590
13054TIP3   OH260576   5.136   1.465   4.301 -0.4239 -0.3524 -0.4716
13054TIP3    H160577   5.126   1.412   4.380  0.9175  0.0057 -0.0462
13054TIP3    H260578   5.117   1.405   4.229 -0.7467 -0.9143  0.0758
13055TIP3   OH260579   5.683   3.898   2.333 -0.4445 -0.4839 -0.3363
13055TIP3    H160580   5.675   3.841   2.410 -0.9989  0.9740  0.7243
13055TIP3    H260581   5.766   3.944   2.346 -0.2942 -0.5989 -0.8752
13056TIP3   OH260582   3.730   6.679   0.763 -0.3861  0.4329 -0.0877
13056TIP3    H160583   3.821   6.679   0.735 -0.4234  1.1271 -0.2367
13056TIP3    H260584   3.680   6.669   0.681 -0.5000  2.5787 -0.3512
13057TIP3   OH260585   5.570   2.577  15.982 -0.8590 -0.9106 -0.2323
13057TIP3    H160586   5.518   2.522  15.923 -0.6632  0.0527 -1.3271
13057TIP3    H260587   5.639   2.613  15.927  0.2547 -1.1980  0.9358
13058TIP3   OH260588   3.577   5.220   0.131  0.4420 -0.2476  0.0157
13058TIP3    H160589   3.573   5.309   0.168 -0.3269 -1.4329  3.1364
13058TIP3    H260590   3.641   5.226   0.060 -1.2457  3.2438 -1.4565
13059TIP3   OH260591   3.264   0.795   3.666 -0.1896 -0.4114 -0.1710
13059TIP3    H160592   3.173   0.769   3.655 -0.6190  0.3880  1.2527
13059TIP3    H260593   3.265   0.887   3.641  0.1499 -0.3238  0.1590
13060TIP3   OH260594   3.122   2.049  12.074 -0.5633 -0.0159  0.3294
13060TIP3    H160595   3.089   1.965  12.104  2.0129 -1.1687  0.2270
13060TIP3    H260596   3.151   2.094  12.153  0.2752 -0.2859  0.1881
13061TIP3   OH260597   4.041   1.691  16.752 -0.0201 -0.0773 -0.0866
13061TIP3    H160598   4.036   1.632  16.676 -0.7570 -2.0085  1.3658
13061TIP3    H260599   3.950   1.702  16.779  0.3047 -0.2034  1.0892
13062TIP3   OH260600   3.255   1.968  15.985  0.2058  0.3745  0.1424
13062TIP3    H160601   3.286   1.990  15.897 -1.3368 -1.1610 -0.8429
13062TIP3    H260602   3.299   1.885  16.006  0.0933  0.4174  0.5609
13063TIP3   OH260603   6.619   1.265   5.641  0.6952 -0.1929  0.4247
13063TIP3    H160604   6.692   1.326   5.640  1.1337 -0.7136  0.5835
13063TIP3    H260605   6.651   1.187   5.597 -0.0236 -0.1362 -0.2227
13064TIP3   OH260606   4.127   1.581   5.967 -0.0145 -0.3880  0.4162
13064TIP3    H160607   4.062   1.511   5.965 -0.7927  0.2953  0.8718
13064TIP3    H260608   4.211   1.537   5.956 -0.4752 -1.4082  0.8744
13065TIP3   OH260609   5.501   3.904   4.615  0.6077 -0.3892  0.2379
13065TIP3    H160610   5.591   3.931   4.595 -0.0291  0.5171 -1.6780
13065TIP3    H260611   5.473   3.963   4.685  1.0941  0.1910 -0.0467
13066TIP3   OH260612   0.135   1.699   1.463 -0.5668  0.4083 -0.5675
13066TIP3    H160613   0.140   1.743   1.378 -1.6502  1.1566 -0.2572
13066TIP3    H260614   0.146   1.606   1.442 -0.2767  0.6316 -1.4566
13067TIP3   OH260615   5.618   3.175  16.129  0.5861 -0.5437  0.0066
13067TIP3    H160616   5.613   3.124  16.048  0.5545  0.0880 -0.3959
13067TIP3    H260617   5.656   3.259  16.102 -1.1008  0.3707  0.2809
13068TIP3   OH260618   1.162   3.370  11.183  0.0010  0.4917 -0.0647
13068TIP3    H160619   1.098   3.358  11.114 -0.1925  0.8727  0.0486
13068TIP3    H260620   1.115   3.349  11.264 -0.5145  2.5167  0.1993
13069TIP3   OH260621   3.904   1.424  12.610  0.4030  0.4315  0.3633
13069TIP3    H160622   3.934   1.357  12.549 -1.5333  0.3788 -0.6114
13069TIP3    H260623   3.823   1.389  12.647  0.0089  1.7089  0.7586
13070TIP3   OH260624   3.895   3.972  12.504  0.1297  0.0961 -0.4918
13070TIP3    H160625   3.846   3.903  12.549  0.4294 -0.3554 -0.8461
13070TIP3    H260626   3.915   4.036  12.573 -0.1641 -0.1618 -0.1623
13071TIP3   OH260627   2.752   1.272  12.797 -0.2195 -0.2423 -0.0651
13071TIP3    H160628   2.733   1.218  12.721 -0.6849 -1.2032  0.7121
13071TIP3    H260629   2.765   1.209  12.869  1.9352  0.5187  0.3139
13072TIP3   OH260630   5.869   6.028  11.569  0.0104  0.2767 -0.0645
13072TIP3    H160631   5.917   6.107  11.543 -0.5337  0.4525 -0.5551
13072TIP3    H260632   5.821   6.002  11.491 -0.5398 -0.0073  0.3544
13073TIP3   OH260633   0.830   4.223  10.385  0.3525  0.0738 -0.2259
13073TIP3    H160634   0.800   4.155  10.325 -2.7959  0.5229  0.6726
13073TIP3    H260635   0.876   4.175  10.454 -0.5242 -1.0157 -0.3705
13074TIP3   OH260636   6.711   4.739   2.472  0.8620 -0.1445  0.5145
13074TIP3    H160637   6.723   4.667   2.410  2.0921 -0.3568  0.9644
13074TIP3    H260638   6.617   4.757   2.471  0.1984 -3.0092  1.7880
13075TIP3   OH260639   2.861   6.256  14.523 -0.1558 -0.3905 -0.1101
13075TIP3    H160640   2.825   6.191  14.463  1.7593 -0.4897 -1.2415
13075TIP3    H260641   2.956   6.243  14.518  0.1139  0.1290  2.3685
13076TIP3   OH260642   2.720   5.375   6.595 -0.2183 -0.3714  0.0341
13076TIP3    H160643   2.700   5.436   6.524  0.0387  0.8734  0.9838
13076TIP3    H260644   2.815   5.377   6.603 -0.2495 -0.3951  0.4747
13077TIP3   OH260645   0.903   5.389   1.684  0.5251 -0.1318 -0.4843
13077TIP3    H160646   0.905   5.296   1.660  2.0436 -0.2490 -0.0297
13077TIP3    H260647   0.858   5.391   1.769  1.3807 -0.5929 -0.0059
13078TIP3   OH260648   0.093   0.395  14.757 -0.6363  0.3587 -0.3661
13078TIP3    H160649   0.156   0.465  14.739 -0.3298  0.2920  0.4354
13078TIP3    H260650   0.012   0.441  14.778 -0.1381  0.5222  1.3096
13079TIP3   OH260651   2.554   6.578   5.395  0.2319  0.5411 -0.2428
13079TIP3    H160652   2.611   6.574   5.318 -0.5629  0.6374 -0.8535
13079TIP3    H260653   2.478   6.524   5.371 -0.7181  1.7933 -0.1243
13080TIP3   OH260654   3.495   2.234  11.829 -0.1298 -0.1231  0.1199
13080TIP3    H160655   3.568   2.192  11.875 -0.9503 -1.2272  0.4573
13080TIP3    H260656   3.490   2.322  11.868  1.4905  0.2601 -0.4586
13081TIP3   OH260657   4.052   5.146   0.670  0.6436 -0.3570  0.1787
13081TIP3    H160658   4.012   5.063   0.642  0.7132 -0.0534 -0.8646
13081TIP3    H260659   4.020   5.210   0.607 -1.3636  0.9252  2.3506
13082TIP3   OH260660   0.064   4.197  12.843 -0.0887  0.9370 -0.2229
13082TIP3    H160661   0.127   4.221  12.911 -0.6546 -1.0475  1.0599
13082TIP3    H260662   0.111   4.215  12.761  0.9704  2.4216  0.6469
13083TIP3   OH260663   4.839   3.815  15.265  0.1187  0.3530 -0.2203
13083TIP3    H160664   4.846   3.910  15.255 -1.9520  0.5383 -0.1967
13083TIP3    H260665   4.756   3.802  15.311  0.6467 -1.4514  0.2829
13084TIP3   OH260666   4.148   3.725   1.160 -0.4099  0.3009 -0.2203
13084TIP3    H160667   4.232   3.745   1.201  0.1689 -2.3819  0.0939
13084TIP3    H260668   4.096   3.804   1.171  1.7202  1.6734  0.4829
13085TIP3   OH260669   4.766   5.680   1.992 -0.3957 -0.1900 -0.6894
13085TIP3    H160670   4.845   5.708   1.945  0.1030  1.2905  0.9203
13085TIP3    H260671   4.795   5.665   2.081 -1.4098 -2.5171 -0.6815
13086TIP3   OH260672   6.084   6.414   1.809  0.3790  0.3328 -0.3062
13086TIP3    H160673   6.077   6.465   1.728  0.8818 -0.6386 -0.9841
13086TIP3    H260674   6.081   6.322   1.780 -2.3541 -0.1075  1.0148
13087TIP3   OH260675   1.898   4.960  12.329  0.3801  0.5627  0.0992
13087TIP3    H160676   1.944   5.021  12.272  0.1108 -0.5494 -1.3520
13087TIP3    H260677   1.938   4.875  12.312 -1.9939 -0.4081 -1.0817
13088TIP3   OH260678   6.258   0.902   0.231 -0.6386  0.0041  0.3232
13088TIP3    H160679   6.246   0.913   0.137 -1.6928 -0.0681  0.4369
13088TIP3    H260680   6.351   0.880   0.241 -0.7852 -1.2252 -0.7989
13089TIP3   OH260681   5.692   5.338   2.878  0.2914  0.2043 -0.0179
13089TIP3    H160682   5.728   5.284   2.808 -0.2351 -3.0846  2.0195
13089TIP3    H260683   5.598   5.319   2.877 -0.0661  1.8242  0.2539
13090TIP3   OH260684   0.150   5.229  11.831  0.0948  0.0934  0.1667
13090TIP3    H160685   0.103   5.187  11.760  1.0187  0.1237 -0.4793
13090TIP3    H260686   0.142   5.323  11.814 -1.6264  0.2191  1.3870
13091TIP3   OH260687   0.283   0.398  12.652 -0.2331 -0.0176  0.0665
13091TIP3    H160688   0.287   0.446  12.569 -0.2869 -1.2916 -0.7044
13091TIP3    H260689   0.371   0.363  12.664 -1.0825 -3.0371 -1.4856
13092TIP3   OH260690   4.861   2.636  14.833  0.4021 -0.5914  0.0829
13092TIP3    H160691   4.809   2.641  14.913 -0.1504 -0.3976 -0.2821
13092TIP3    H260692   4.909   2.719  14.830  0.5110 -0.6465  0.2667
13093TIP3   OH260693   4.730   5.063  17.043  0.1343 -0.2521  0.4562
13093TIP3    H160694   4.641   5.030  17.050  0.0081  0.1970  1.0099
13093TIP3    H260695   4.764   5.024  16.962 -0.4384 -0.7081  0.4320
13094TIP3   OH260696   5.863   5.655  16.040 -0.0289 -0.1719  0.1385
13094TIP3    H160697   5.827   5.738  16.009  0.7035 -0.9238 -3.0895
13094TIP3    H260698   5.895   5.675  16.129 -2.1503  2.2472  0.4920
13095TIP3   OH260699   6.770   3.678  11.624  0.7682  0.1138 -0.4913
13095TIP3    H160700   6.854   3.652  11.585  0.9795  0.0705 -0.0201
13095TIP3    H260701   6.726   3.728  11.555  1.7679  1.3024 -0.3063
13096TIP3   OH260702   2.178   4.339   5.456 -0.0446 -0.1553  0.0502
13096TIP3    H160703   2.117   4.386   5.512 -1.6078  1.3423 -2.6676
13096TIP3    H260704   2.198   4.258   5.503 -1.3328  0.9247  2.6101
13097TIP3   OH260705   1.255   5.974  15.556 -0.4814  0.2345 -0.0196
13097TIP3    H160706   1.313   5.941  15.488  0.2205 -0.3057  0.8197
13097TIP3    H260707   1.174   5.998  15.510 -0.0004 -0.0600 -1.0368
13098TIP3   OH260708   5.977   1.630  15.372 -0.0630  0.0468 -0.2558
13098TIP3    H160709   6.067   1.638  15.403 -0.5510  0.0880  1.2379
13098TIP3    H260710   5.934   1.574  15.437 -1.7337  2.0159  0.4309
13099TIP3   OH260711   2.047   0.559   0.137 -0.6380 -0.1193 -0.2857
13099TIP3    H160712   1.996   0.536   0.059 -0.1563 -0.8870 -0.3870
13099TIP3    H260713   2.065   0.475   0.179 -0.6143  0.2632  0.4844
13100TIP3   OH260714   1.599   3.195  13.726  0.4318 -0.0674  0.2695
13100TIP3    H160715   1.575   3.219  13.636  0.4976  2.0827  0.7769
13100TIP3    H260716   1.560   3.263  13.780 -0.1939 -1.7004  1.9774
13101TIP3   OH260717   2.663   4.854  14.319 -0.6773 -0.3509 -0.5958
13101TIP3    H160718   2.664   4.822  14.229  0.3036 -0.7320 -0.4636
13101TIP3    H260719   2.752   4.836  14.352 -1.0326 -0.2571  0.4570
13102TIP3   OH260720   6.242   5.793   0.718  0.7128 -0.4064 -0.3932
13102TIP3    H160721   6.186   5.718   0.698 -0.6504  0.5875 -0.3876
13102TIP3    H260722   6.197   5.868   0.681  1.2567  0.6358  0.9789
13103TIP3   OH260723   5.006   6.220   4.950 -0.1464  0.0338 -0.7694
13103TIP3    H160724   5.018   6.155   4.880  2.5331  0.4929 -0.8601
13103TIP3    H260725   5.085   6.275   4.945  1.0745 -0.9103  3.6066
13104TIP3   OH260726   5.491   3.577   3.490 -0.4959  0.8389 -0.3149
13104TIP3    H160727   5.532   3.663   3.501 -1.6689  1.2474  1.0985
13104TIP3    H260728   5.565   3.518   3.473  0.4612  1.9048  0.0117
13105TIP3   OH260729   3.826   3.896   5.414  0.0602 -0.2163 -0.0892
13105TIP3    H160730   3.833   3.860   5.503 -1.9582  0.7044  0.4925
13105TIP3    H260731   3.838   3.990   5.425 -1.0411  0.0008 -0.6506
13106TIP3   OH260732   5.497   2.772  11.172  0.2004 -0.2082  0.0039
13106TIP3    H160733   5.587   2.749  11.193  0.3990 -0.6207 -1.2279
13106TIP3    H260734   5.449   2.757  11.253  1.2877  0.3586  0.7792
13107TIP3   OH260735   2.196   2.629  17.094  0.4988  0.3706  0.0041
13107TIP3    H160736   2.126   2.616  17.158  0.0012 -0.2993 -0.6587
13107TIP3    H260737   2.167   2.705  17.043 -0.0144 -0.1971 -0.5840
13108TIP3   OH260738   4.869   6.044  12.829  0.2882 -0.8333 -0.4164
13108TIP3    H160739   4.829   6.115  12.878  0.7165 -0.9619  0.1229
13108TIP3    H260740   4.961   6.047  12.852  0.4263 -1.1416 -0.9096
13109TIP3   OH260741   4.430   0.182  12.343  0.2689  0.3070  0.3543
13109TIP3    H160742   4.412   0.239  12.418  0.1929  1.5965 -0.6063
13109TIP3    H260743   4.351   0.188  12.289  1.2884  1.5001 -1.1032
13110TIP3   OH260744   1.177   6.519  13.366  0.0513  0.2271 -0.1024
13110TIP3    H160745   1.115   6.470  13.312 -0.3466 -0.3912  0.8999
13110TIP3    H260746   1.263   6.502  13.326 -0.1536 -0.7942 -0.1221
13111TIP3   OH260747   2.491   1.622  15.599 -0.3349  0.3159 -0.8370
13111TIP3    H160748   2.419   1.683  15.583 -0.3254  0.4705 -0.2843
13111TIP3    H260749   2.478   1.553  15.533 -0.7984  0.5078 -0.9523
13112TIP3   OH260750   3.296   6.669  16.025 -0.0083  0.1876 -0.1724
13112TIP3    H160751   3.350   6.747  16.028 -0.3489  0.4152  0.1233
13112TIP3    H260752   3.292   6.638  16.116 -0.1551  0.0229 -0.2334
13113TIP3   OH260753   3.176   3.579   1.870 -0.3916  0.6160  0.4913
13113TIP3    H160754   3.088   3.540   1.867 -1.0190  1.9852 -1.9538
13113TIP3    H260755   3.160   3.672   1.881  0.7026  0.9645 -0.6369
13114TIP3   OH260756   6.746   6.659   0.716  0.2524 -0.1935  0.2911
13114TIP3    H160757   6.738   6.710   0.797  0.1584 -0.7721  0.6569
13114TIP3    H260758   6.675   6.595   0.721  1.2986 -1.3704  0.6019
13115TIP3   OH260759   0.443   0.981  10.448  0.0758 -0.1218  0.6482
13115TIP3    H160760   0.400   1.007  10.367  0.4126 -0.6618  0.2888
13115TIP3    H260761   0.441   1.060  10.502 -1.1931 -0.0804  0.5755
13116TIP3   OH260762   3.074   1.893   1.239 -0.4685  0.0074 -0.1576
13116TIP3    H160763   3.069   1.981   1.201 -1.8128  0.8516  1.8164
13116TIP3    H260764   3.165   1.867   1.227  0.3580  2.3170  0.5822
13117TIP3   OH260765   3.689   6.719  14.451 -0.2213  0.6175  0.2399
13117TIP3    H160766   3.742   6.793  14.484 -1.1678  0.3330  2.6019
13117TIP3    H260767   3.635   6.757  14.382  0.0751  1.9059  0.6831
13118TIP3   OH260768   6.415   1.514   1.930 -0.3911  0.4095  0.4402
13118TIP3    H160769   6.382   1.430   1.962  0.5929 -0.2158 -0.0836
13118TIP3    H260770   6.340   1.573   1.933 -1.1568 -0.5439  0.6429
13119TIP3   OH260771   1.637   0.880   3.332 -0.7193 -0.3328 -0.0879
13119TIP3    H160772   1.603   0.968   3.316 -2.7439 -0.8751  0.9417
13119TIP3    H260773   1.583   0.823   3.277  0.8097 -0.9621 -1.0372
13120TIP3   OH260774   2.398   1.307  16.247  0.0730  0.2026  0.8681
13120TIP3    H160775   2.316   1.316  16.297 -0.2846  0.3583  0.2578
13120TIP3    H260776   2.443   1.390  16.260 -0.9864  1.0887 -0.7644
13121TIP3   OH260777   3.116   6.369  17.143  0.2667 -0.3595 -0.1569
13121TIP3    H160778   3.101   6.464  17.144 -1.1654 -0.5494  0.9765
13121TIP3    H260779   3.028   6.331  17.150  0.9375 -1.7118  1.8868
13122TIP3   OH260780   3.419   5.734   5.707  0.4720 -0.0941 -0.3046
13122TIP3    H160781   3.386   5.816   5.744 -0.5877 -1.6461  2.4804
13122TIP3    H260782   3.465   5.692   5.780  3.3010 -0.8783 -2.3505
13123TIP3   OH260783   2.059   0.907   1.872 -0.4210  0.2143 -0.2336
13123TIP3    H160784   2.069   0.822   1.829  0.3994 -1.0939  2.2992
13123TIP3    H260785   2.144   0.950   1.860 -0.0182 -0.3622  0.4129
13124TIP3   OH260786   4.000   4.313   2.778  0.3721 -0.3721  0.1332
13124TIP3    H160787   3.971   4.285   2.691 -0.5043  0.1141  0.2551
13124TIP3    H260788   4.095   4.317   2.771  0.3071 -0.1286 -0.8724
13125TIP3   OH260789   4.497   5.300   3.125  0.0652  0.3299  0.4825
13125TIP3    H160790   4.484   5.329   3.035 -0.0928 -0.4095  0.2584
13125TIP3    H260791   4.457   5.368   3.179 -0.9238  0.1961 -0.0538
13126TIP3   OH260792   5.744   2.622   4.773 -0.4339 -0.4483 -0.1407
13126TIP3    H160793   5.670   2.591   4.825 -0.3484 -0.1596  0.1534
13126TIP3    H260794   5.797   2.673   4.834 -1.1436  1.2195 -0.8436
13127TIP3   OH260795   5.710   6.425  17.188 -0.5449 -0.1792 -0.5923
13127TIP3    H160796   5.752   6.344  17.217 -0.0876  0.0807 -0.5196
13127TIP3    H260797   5.714   6.482  17.265 -2.5557 -0.7178 -0.0065
13128TIP3   OH260798   2.192   0.432   4.865  0.3004 -0.0309  0.0532
13128TIP3    H160799   2.177   0.508   4.809 -3.3985  0.6154  1.6662
13128TIP3    H260800   2.228   0.468   4.946 -0.4463 -0.1279  0.4322
13129TIP3   OH260801   5.270   2.097   1.945  0.5675 -0.2879  0.5894
13129TIP3    H160802   5.245   2.070   2.034  0.4181 -2.6621 -0.1078
13129TIP3    H260803   5.352   2.050   1.928  0.3305 -0.2507 -0.7144
13130TIP3   OH260804   0.389   2.743  13.405 -0.1628  0.5274  0.1706
13130TIP3    H160805   0.317   2.799  13.432 -0.9049  0.6784 -1.9633
13130TIP3    H260806   0.406   2.687  13.481 -0.0369  2.9209  2.0148
13131TIP3   OH260807   4.768   5.253   4.310  0.3431 -0.7547 -0.0258
13131TIP3    H160808   4.702   5.268   4.378 -0.8719  1.2916 -1.5408
13131TIP3    H260809   4.724   5.199   4.245  0.0263  0.7541 -1.1233
13132TIP3   OH260810   5.903   4.258   4.881  0.2333  0.9696  0.3578
13132TIP3    H160811   5.985   4.223   4.917  0.3986 -0.3494 -1.2083
13132TIP3    H260812   5.895   4.217   4.796 -0.4595  3.5117 -0.8988
13133TIP3   OH260813   4.813   1.793  12.819  0.0709 -0.0362 -0.1801
13133TIP3    H160814   4.840   1.714  12.773 -2.4887 -0.6511 -0.7827
13133TIP3    H260815   4.833   1.865  12.758 -0.3831 -0.5289 -0.9229
13134TIP3   OH260816   4.255   1.398  16.712  0.1648  0.2533 -0.2937
13134TIP3    H160817   4.320   1.442  16.656  0.0629 -0.3640 -0.9145
13134TIP3    H260818   4.184   1.375  16.652 -0.8472  1.3058  0.4502
13135TIP3   OH260819   2.599   6.376   1.615  0.0318 -0.6455 -0.1987
13135TIP3    H160820   2.565   6.464   1.630 -0.9594 -0.9513 -0.5014
13135TIP3    H260821   2.603   6.337   1.702  0.5279 -0.2776 -0.0596
13136TIP3   OH260822   4.090   1.210   1.163 -0.0761 -0.2355  0.1910
13136TIP3    H160823   4.088   1.159   1.244 -0.2348 -1.0776 -0.3329
13136TIP3    H260824   4.114   1.298   1.191 -0.8537 -0.3376  1.2438
13137TIP3   OH260825   3.439   6.146  15.173 -0.2285  0.2624 -0.2295
13137TIP3    H160826   3.379   6.149  15.098  0.9138  2.0914 -1.1201
13137TIP3    H260827   3.526   6.150  15.135  0.3763  1.4761  1.1917
13138TIP3   OH260828   0.185   2.388   5.316 -0.5165 -0.7040 -0.3122
13138TIP3    H160829   0.162   2.476   5.344  0.3272 -0.5613 -0.0640
13138TIP3    H260830   0.100   2.343   5.308 -0.9631  0.1996 -0.7199
13139TIP3   OH260831   2.513   1.324  13.779  0.1105  0.5763 -0.1133
13139TIP3    H160832   2.464   1.345  13.700 -0.2627 -0.3975 -0.1596
13139TIP3    H260833   2.604   1.317  13.749 -0.4476 -4.8315 -1.7166
13140TIP3   OH260834   4.898   3.059  17.105  0.2027  0.0668  0.1057
13140TIP3    H160835   4.814   3.062  17.150  1.0300  0.4286  1.7323
13140TIP3    H260836   4.960   3.096  17.168  1.5457  0.0469 -1.1379
13141TIP3   OH260837   3.775   0.977  12.635 -0.2968 -0.0390  0.2979
13141TIP3    H160838   3.866   0.961  12.657 -0.2591  0.4373  0.4963
13141TIP3    H260839   3.726   0.946  12.712 -0.1153  2.4028  1.4996
13142TIP3   OH260840   2.487   1.617   1.421 -0.6029 -0.2369  0.1657
13142TIP3    H160841   2.441   1.574   1.493 -2.7493  1.8250  0.1219
13142TIP3    H260842   2.422   1.620   1.350  1.2979 -1.7909 -1.7762
13143TIP3   OH260843   0.580   4.076   2.132 -0.0517  0.2075 -0.5488
13143TIP3    H160844   0.596   4.050   2.042 -0.3915  0.6571 -0.7402
13143TIP3    H260845   0.505   4.136   2.128 -0.3924 -0.1614  0.0883
13144TIP3   OH260846   0.840   6.677   5.626 -0.5710 -1.0539  0.4839
13144TIP3    H160847   0.926   6.696   5.664 -0.1294 -2.6144  0.3226
13144TIP3    H260848   0.794   6.761   5.629  1.3073  0.0733 -0.3940
13145TIP3   OH260849   4.298   6.132  14.410 -0.0141 -0.1039  0.3077
13145TIP3    H160850   4.275   6.197  14.343 -0.8931  1.0507  1.6831
13145TIP3    H260851   4.222   6.130  14.468  1.2450 -0.1072  2.0082
13146TIP3   OH260852   1.951   1.005   4.401  0.3983 -0.2543 -0.3211
13146TIP3    H160853   1.913   0.943   4.339  0.3046 -2.7035  2.0414
13146TIP3    H260854   1.883   1.021   4.465  0.9939  1.0064  0.0266
13147TIP3   OH260855   3.949   0.578  13.924 -0.1949 -0.1859 -0.0498
13147TIP3    H160856   3.897   0.580  14.004 -0.0156 -0.0354  0.0627
13147TIP3    H260857   3.888   0.548  13.856 -0.3488 -0.3007  0.1395
13148TIP3   OH260858   0.824   2.391  14.789  0.1523  0.6272 -0.0017
13148TIP3    H160859   0.878   2.334  14.844  0.0074 -1.0544 -1.4993
13148TIP3    H260860   0.740   2.397  14.836 -0.2040 -1.3319 -0.2927
13149TIP3   OH260861   0.696   6.381   6.078 -0.2153  0.0285 -0.1006
13149TIP3    H160862   0.765   6.447   6.083  0.9830 -1.2368  0.8450
13149TIP3    H260863   0.682   6.353   6.169 -1.1821 -0.5469 -0.4026
13150TIP3   OH260864   1.042   4.110  13.280  0.3267  0.4313  0.3759
13150TIP3    H160865   1.031   4.192  13.330 -1.8009  0.8872 -0.7267
13150TIP3    H260866   1.114   4.129  13.220  1.5035  0.6063  1.7824
13151TIP3   OH260867   6.406   5.245  16.442  0.4851  0.5185 -0.3869
13151TIP3    H160868   6.331   5.281  16.396 -1.5848 -1.6615  1.0298
13151TIP3    H260869   6.453   5.321  16.477 -0.2285  1.9841 -2.4819
13152TIP3   OH260870   4.878   3.062  13.136 -0.8043 -0.3183  0.5458
13152TIP3    H160871   4.799   3.011  13.153 -1.1610  0.0014 -0.1187
13152TIP3    H260872   4.847   3.153  13.131 -0.6970 -0.3538 -1.4854
13153TIP3   OH260873   5.067   2.243  14.194  0.5110 -0.0289  0.2284
13153TIP3    H160874   5.050   2.207  14.107 -0.9755 -1.3702  1.0254
13153TIP3    H260875   5.148   2.200  14.222  1.2367  0.7263 -0.6142
13154TIP3   OH260876   1.817   6.754   1.710  0.4219 -0.1684  0.2199
13154TIP3    H160877   1.811   6.788   1.799 -1.0882  0.2224 -0.0031
13154TIP3    H260878   1.727   6.739   1.684  0.6978  1.2762 -1.8250
13155TIP3   OH260879   0.359   2.610  13.657 -0.1201  0.0838  0.0311
13155TIP3    H160880   0.364   2.531  13.711 -2.2250 -2.2232 -2.7724
13155TIP3    H260881   0.321   2.676  13.715  1.2928 -1.0394  2.3708
13156TIP3   OH260882   4.092   6.549  11.095  0.0524 -0.1584  0.1966
13156TIP3    H160883   4.136   6.574  11.176  0.4674 -0.4172  0.0537
13156TIP3    H260884   4.162   6.523  11.036 -0.2358  0.1691 -0.3004
13157TIP3   OH260885   5.523   5.515   5.286 -0.4577  0.4071 -0.2073
13157TIP3    H160886   5.596   5.576   5.275  0.0353 -0.1229  0.0164
13157TIP3    H260887   5.529   5.487   5.378 -0.9682  0.3869 -0.1753
13158TIP3   OH260888   2.588   4.934   1.962  0.1534 -0.4983 -0.6493
13158TIP3    H160889   2.555   4.887   2.038 -1.3697 -0.6688 -1.3815
13158TIP3    H260890   2.511   4.977   1.924  0.6461 -1.2481 -2.6682
13159TIP3   OH260891   0.577   2.512   0.484 -0.0812  0.1751 -0.9625
13159TIP3    H160892   0.671   2.527   0.470 -0.1518  1.2370 -0.4013
13159TIP3    H260893   0.562   2.424   0.450  0.8012  0.5877 -2.5297
13160TIP3   OH260894   4.812   3.604   1.965  0.2679 -0.2228 -0.3134
13160TIP3    H160895   4.892   3.614   2.017  1.4497 -0.4462 -1.9959
13160TIP3    H260896   4.775   3.692   1.960 -0.2404 -0.3116  1.4276
13161TIP3   OH260897   0.200   3.140   6.089 -0.1030 -0.2524  0.4241
13161TIP3    H160898   0.278   3.085   6.086  0.3548  0.3589  0.9165
13161TIP3    H260899   0.234   3.229   6.091 -0.8174  0.2283 -2.7996
13162TIP3   OH260900   2.515   3.249  12.093  0.2424 -0.1281  0.3932
13162TIP3    H160901   2.531   3.167  12.141 -0.5774  0.3232  1.4751
13162TIP3    H260902   2.573   3.313  12.134 -0.4899  0.2700  0.8297
13163TIP3   OH260903   2.051   6.668  13.203  0.7758 -0.1457  0.0855
13163TIP3    H160904   2.051   6.762  13.187 -1.4704  0.0195  0.6937
13163TIP3    H260905   2.070   6.660  13.297 -2.5565  0.0488  0.9247
13164TIP3   OH260906   3.653   1.487  16.430  0.6103  0.0425 -0.6333
13164TIP3    H160907   3.608   1.501  16.347 -1.4327  1.3232  0.6029
13164TIP3    H260908   3.638   1.394  16.450 -1.6066  0.4353 -0.2496
13165TIP3   OH260909   0.073   2.809  13.233  0.0982 -0.1539  0.2755
13165TIP3    H160910   0.156   2.811  13.185 -0.7064  2.1384 -1.1928
13165TIP3    H260911   0.045   2.718  13.229  1.1044 -0.4397 -1.8506
13166TIP3   OH260912   1.310   1.159  15.147  0.1968 -0.2201  0.0088
13166TIP3    H160913   1.336   1.151  15.239  0.9137  0.3545 -0.1356
13166TIP3    H260914   1.388   1.193  15.103 -0.6053  0.9216 -0.5585
13167TIP3   OH260915   4.616   5.075   0.495 -0.0051  0.4995  0.3025
13167TIP3    H160916   4.669   5.124   0.558 -0.5202  2.0187 -0.3797
13167TIP3    H260917   4.656   4.989   0.491  1.1245  0.9451  1.3632
13168TIP3   OH260918   1.694   0.203  11.256  0.4664  0.1075  0.1151
13168TIP3    H160919   1.773   0.178  11.302 -0.4909 -0.8717  1.2861
13168TIP3    H260920   1.683   0.136  11.188 -0.8662 -1.4879  1.7999
13169TIP3   OH260921   6.142   5.863  15.217 -0.2148 -0.1944  0.4807
13169TIP3    H160922   6.052   5.850  15.187 -0.0318 -0.8287  0.1807
13169TIP3    H260923   6.164   5.782  15.262  0.4852 -0.3940 -0.1886
13170TIP3   OH260924   3.208   2.069   4.041  0.4501 -0.1398 -0.1628
13170TIP3    H160925   3.214   2.020   4.122  2.1903  0.0282 -0.1557
13170TIP3    H260926   3.277   2.135   4.047  0.4931  0.0004 -1.6850
13171TIP3   OH260927   3.096   0.649  11.593  0.3726  0.6185  0.0293
13171TIP3    H160928   3.123   0.724  11.539  0.8983 -0.9504 -2.0008
13171TIP3    H260929   3.020   0.613  11.548  0.5417 -0.4709  0.5791
13172TIP3   OH260930   1.900   1.998  12.105  0.2838 -0.7085  0.2367
13172TIP3    H160931   1.995   1.997  12.114  0.3876 -0.8382 -0.7541
13172TIP3    H260932   1.879   1.912  12.067 -0.0308 -0.0308 -1.1913
13173TIP3   OH260933   2.068   6.648   5.835  0.1095  0.3748  0.2771
13173TIP3    H160934   2.129   6.602   5.892 -0.4329 -0.7340  0.0002
13173TIP3    H260935   2.018   6.704   5.893  1.8545  1.8796  0.4201
13174TIP3   OH260936   0.911   4.527  13.137  0.1760  0.2284  0.4488
13174TIP3    H160937   0.903   4.602  13.077 -1.3525 -0.6751 -0.5280
13174TIP3    H260938   1.002   4.500  13.128 -0.0722 -0.0901 -1.7771
13175TIP3   OH260939   2.471   1.381  16.973  0.0644  0.7432  0.6821
13175TIP3    H160940   2.439   1.373  17.063 -0.7596  2.2132  0.5667
13175TIP3    H260941   2.487   1.475  16.962  0.8808  0.4881 -0.4729
13176TIP3   OH260942   6.119   3.232  13.485 -0.4618  0.8699 -0.5739
13176TIP3    H160943   6.208   3.236  13.519 -0.1695  2.0218 -1.4066
13176TIP3    H260944   6.063   3.244  13.562 -0.0493 -2.6917  0.4343
13177TIP3   OH260945   5.463   5.463   0.966 -0.0879 -0.0969  0.5957
13177TIP3    H160946   5.548   5.421   0.954 -0.0903 -0.2169  0.9995
13177TIP3    H260947   5.458   5.527   0.895  1.0326  1.0606  1.5125
13178TIP3   OH260948   5.161   3.305   2.893 -0.3587 -0.1159  0.0878
13178TIP3    H160949   5.144   3.391   2.856 -0.4136 -0.1696 -0.0123
13178TIP3    H260950   5.077   3.258   2.884 -0.2462 -0.2755 -0.1171
13179TIP3   OH260951   1.011   3.073   3.752  0.1689 -0.1416 -0.4049
13179TIP3    H160952   0.949   3.116   3.693  0.5441  1.4531  0.3041
13179TIP3    H260953   1.096   3.086   3.712  0.4384  1.0317  0.4638
13180TIP3   OH260954   1.211   3.573  16.894 -0.1446 -0.3121 -0.1287
13180TIP3    H160955   1.306   3.586  16.882 -0.4606  1.6072 -1.0223
13180TIP3    H260956   1.191   3.621  16.974 -0.2650 -1.3577  0.4816
13181TIP3   OH260957   3.785   6.336  12.378  0.5653 -0.4044  0.1925
13181TIP3    H160958   3.746   6.344  12.465  0.0958 -1.7035  0.1079
13181TIP3    H260959   3.779   6.243  12.356  0.5319 -0.0780 -1.3005
13182TIP3   OH260960   1.251   2.010   1.743  0.0058  0.3714 -0.2860
13182TIP3    H160961   1.296   2.094   1.737  0.9842 -0.1502 -0.4689
13182TIP3    H260962   1.255   1.975   1.653 -0.3852  0.1277 -0.2092
13183TIP3   OH260963   0.247   2.855  14.037 -0.2949  0.1191  0.3004
13183TIP3    H160964   0.228   2.781  13.979 -1.0247 -0.6470  1.4806
13183TIP3    H260965   0.174   2.916  14.023  0.9604  1.2802 -1.6373
13184TIP3   OH260966   3.063   3.117  13.388  0.5832 -0.3498 -0.1347
13184TIP3    H160967   3.069   3.076  13.474  0.3565  0.8888  0.4892
13184TIP3    H260968   2.971   3.143  13.380  0.8016  0.3663 -0.3580
13185TIP3   OH260969   4.453   3.896   0.272 -0.6424 -0.0466  0.3181
13185TIP3    H160970   4.458   3.919   0.180 -0.7380  0.9987  0.5601
13185TIP3    H260971   4.391   3.959   0.309  1.2105  1.1394  1.5553
13186TIP3   OH260972   3.912   4.187   4.278 -0.0645  0.2661 -0.3174
13186TIP3    H160973   3.836   4.219   4.230 -1.5925 -0.2400  1.6252
13186TIP3    H260974   3.975   4.259   4.273 -1.1354  1.1892 -0.9859
13187TIP3   OH260975   3.487   2.650  13.554 -0.0761 -0.5978 -0.4492
13187TIP3    H160976   3.535   2.732  13.568  0.9239 -0.9979 -1.4688
13187TIP3    H260977   3.402   2.679  13.520  0.5219 -0.0015 -1.4836
13188TIP3   OH260978   3.398   3.220  12.270 -0.2088  0.1470  0.2683
13188TIP3    H160979   3.365   3.166  12.199 -2.0849  0.8758  0.5347
13188TIP3    H260980   3.454   3.161  12.321 -3.3148 -2.1077  1.4127
13189TIP3   OH260981   3.087   1.695   0.957  0.3181  0.2997  0.6168
13189TIP3    H160982   3.031   1.725   1.028  2.0147 -0.2139  2.2603
13189TIP3    H260983   3.142   1.770   0.936 -1.5800  1.1373 -1.7130
13190TIP3   OH260984   4.937   5.215   4.962  1.0186  0.6035  0.5648
13190TIP3    H160985   4.984   5.222   4.879 -1.0873  0.1227 -0.7556
13190TIP3    H260986   4.969   5.134   5.002  1.6074  0.5165 -0.0749
13191TIP3   OH260987   2.858   3.342  15.485  0.0630 -0.1805 -0.2443
13191TIP3    H160988   2.862   3.282  15.411 -2.7407  0.3650 -0.9691
13191TIP3    H260989   2.802   3.298  15.549  0.0611  0.5860  0.2944
13192TIP3   OH260990   6.409   2.767   2.840  0.1262 -0.6530 -0.4527
13192TIP3    H160991   6.370   2.795   2.757 -0.2904 -1.1379 -0.4275
13192TIP3    H260992   6.485   2.824   2.851  1.0954 -1.6059 -1.9427
13193TIP3   OH260993   3.336   5.028  14.991 -0.1951  0.7953 -0.3233
13193TIP3    H160994   3.262   5.079  14.959 -0.2600  2.4588  2.1593
13193TIP3    H260995   3.300   4.975  15.062  0.7140  0.4936 -0.0780
13194TIP3   OH260996   0.343   5.616  16.852  0.0856 -0.1797  0.2011
13194TIP3    H160997   0.314   5.570  16.930 -0.1059  0.1092  0.3007
13194TIP3    H260998   0.422   5.569  16.824 -0.2163 -0.6832  0.1926
13195TIP3   OH260999   5.117   6.134  15.199  0.4247 -0.5565 -0.6951
13195TIP3    H161000   5.045   6.149  15.260  1.7620 -0.8058  1.0127
13195TIP3    H261001   5.149   6.222  15.178  0.8301 -0.5176  0.0623
13196TIP3   OH261002   3.761   6.199  14.260 -0.8558  0.2900 -0.8362
13196TIP3    H161003   3.691   6.134  14.254 -0.3306 -0.3451 -0.3157
13196TIP3    H261004   3.735   6.256  14.332 -0.4914 -0.3854 -0.1599
13197TIP3   OH261005   4.203   1.362  14.956  0.0281  1.0058  0.2080
13197TIP3    H161006   4.261   1.289  14.934 -0.1533  0.4619  1.4223
13197TIP3    H261007   4.162   1.387  14.873  1.7787  1.2299 -0.6275
13198TIP3   OH261008   1.454   4.407  12.936  0.0632 -0.0789 -0.6390
13198TIP3    H161009   1.370   4.361  12.940 -0.8431  1.5902  1.1827
13198TIP3    H261010   1.510   4.360  12.998 -0.2531  0.1253 -0.1918
13199TIP3   OH261011   6.032   5.066   5.230  0.5752 -0.0467 -0.0981
13199TIP3    H161012   6.122   5.036   5.214  0.5880  0.3013 -0.7441
13199TIP3    H261013   6.042   5.153   5.268  0.5196  0.6059 -1.4960
13200TIP3   OH261014   2.201   4.517  16.812  0.0867 -0.3882 -0.5208
13200TIP3    H161015   2.136   4.587  16.807  1.4051  0.9228  0.0358
13200TIP3    H261016   2.199   4.476  16.725 -2.4074 -1.2928 -0.1094
13201TIP3   OH261017   1.670   6.637   0.109  0.4092  0.2925  0.3717
13201TIP3    H161018   1.603   6.584   0.153  1.4323  0.8588  2.8101
13201TIP3    H261019   1.655   6.622   0.016 -0.6636 -2.6078  0.8981
13202TIP3   OH261020   0.382   4.380   2.982  0.0196 -0.3921  0.5993
13202TIP3    H161021   0.308   4.361   3.040 -1.5184 -1.4386 -1.5796
13202TIP3    H261022   0.448   4.314   3.006  0.1621  0.2970  2.2847
13203TIP3   OH261023   4.208   0.523  16.124 -0.8697 -0.2988  0.3348
13203TIP3    H161024   4.224   0.429  16.132 -0.5127 -0.5192 -2.2521
13203TIP3    H261025   4.261   0.563  16.193 -0.2376 -1.9194  0.8209
13204TIP3   OH261026   0.710   5.486   3.946  0.3960  0.0545 -0.0113
13204TIP3    H161027   0.644   5.418   3.929 -1.2486  1.3418  0.9492
13204TIP3    H261028   0.772   5.444   4.006 -0.4797 -0.6841  0.4055
13205TIP3   OH261029   4.861   5.016  10.780 -0.1202  0.3113 -0.4447
13205TIP3    H161030   4.856   5.110  10.802  1.0056  0.0824  0.9133
13205TIP3    H261031   4.785   4.978  10.823 -1.6909  0.8214 -2.5724
13206TIP3   OH261032   4.995   5.762  13.748  0.2837  0.6709 -0.4069
13206TIP3    H161033   4.970   5.670  13.735  1.2825  0.3666 -0.2611
13206TIP3    H261034   5.067   5.776  13.687 -0.2674  1.5553 -0.8756
13207TIP3   OH261035   6.166   0.015  15.257 -0.3253 -0.1335  0.2882
13207TIP3    H161036   6.241   0.066  15.225  0.2812 -0.8980  0.4704
13207TIP3    H261037   6.136  -0.033  15.180 -0.9386  0.5320  0.1021
13208TIP3   OH261038   0.114   6.483   6.292 -0.4619  0.2235 -0.2451
13208TIP3    H161039   0.073   6.469   6.377  0.3957  3.3420  0.8288
13208TIP3    H261040   0.045   6.465   6.229 -1.5913 -0.6659  1.1839
13209TIP3   OH261041   5.982   3.581  16.742 -0.1409  0.0652  0.4418
13209TIP3    H161042   5.967   3.523  16.668  1.1991  0.0623  0.1585
13209TIP3    H261043   5.894   3.611  16.767 -0.7824 -1.4588  0.1043
13210TIP3   OH261044   2.262   3.159   2.331 -0.1361 -0.1615  0.8302
13210TIP3    H161045   2.180   3.201   2.355 -0.9717 -2.3623  2.0788
13210TIP3    H261046   2.324   3.187   2.398  0.0368  1.0913  0.1764
13211TIP3   OH261047   1.790   5.199   5.658 -0.1353 -0.2051  0.3618
13211TIP3    H161048   1.706   5.241   5.643  0.9489  1.5966 -1.0710
13211TIP3    H261049   1.818   5.230   5.744 -0.0195  0.8768 -0.0508
13212TIP3   OH261050   0.170   6.544   5.592 -0.5114 -0.3127 -0.0020
13212TIP3    H161051   0.208   6.604   5.529  1.4968 -1.4359  0.0664
13212TIP3    H261052   0.176   6.458   5.550  0.2423 -0.9829  1.4061
13213TIP3   OH261053   1.518   1.905   0.365 -0.0371  0.4990  0.6371
13213TIP3    H161054   1.497   1.898   0.458  0.8605  1.8686  0.9778
13213TIP3    H261055   1.521   1.999   0.348 -0.4096  0.2765 -0.8441
13214TIP3   OH261056   1.457   0.778   1.545  0.1247  0.4470  0.3779
13214TIP3    H161057   1.365   0.759   1.565 -1.0381  2.0016 -2.8552
13214TIP3    H261058   1.492   0.696   1.512 -0.3417  0.0751  0.7824
13215TIP3   OH261059   4.531   1.378  13.358 -0.9126 -0.3293 -0.2048
13215TIP3    H161060   4.607   1.321  13.363 -0.3697  0.5129  1.9029
13215TIP3    H261061   4.557   1.447  13.296  0.1829  0.0984  0.6913
13216TIP3   OH261062   1.031   1.948  12.368 -0.7206 -0.1286 -0.1620
13216TIP3    H161063   1.106   1.898  12.400 -1.1784 -1.5790 -1.2240
13216TIP3    H261064   1.062   2.038  12.363  0.7356 -0.5911  0.0609
13217TIP3   OH261065   1.987   5.290   6.388 -0.5628  0.5728 -0.0796
13217TIP3    H161066   2.007   5.197   6.376 -2.2633 -0.0131  1.2392
13217TIP3    H261067   2.073   5.331   6.403  0.1144 -0.9789  0.5534
13218TIP3   OH261068   6.185   4.944  11.572  0.9319 -0.0009 -0.4237
13218TIP3    H161069   6.105   4.947  11.521  0.4936 -1.8942  0.0659
13218TIP3    H261070   6.156   4.941  11.663  1.5407 -0.8361 -0.2420
13219TIP3   OH261071   3.596   0.391  12.411 -0.4564  0.4485 -0.6733
13219TIP3    H161072   3.632   0.307  12.440  0.4618  0.1055 -2.6541
13219TIP3    H261073   3.671   0.442  12.381 -1.1671  1.3455 -1.0112
13220TIP3   OH261074   2.737   4.745   5.674 -0.5477  0.3061 -0.3787
13220TIP3    H161075   2.734   4.836   5.644  3.8060  1.3924  1.5763
13220TIP3    H261076   2.797   4.702   5.613  1.5364  0.2606  1.5865
13221TIP3   OH261077   6.180   1.649   1.992  0.9389 -0.0436 -0.3462
13221TIP3    H161078   6.205   1.727   2.040  2.5301 -2.2623  2.8073
13221TIP3    H261079   6.091   1.631   2.021  1.2106 -0.3233  0.3451
13222TIP3   OH261080   3.155   5.451   1.327  0.2234 -0.0562 -0.2504
13222TIP3    H161081   3.192   5.539   1.324 -1.2785  0.5803 -2.3799
13222TIP3    H261082   3.202   5.403   1.259 -1.1274  0.0468 -1.2743
13223TIP3   OH261083   3.795   0.710  11.207 -0.3679 -0.2411 -0.5227
13223TIP3    H161084   3.795   0.615  11.195 -0.5346 -0.3364  0.1691
13223TIP3    H261085   3.736   0.724  11.281 -0.6783  0.4387 -0.8989
13224TIP3   OH261086   1.214   1.761  11.531 -0.0750 -0.1146 -0.3086
13224TIP3    H161087   1.301   1.727  11.510 -0.5270 -0.7765 -1.1551
13224TIP3    H261088   1.154   1.692  11.505 -1.0809  1.5304 -2.7184
13225TIP3   OH261089   0.995   2.824   5.563 -0.0630  0.0072 -0.6413
13225TIP3    H161090   1.021   2.776   5.484 -0.0513 -0.1030 -0.5707
13225TIP3    H261091   1.077   2.844   5.607 -0.1588 -2.7007  0.9939
13226TIP3   OH261092   1.054   3.756  12.775 -0.3450  0.5072  0.4746
13226TIP3    H161093   1.107   3.722  12.703  0.9524  2.0359  0.6281
13226TIP3    H261094   1.118   3.783  12.841 -1.3571  1.6247  1.0476
13227TIP3   OH261095   3.132   0.162   3.769 -0.1060 -0.1842  0.4714
13227TIP3    H161096   3.164   0.155   3.679 -4.4258 -1.8438 -1.1980
13227TIP3    H261097   3.189   0.104   3.820  0.5093 -1.7630 -1.8707
13228TIP3   OH261098   3.405   5.043  11.677  0.2275 -0.1247 -0.6395
13228TIP3    H161099   3.361   5.103  11.737 -1.2830 -0.0332 -1.7859
13228TIP3    H261100   3.337   5.014  11.617  1.3233 -1.5745 -1.2546
13229TIP3   OH261101   6.158   3.595   0.409 -0.1166 -0.5971 -0.0081
13229TIP3    H161102   6.141   3.677   0.363  1.6766  0.2710  0.7748
13229TIP3    H261103   6.073   3.570   0.446 -0.6604  1.0296 -0.0709
13230TIP3   OH261104   6.434   0.568  14.902 -0.4184  0.0020  0.0493
13230TIP3    H161105   6.431   0.577  14.806  1.1218 -0.2837 -0.0552
13230TIP3    H261106   6.401   0.479  14.918 -1.5826  0.3853 -0.1182
13231TIP3   OH261107   2.087   4.535   1.531  0.2822  0.0800  0.9673
13231TIP3    H161108   2.023   4.582   1.477 -0.1284 -1.4099  0.1119
13231TIP3    H261109   2.167   4.587   1.524 -0.3410  1.0208  0.6293
13232TIP3   OH261110   2.531   6.566  12.535 -0.0635 -0.4182  0.0286
13232TIP3    H161111   2.455   6.573  12.593  1.3193 -0.3500  1.8843
13232TIP3    H261112   2.575   6.485  12.562  1.0245  0.0151 -0.3943
13233TIP3   OH261113   3.320   2.619   1.110  0.1151 -0.2033  0.5608
13233TIP3    H161114   3.408   2.653   1.128  0.7218 -1.6576  0.4679
13233TIP3    H261115   3.287   2.676   1.040  1.1865  0.0533  0.2358
13234TIP3   OH261116   2.751   3.916  15.874  0.1914 -0.2663  0.5038
13234TIP3    H161117   2.712   3.851  15.933  0.0368 -0.9121 -0.3077
13234TIP3    H261118   2.678   3.949  15.822  0.4634 -0.2948  0.0988
13235TIP3   OH261119   6.576   6.340  15.350  0.3258  0.2135  0.0479
13235TIP3    H161120   6.632   6.413  15.326 -0.0082  0.5518  0.2937
13235TIP3    H261121   6.595   6.325  15.443 -0.4875  0.7796  0.3161
13236TIP3   OH261122   6.378   0.222  15.273  0.0758  0.7279 -0.0660
13236TIP3    H161123   6.454   0.165  15.267  1.2013  2.0658  0.7274
13236TIP3    H261124   6.355   0.221  15.366 -0.0759  1.2930 -0.0894
13237TIP3   OH261125   5.498   4.095   1.282 -0.2357  0.3189 -0.0458
13237TIP3    H161126   5.506   4.047   1.365  0.7406  0.3276 -0.1205
13237TIP3    H261127   5.462   4.030   1.221 -0.0249  0.0175  0.1436
13238TIP3   OH261128   0.022   3.986  14.279 -0.2518  0.4764  0.3558
13238TIP3    H161129   0.080   4.026  14.214 -2.7807  0.7378 -1.9541
13238TIP3    H261130   0.029   4.043  14.356  0.7180  1.8594 -0.7068
13239TIP3   OH261131   4.560   2.325  16.422 -0.3982  0.1979 -0.3124
13239TIP3    H161132   4.562   2.389  16.493 -1.5637  1.4076 -1.3162
13239TIP3    H261133   4.637   2.270  16.438  0.6571  1.8235  0.6179
13240TIP3   OH261134   1.303   3.491  16.601  0.1846  0.0758 -0.1613
13240TIP3    H161135   1.376   3.469  16.659  0.5663  0.5895 -0.4354
13240TIP3    H261136   1.326   3.577  16.566 -0.6175  0.2990 -0.1530
13241TIP3   OH261137   5.969   2.052  14.927  0.3537  0.1426 -0.6492
13241TIP3    H161138   5.917   2.057  15.007 -0.5109  1.3071 -1.2592
13241TIP3    H261139   5.944   1.969  14.887 -2.3807  1.3846 -1.7684
13242TIP3   OH261140   5.895   6.144  14.479 -0.8896 -0.6817 -0.1014
13242TIP3    H161141   5.938   6.120  14.397 -1.9500 -1.6361 -0.3913
13242TIP3    H261142   5.967   6.164  14.539 -0.0890 -0.7795 -1.0181
13243TIP3   OH261143   6.570   4.622   1.982 -0.1053 -0.1320 -0.0515
13243TIP3    H161144   6.521   4.643   1.902  0.4524  0.9458 -0.1281
13243TIP3    H261145   6.558   4.527   1.993 -1.3377 -0.0673 -0.6343
13244TIP3   OH261146   1.434   0.338  11.198  0.1075 -0.0994  0.2378
13244TIP3    H161147   1.515   0.289  11.209 -0.8958 -1.9221 -0.0179
13244TIP3    H261148   1.403   0.315  11.111 -1.3817 -0.6274  0.8602
13245TIP3   OH261149   5.223   1.541  11.489 -0.0916  0.7103 -0.7332
13245TIP3    H161150   5.318   1.543  11.481  0.2496  2.0960  2.1725
13245TIP3    H261151   5.194   1.627  11.459 -0.4497  0.2725 -1.6634
13246TIP3   OH261152   5.290   6.303   4.350 -0.1715 -0.2411 -0.6856
13246TIP3    H161153   5.358   6.267   4.293 -0.0599 -2.7202  0.8857
13246TIP3    H261154   5.334   6.322   4.432 -1.0732 -0.3711 -0.1589
13247TIP3   OH261155   3.007   2.434  15.102 -0.3903  0.2955 -0.2242
13247TIP3    H161156   3.067   2.463  15.034 -0.2971 -0.7482 -0.6016
13247TIP3    H261157   3.063   2.416  15.177 -0.4752  1.2819  0.0978
13248TIP3   OH261158   5.467   1.913  12.858 -0.1197 -0.2533 -0.7449
13248TIP3    H161159   5.491   1.833  12.810  0.6448 -0.5978  0.1835
13248TIP3    H261160   5.468   1.982  12.792  2.9425 -0.3199 -0.8986
13249TIP3   OH261161   1.423   2.009   4.549 -0.0591 -0.2121  0.7819
13249TIP3    H161162   1.492   2.056   4.597 -1.1940  1.6687  0.6491
13249TIP3    H261163   1.341   2.042   4.586 -0.9493  0.4164 -1.5813
13250TIP3   OH261164   5.441   0.817  15.976 -0.2626 -0.3887 -0.3453
13250TIP3    H161165   5.522   0.771  16.000 -0.2832 -1.1121 -1.5741
13250TIP3    H261166   5.471   0.903  15.947  0.0928 -0.6973 -0.9183
13251TIP3   OH261167   3.306   0.602  13.123 -0.2515 -0.5559 -0.0347
13251TIP3    H161168   3.245   0.540  13.164 -0.4807 -0.5525 -0.3708
13251TIP3    H261169   3.287   0.685  13.167 -1.8654 -0.1061 -1.4857
13252TIP3   OH261170   4.062   5.414  12.280 -0.2458 -0.5679 -0.3026
13252TIP3    H161171   4.114   5.478  12.330  0.4205  1.0962 -2.9143
13252TIP3    H261172   3.971   5.442  12.292 -0.4406 -1.9867  2.2496
13253TIP3   OH261173   0.051   3.220  13.518 -0.2483 -0.0645  0.2068
13253TIP3    H161174   0.051   3.178  13.432  0.7400  0.4120 -0.0399
13253TIP3    H261175  -0.042   3.240  13.534 -0.5418 -0.8683 -0.3823
13254TIP3   OH261176   3.184   2.667  15.477  0.4221  0.2714 -0.3429
13254TIP3    H161177   3.251   2.605  15.449  2.0601  1.1497  1.4200
13254TIP3    H261178   3.140   2.625  15.550  0.8852  0.7807  0.2355
13255TIP3   OH261179   2.275   0.761   3.546 -0.2069  0.5123  0.4632
13255TIP3    H161180   2.264   0.673   3.584  1.0924  0.2985  0.3840
13255TIP3    H261181   2.329   0.746   3.468 -0.1579  1.3674  0.3303
13256TIP3   OH261182   2.813   4.293   1.808 -0.1779 -0.6283  0.2402
13256TIP3    H161183   2.800   4.371   1.862 -0.8600 -0.8946  0.4576
13256TIP3    H261184   2.904   4.301   1.777 -0.4360  0.5794 -0.2560
13257TIP3   OH261185   4.215   5.958   0.764  0.4371  0.4167  0.5592
13257TIP3    H161186   4.235   5.871   0.798 -0.9050  0.3684  1.2953
13257TIP3    H261187   4.156   5.942   0.690 -1.0972  0.6981  1.6488
13258TIP3   OH261188   4.177   0.677   3.347 -0.5790  0.2022 -0.7244
13258TIP3    H161189   4.133   0.732   3.412 -1.4130 -0.7232 -0.4652
13258TIP3    H261190   4.114   0.606   3.331  0.8678 -1.2285 -0.2663
13259TIP3   OH261191   1.263   5.887  16.963 -0.2157  0.1080  0.5424
13259TIP3    H161192   1.187   5.941  16.982  0.7581  0.6964  3.1973
13259TIP3    H261193   1.274   5.833  17.041  0.8742 -1.4915 -0.6539
13260TIP3   OH261194   5.604   1.921  10.811  0.4736  0.4177  0.0702
13260TIP3    H161195   5.684   1.936  10.760 -0.1677 -0.7379 -1.3683
13260TIP3    H261196   5.578   1.832  10.787 -0.3442  0.1653  1.8059
13261TIP3   OH261197   1.959   4.718  11.255 -0.2400 -0.0724 -0.3480
13261TIP3    H161198   1.874   4.702  11.297  0.4501  0.3904  1.3205
13261TIP3    H261199   1.937   4.758  11.171 -1.6803  0.1070  0.0911
13262TIP3   OH261200   2.769   4.988  10.815 -0.2176 -0.3549  0.1298
13262TIP3    H161201   2.690   5.017  10.769  0.6079 -0.0615 -1.1492
13262TIP3    H261202   2.829   4.960  10.746  0.9585 -0.2129  1.0505
13263TIP3   OH261203   5.526   0.389  12.489 -0.2719  0.0517  0.2817
13263TIP3    H161204   5.557   0.338  12.563 -0.7754  2.5028  2.3225
13263TIP3    H261205   5.581   0.468  12.489 -0.5454  0.2919 -1.7223
13264TIP3   OH261206   5.828   6.029   6.621  0.5865  0.1522 -0.4233
13264TIP3    H161207   5.761   5.969   6.589  1.1957 -1.2695  0.7995
13264TIP3    H261208   5.782   6.086   6.683  0.3116 -0.1377 -0.3589
13265TIP3   OH261209   6.770   1.075   5.496  0.3064  0.0658 -0.1924
13265TIP3    H161210   6.728   0.992   5.470  0.6557  0.3079 -1.6420
13265TIP3    H261211   6.837   1.049   5.558 -0.5018 -0.5796  0.4361
13266TIP3   OH261212   5.613   0.524  15.494  0.7602  0.4395  0.3765
13266TIP3    H161213   5.576   0.538  15.581  1.4078 -1.2636  0.9635
13266TIP3    H261214   5.688   0.467  15.508  0.9253  0.1840 -1.3035
13267TIP3   OH261215   1.875   4.778   5.225  0.2539 -0.5519  0.1844
13267TIP3    H161216   1.823   4.756   5.302  1.7299 -2.3475  0.7555
13267TIP3    H261217   1.810   4.790   5.155 -0.9846 -1.5909  1.1026
13268TIP3   OH261218   3.277   2.958   3.465 -0.4116  0.2580 -0.0838
13268TIP3    H161219   3.315   3.033   3.420  0.1074 -0.6689 -1.2373
13268TIP3    H261220   3.302   2.883   3.412 -0.9578 -0.7358  1.0214
13269TIP3   OH261221   2.132   4.126   0.952  0.6204  0.1792  0.0164
13269TIP3    H161222   2.063   4.183   0.918  0.1578  0.7475  1.7921
13269TIP3    H261223   2.131   4.050   0.894 -0.5290  0.8067 -0.8397
13270TIP3   OH261224   5.138   1.084   0.419 -0.3756 -0.5358 -0.1109
13270TIP3    H161225   5.075   1.062   0.350 -0.3934 -0.2695 -0.1799
13270TIP3    H261226   5.198   1.147   0.379  0.8506 -1.9060 -0.5024
13271TIP3   OH261227   4.011   1.468  16.559  0.4643  0.1150 -0.3179
13271TIP3    H161228   3.989   1.540  16.500 -1.3479 -0.0084  0.1511
13271TIP3    H261229   3.927   1.442  16.597  0.9073 -2.8618 -1.1421
13272TIP3   OH261230   6.558   1.895  10.528 -0.8936 -0.1775 -0.2324
13272TIP3    H161231   6.517   1.809  10.531  0.1952 -0.7764 -1.5149
13272TIP3    H261232   6.644   1.882  10.570  0.7591 -0.6742 -3.4389
13273TIP3   OH261233   4.075   0.965  11.683  0.3028  0.2301 -0.2005
13273TIP3    H161234   4.137   1.034  11.709  3.2677 -1.5636 -2.0131
13273TIP3    H261235   4.125   0.884  11.689 -1.3000 -1.1731 -3.3968
13274TIP3   OH261236   1.103   0.367   4.229 -0.1388  0.0242 -0.0907
13274TIP3    H161237   1.179   0.345   4.176  1.0637  1.8898  0.7629
13274TIP3    H261238   1.129   0.350   4.319 -0.2338  1.7948  0.3248
13275TIP3   OH261239   4.268   0.876  12.651 -0.3733 -0.6415  0.6611
13275TIP3    H161240   4.281   0.891  12.557  0.0232 -2.5331  0.3789
13275TIP3    H261241   4.174   0.882  12.664 -0.8200 -3.6778 -0.5434
13276TIP3   OH261242   1.625   4.842  12.027  0.1421  0.0832 -0.2982
13276TIP3    H161243   1.631   4.747  12.020 -0.8977  0.1135 -2.6012
13276TIP3    H261244   1.532   4.859  12.041  0.4780  0.7578  1.3221
13277TIP3   OH261245   3.574   3.545   3.856  0.1145 -0.1240 -0.5204
13277TIP3    H161246   3.496   3.591   3.888  1.5584  1.3408  1.1602
13277TIP3    H261247   3.563   3.456   3.887  0.3449  0.7155  2.2864
13278TIP3   OH261248   0.667   5.024  16.836 -0.4885  0.0453  0.0771
13278TIP3    H161249   0.616   5.011  16.757 -0.5724  0.5481  0.0455
13278TIP3    H261250   0.727   4.949  16.839 -0.2250  0.2203 -0.6562
13279TIP3   OH261251   0.364   2.248  12.749  0.1195  0.1974 -0.4016
13279TIP3    H161252   0.273   2.237  12.777  0.6283 -1.8797  0.6044
13279TIP3    H261253   0.397   2.159  12.737  2.9561  0.6546  2.4553
13280TIP3   OH261254   2.047   0.115  14.146 -0.2292 -0.0256 -0.2096
13280TIP3    H161255   1.977   0.161  14.100 -0.6938 -1.3149 -0.8282
13280TIP3    H261256   2.109   0.091  14.077  0.1391 -0.0845  0.1402
13281TIP3   OH261257   3.333   3.128   3.707 -0.0771 -0.3509 -0.0146
13281TIP3    H161258   3.302   3.047   3.666 -0.8174 -0.1950  0.2152
13281TIP3    H261259   3.290   3.198   3.658 -1.2902 -0.1693  1.2293
13282TIP3   OH261260   3.899   0.409  15.499  0.3359  0.3134  0.1719
13282TIP3    H161261   3.958   0.429  15.425  1.7562  1.7529  1.6044
13282TIP3    H261262   3.819   0.457  15.479 -0.1297 -1.0735 -1.4641
13283TIP3   OH261263   6.190   4.736   3.821  0.1590  0.2989  0.6703
13283TIP3    H161264   6.120   4.796   3.846 -1.0337 -0.3361 -0.9440
13283TIP3    H261265   6.231   4.778   3.744 -0.8046 -0.9770 -0.5860
13284TIP3   OH261266   4.574   1.516  16.891  0.1550  0.0894  0.6955
13284TIP3    H161267   4.498   1.547  16.939 -0.3037  0.4446 -0.2334
13284TIP3    H261268   4.540   1.493  16.804  0.9956 -0.3210  0.4620
13285TIP3   OH261269   4.845   0.588  16.325 -0.8478  0.4001  0.0826
13285TIP3    H161270   4.781   0.520  16.305 -0.0627 -0.3349  0.0515
13285TIP3    H261271   4.816   0.625  16.408 -0.6983 -0.6877  0.6347
13286TIP3   OH261272   6.654   2.139  12.658 -0.5636  0.0971  0.1270
13286TIP3    H161273   6.650   2.174  12.747  0.3822 -0.5944  0.4575
13286TIP3    H261274   6.563   2.117  12.637 -0.8472  0.5933  0.7791
13287TIP3   OH261275   1.756   6.737  12.701 -0.1709 -0.3984 -0.4180
13287TIP3    H161276   1.786   6.789  12.776  2.1750 -3.1628  0.7487
13287TIP3    H261277   1.769   6.794  12.625  0.6286  1.2852  0.9199
13288TIP3   OH261278   1.967   5.037  13.278 -0.0527 -0.1572 -0.0155
13288TIP3    H161279   2.061   5.052  13.284 -0.0335 -0.1964 -0.2219
13288TIP3    H261280   1.954   4.948  13.310  0.0054 -0.2274 -0.1863
13289TIP3   OH261281   1.643   4.733   1.090 -0.5955  0.8172 -0.4703
13289TIP3    H161282   1.686   4.814   1.117 -0.5200 -0.1882  2.8572
13289TIP3    H261283   1.696   4.663   1.128 -3.0057 -0.6013  0.4884
13290TIP3   OH261284   2.302   4.449  15.051  0.1702  0.6425  0.7825
13290TIP3    H161285   2.223   4.444  15.106  1.7167  0.1507  3.0934
13290TIP3    H261286   2.302   4.366  15.003 -1.4179  1.2503 -0.3948
13291TIP3   OH261287   6.148   2.593  16.357 -0.5540 -0.0602  0.0528
13291TIP3    H161288   6.087   2.557  16.293  0.7632 -0.2147 -1.1558
13291TIP3    H261289   6.111   2.566  16.442 -1.4600 -1.2682 -0.6842
13292TIP3   OH261290   4.995   0.256  15.183 -0.1667 -0.9230 -0.4973
13292TIP3    H161291   5.003   0.226  15.093 -0.0143 -2.1935 -0.0804
13292TIP3    H261292   5.084   0.253  15.218  0.5645  3.4830 -1.4178
13293TIP3   OH261293   2.092   3.105   3.011 -0.2129 -0.1796  0.7942
13293TIP3    H161294   2.178   3.126   3.048 -0.1585  0.6524  0.2371
13293TIP3    H261295   2.052   3.191   2.994 -1.2073 -0.5596  1.1631
13294TIP3   OH261296   1.251   5.098   3.775  0.1458 -0.0300  0.1935
13294TIP3    H161297   1.332   5.142   3.801  0.5127 -1.9799  2.7171
13294TIP3    H261298   1.278   5.009   3.752 -0.8785  0.2595 -2.5306
13295TIP3   OH261299   0.996   4.337  13.662  0.3264 -0.2271 -0.3912
13295TIP3    H161300   0.926   4.273  13.657  0.4113 -0.2827 -0.9390
13295TIP3    H261301   0.975   4.390  13.739  0.4088 -1.0840  0.2313
13296TIP3   OH261302   1.327   5.976  13.400 -0.6301 -0.0555 -0.6612
13296TIP3    H161303   1.260   5.977  13.468 -2.6476 -0.1981 -2.5360
13296TIP3    H261304   1.375   6.058  13.414 -0.5989 -0.3414  1.2391
13297TIP3   OH261305   3.256   2.328   1.028  0.3333  0.1026  0.0740
13297TIP3    H161306   3.277   2.414   1.064  0.3727  0.1977 -0.1752
13297TIP3    H261307   3.244   2.343   0.934 -0.7329  0.0252  0.1893
13298TIP3   OH261308   5.111   1.141  11.988  0.2185 -0.3924 -0.1293
13298TIP3    H161309   5.206   1.151  11.983  0.0499  1.4843 -0.3659
13298TIP3    H261310   5.092   1.062  11.937  1.7549 -1.6840  1.2024
13299TIP3   OH261311   4.471   1.454   0.775  0.1312 -0.3737  0.1888
13299TIP3    H161312   4.424   1.391   0.720 -0.2885  0.6976 -0.7094
13299TIP3    H261313   4.491   1.527   0.717 -0.0402  0.6543  1.3731
13300TIP3   OH261314   5.259   0.248   3.089  0.3030 -0.3111 -0.7331
13300TIP3    H161315   5.164   0.244   3.088  0.3125 -0.5137 -1.3929
13300TIP3    H261316   5.285   0.193   3.163 -0.0430 -1.5194 -1.4878
13301TIP3   OH261317   1.659   1.046   3.894  0.3614 -0.1023  0.1018
13301TIP3    H161318   1.657   1.103   3.972 -0.0464 -0.4325  0.3339
13301TIP3    H261319   1.655   0.957   3.930 -0.4037 -0.2425 -0.3217
13302TIP3   OH261320   2.500   4.532  11.944 -0.1585 -0.9333 -0.2242
13302TIP3    H161321   2.507   4.620  11.982  1.9475 -0.9574 -0.4188
13302TIP3    H261322   2.414   4.501  11.971 -0.5839  0.8269  0.6224
13303TIP3   OH261323   6.393   5.073   2.872  0.3049  0.3192  0.4665
13303TIP3    H161324   6.343   5.134   2.818 -3.7499 -1.2848  2.0335
13303TIP3    H261325   6.441   5.128   2.933 -1.7014  2.0120  0.6198
13304TIP3   OH261326   5.945   0.949  11.729  0.0825  0.4818 -0.0698
13304TIP3    H161327   5.978   0.866  11.763  3.3692  1.3918 -0.6484
13304TIP3    H261328   5.894   0.925  11.653  0.9535 -1.0386 -0.2244
13305TIP3   OH261329   0.421   5.459  16.080  0.8190 -0.0988 -0.0171
13305TIP3    H161330   0.329   5.483  16.081  1.0447  0.8793  1.8343
13305TIP3    H261331   0.462   5.527  16.026  0.2906 -1.4816 -2.2758
13306TIP3   OH261332   6.784   5.795  16.106 -0.0290 -0.0517  0.4507
13306TIP3    H161333   6.751   5.877  16.144  0.9433  0.6623 -0.1867
13306TIP3    H261334   6.706   5.752  16.071 -0.1818  2.7632 -3.2890
13307TIP3   OH261335   2.640   0.196   4.950 -0.2601 -0.3956  0.5723
13307TIP3    H161336   2.701   0.264   4.977  0.8899 -1.9288  2.1015
13307TIP3    H261337   2.568   0.202   5.013 -0.8012  0.2231 -0.0945
13308TIP3   OH261338   5.902   2.069  11.405 -0.2026  0.3997 -0.3418
13308TIP3    H161339   5.963   2.007  11.446 -1.7876 -0.4192  0.8717
13308TIP3    H261340   5.956   2.116  11.341  1.4195 -1.1390 -0.1979
13309TIP3   OH261341   4.547   3.819  14.599 -0.1153 -0.0556 -0.4453
13309TIP3    H161342   4.526   3.730  14.627  0.3164  0.1758  0.6742
13309TIP3    H261343   4.523   3.821  14.507  1.0794 -1.7130 -0.8286
13310TIP3   OH261344   6.714   0.630  12.241 -0.1496  0.0839  0.3174
13310TIP3    H161345   6.700   0.537  12.222  0.7549 -0.5022  2.1603
13310TIP3    H261346   6.747   0.667  12.159  0.0836 -1.3727 -0.2797
13311TIP3   OH261347   1.018   6.024  11.795  0.0352 -0.3392  0.0878
13311TIP3    H161348   0.946   6.068  11.751 -0.9771 -4.3543 -2.8024
13311TIP3    H261349   0.985   6.008  11.884 -0.8114  1.5711  0.1819
13312TIP3   OH261350   4.433   3.671  14.937  0.0822  0.2800 -0.1633
13312TIP3    H161351   4.350   3.649  14.979 -0.4029 -0.1734 -1.3132
13312TIP3    H261352   4.472   3.739  14.993 -1.5574  1.2553 -0.1509
13313TIP3   OH261353   0.908   6.337   5.398 -0.3093 -0.1640 -0.0869
13313TIP3    H161354   0.901   6.346   5.493  0.4852 -3.1052  0.3514
13313TIP3    H261355   0.818   6.340   5.367 -0.5899  0.6707  0.7607
13314TIP3   OH261356   3.657   6.572  11.971 -0.4008  0.5640  0.5382
13314TIP3    H161357   3.663   6.571  12.067  1.3508  0.6261  0.4722
13314TIP3    H261358   3.621   6.486  11.948  1.5941 -0.5196  1.1897
13315TIP3   OH261359   0.715   5.762  15.575  0.3305 -0.0606 -0.6612
13315TIP3    H161360   0.789   5.737  15.520  0.1090 -0.9744 -0.5579
13315TIP3    H261361   0.685   5.846  15.539  1.2214  0.1721 -0.8868
13316TIP3   OH261362   1.512   4.206  11.494  0.2867 -0.0535 -0.7479
13316TIP3    H161363   1.512   4.302  11.498  1.3463 -0.0415 -0.5824
13316TIP3    H261364   1.440   4.184  11.436 -0.9396  0.7787  0.4052
13317TIP3   OH261365   2.895   0.623  15.595  0.2197 -0.2852  0.4860
13317TIP3    H161366   2.834   0.552  15.609 -0.4681 -0.4728 -2.6972
13317TIP3    H261367   2.940   0.601  15.513  1.8956  1.6694  0.7764
13318TIP3   OH261368   4.029   5.299  13.444 -0.3529 -0.0796  0.2775
13318TIP3    H161369   4.008   5.354  13.520 -1.6318 -1.9412  1.3291
13318TIP3    H261370   3.953   5.243  13.432 -0.8348  1.0405 -3.3083
13319TIP3   OH261371   6.488   1.218   2.770 -0.6438 -0.0757  1.0106
13319TIP3    H161372   6.397   1.191   2.763 -0.6669  0.3578 -1.1072
13319TIP3    H261373   6.501   1.279   2.697  1.4405 -0.4479  1.0013
13320TIP3   OH261374   2.521   0.084   2.139 -0.3934  0.0615 -0.1911
13320TIP3    H161375   2.546   0.133   2.217  1.1718  1.2840 -1.3806
13320TIP3    H261376   2.571   0.125   2.068 -0.1247 -2.3264 -1.4996
13321TIP3   OH261377   5.874   4.303  16.989 -0.1283  0.7158  0.3746
13321TIP3    H161378   5.930   4.245  16.937 -0.5901 -0.3882  1.0800
13321TIP3    H261379   5.867   4.382  16.936 -1.1568 -0.6101 -1.5916
13322TIP3   OH261380   1.915   5.744   3.715 -0.2362 -0.6285 -0.2052
13322TIP3    H161381   1.999   5.786   3.732  0.3343 -2.2853  1.4622
13322TIP3    H261382   1.934   5.677   3.651 -0.5599 -0.2307 -0.7277
13323TIP3   OH261383   1.219   3.809   3.345 -0.0791  0.5942  0.3748
13323TIP3    H161384   1.211   3.891   3.297 -2.8792 -0.8591 -1.9306
13323TIP3    H261385   1.221   3.741   3.278 -0.3164 -1.3562  2.2154
13324TIP3   OH261386   5.121   0.789  16.613  0.4950 -0.2406  0.2110
13324TIP3    H161387   5.029   0.772  16.635 -0.3954  1.7948 -1.5560
13324TIP3    H261388   5.125   0.778  16.518  1.3603  2.3300 -0.1334
13325TIP3   OH261389   5.158   5.829  14.705 -0.4141  0.6002 -0.6592
13325TIP3    H161390   5.087   5.829  14.770 -0.8631 -0.6603 -1.1234
13325TIP3    H261391   5.161   5.739  14.673  0.7200  0.8884 -1.4012
13326TIP3   OH261392   6.507   4.605   4.020 -0.3220 -0.4293 -0.4389
13326TIP3    H161393   6.547   4.563   4.096 -0.9790 -0.6955 -0.2339
13326TIP3    H261394   6.446   4.669   4.058  1.3351  1.4146 -0.7303
13327TIP3   OH261395   6.288   5.042  14.003 -0.4662 -0.2197 -0.0473
13327TIP3    H161396   6.260   5.124  13.963  0.2947 -0.6200 -1.4603
13327TIP3    H261397   6.383   5.051  14.011 -0.6432  0.2252  2.6264
13328TIP3   OH261398   6.089   5.374   5.119 -0.0765 -0.2172 -0.4086
13328TIP3    H161399   6.176   5.385   5.157  0.2598 -2.4850 -0.3738
13328TIP3    H261400   6.033   5.430   5.172  0.6200 -2.1446  2.5976
13329TIP3   OH261401   4.847   1.446   3.083 -0.2961  0.3393 -0.4209
13329TIP3    H161402   4.914   1.499   3.126 -1.7046  4.2569 -2.4866
13329TIP3    H261403   4.773   1.445   3.145  0.3921 -0.9972  0.4212
13330TIP3   OH261404   5.694   3.477   0.708  0.7453  0.4118  0.0229
13330TIP3    H161405   5.731   3.428   0.781  1.4592  0.6965 -0.1383
13330TIP3    H261406   5.748   3.453   0.633 -0.6071 -0.6557 -0.6438
13331TIP3   OH261407   1.730   6.430   3.945 -0.8551 -0.0564  0.1491
13331TIP3    H161408   1.675   6.352   3.947 -0.7683 -0.1941 -1.5164
13331TIP3    H261409   1.670   6.502   3.962 -1.6988 -0.1610 -2.0849
13332TIP3   OH261410   3.887   1.981  15.554  0.4206  0.3739 -0.2891
13332TIP3    H161411   3.931   1.907  15.512  0.7888  0.5494 -0.2125
13332TIP3    H261412   3.879   1.955  15.646 -1.1611 -0.3813 -0.6105
13333TIP3   OH261413   1.509   0.533  11.371 -0.5750 -0.3149 -0.1488
13333TIP3    H161414   1.527   0.466  11.306  3.0491 -0.2609  0.5888
13333TIP3    H261415   1.547   0.613  11.335  0.4579 -0.0251  1.4621
13334TIP3   OH261416   6.705   3.600   4.276  0.2098 -0.0757 -0.2506
13334TIP3    H161417   6.688   3.524   4.330  0.4734 -0.5938 -0.8850
13334TIP3    H261418   6.761   3.568   4.206 -0.7438  0.3989 -1.2721
13335TIP3   OH261419   5.563   6.762  16.396  0.5698  0.1732  0.4269
13335TIP3    H161420   5.620   6.686  16.379 -0.8295 -1.0549  1.0155
13335TIP3    H261421   5.537   6.792  16.309 -0.3919 -1.2544  0.1824
13336TIP3   OH261422   4.723   6.389   2.822  0.2088  0.1939 -0.2263
13336TIP3    H161423   4.675   6.306   2.831  0.0870  0.3924  1.2350
13336TIP3    H261424   4.797   6.381   2.882  0.7455  0.7706 -0.7992
13337TIP3   OH261425   3.146   0.760  11.913  0.3133 -0.5671 -0.4088
13337TIP3    H161426   3.224   0.707  11.898 -0.3236 -1.5655 -0.2873
13337TIP3    H261427   3.164   0.808  11.993  0.7845 -0.8260 -0.3561
13338TIP3   OH261428   2.947   1.896  16.987  0.0326  0.1539 -0.0904
13338TIP3    H161429   3.021   1.881  17.046 -0.9115  0.9886  1.3871
13338TIP3    H261430   2.912   1.981  17.015 -1.7382 -0.4260 -0.4470
13339TIP3   OH261431   4.202   1.508  12.018  0.2317 -0.1424 -0.5571
13339TIP3    H161432   4.151   1.439  11.975  0.6855 -0.7687 -0.1269
13339TIP3    H261433   4.242   1.464  12.093  0.5889  0.5832 -0.3121
13340TIP3   OH261434   0.476   4.266  16.348 -0.6892  0.2502  0.1500
13340TIP3    H161435   0.396   4.284  16.300 -1.6791 -1.1873  1.1711
13340TIP3    H261436   0.474   4.327  16.422 -0.6320  0.5002 -0.0547
13341TIP3   OH261437   2.695   1.307   2.210 -0.1437  0.3126  0.3960
13341TIP3    H161438   2.776   1.258   2.223 -0.2947 -0.2053 -0.5285
13341TIP3    H261439   2.630   1.240   2.189 -0.3701  0.8871 -0.8363
13342TIP3   OH261440   6.410   2.685  12.930 -0.1550 -0.1817 -0.9750
13342TIP3    H161441   6.442   2.773  12.910  0.1519  0.2426  1.1771
13342TIP3    H261442   6.486   2.628  12.914  0.3590  0.2536 -0.1494
13343TIP3   OH261443   3.525   3.801  14.608  0.1580  0.2822  0.2946
13343TIP3    H161444   3.614   3.810  14.577 -0.2751  0.6246 -0.8881
13343TIP3    H261445   3.527   3.724  14.665  1.4076  0.8969  1.1082
13344TIP3   OH261446   6.041   3.736  15.502 -0.1518 -0.3613 -0.3090
13344TIP3    H161447   6.112   3.680  15.534 -1.1529 -0.5242  1.8259
13344TIP3    H261448   5.992   3.760  15.581 -1.3135  1.3723 -1.4808
13345TIP3   OH261449   4.289   2.729  14.482  0.0905 -0.3447  0.1301
13345TIP3    H161450   4.323   2.777  14.406 -2.2950 -0.4605 -1.1024
13345TIP3    H261451   4.249   2.797  14.537  1.5475 -0.3016  1.2270
13346TIP3   OH261452   0.762   0.249  10.854 -0.0986 -0.1224  0.2238
13346TIP3    H161453   0.848   0.210  10.867 -0.5990 -1.3024  0.0489
13346TIP3    H261454   0.740   0.229  10.763 -0.1092  1.0993 -0.0590
13347TIP3   OH261455   0.535   4.158  10.609  0.2676 -0.1397  0.4444
13347TIP3    H161456   0.482   4.102  10.554  2.2902  0.2707 -2.1285
13347TIP3    H261457   0.608   4.103  10.638  1.1492  0.5549 -0.3703
13348TIP3   OH261458   2.150   1.868  14.077 -0.0371 -0.0699  0.4490
13348TIP3    H161459   2.101   1.878  13.995  0.8795 -0.6579 -0.2008
13348TIP3    H261460   2.166   1.773  14.084 -1.1421 -0.1695  1.9472
13349TIP3   OH261461   3.375   1.489  14.799  0.5091  0.0160  0.3203
13349TIP3    H161462   3.306   1.476  14.863  0.6359 -0.0788  0.4375
13349TIP3    H261463   3.416   1.403  14.790 -0.8581 -0.5070 -1.4366
13350TIP3   OH261464   5.645   5.306  12.763  0.3429 -0.8446  0.0554
13350TIP3    H161465   5.695   5.307  12.845  0.7337 -0.1459 -0.1799
13350TIP3    H261466   5.555   5.325  12.790  0.2396 -1.8677  0.4567
13351TIP3   OH261467   4.612   2.422   1.808  0.6808  0.2825 -0.0522
13351TIP3    H161468   4.658   2.504   1.787  0.1257  0.2557 -1.5689
13351TIP3    H261469   4.521   2.439   1.781 -0.4528  0.5892  3.5009
13352TIP3   OH261470   3.473   3.546   1.679  0.3140  1.1321 -0.3097
13352TIP3    H161471   3.450   3.557   1.587 -2.3222  1.3930  0.3011
13352TIP3    H261472   3.452   3.630   1.720  1.6952  1.1040  0.5254
13353TIP3   OH261473   5.677   1.615  16.877  0.0317 -0.4715  0.2573
13353TIP3    H161474   5.629   1.673  16.935 -1.5644 -0.8896 -0.5945
13353TIP3    H261475   5.623   1.537  16.869  0.4889 -0.6868 -1.2769
13354TIP3   OH261476   6.507   3.087   2.898 -0.7422 -0.0566 -0.1512
13354TIP3    H161477   6.521   3.176   2.866 -0.4985 -0.0841 -0.1293
13354TIP3    H261478   6.441   3.096   2.967 -1.0697  0.0402 -0.4762
13355TIP3   OH261479   3.597   2.184  15.479 -0.1956  0.1525  0.0780
13355TIP3    H161480   3.626   2.171  15.569  0.5397 -0.7105 -0.2670
13355TIP3    H261481   3.507   2.215  15.487  0.1828  1.0500  1.1271
13356TIP3   OH261482   2.909   2.110  11.732 -0.5180 -0.4393  0.3433
13356TIP3    H161483   2.985   2.067  11.693 -0.2526  1.7428 -1.7238
13356TIP3    H261484   2.845   2.039  11.742  1.3560 -2.1179  1.1497
13357TIP3   OH261485   1.062   1.554  13.886 -0.3192 -0.0662  0.3308
13357TIP3    H161486   1.117   1.550  13.964  1.0301 -0.5620 -0.5911
13357TIP3    H261487   1.012   1.472  13.887  0.2678 -0.4345  0.2917
13358TIP3   OH261488   2.279   5.438   1.192 -0.1194  0.3406  0.1025
13358TIP3    H161489   2.240   5.350   1.191 -0.1068  0.2118  3.0947
13358TIP3    H261490   2.299   5.454   1.284 -1.9328  4.2765 -0.0113
13359TIP3   OH261491   4.072   4.689   5.660  0.1721 -0.2107  0.0398
13359TIP3    H161492   4.055   4.603   5.700 -0.9885 -1.1916 -2.3153
13359TIP3    H261493   4.107   4.667   5.573  0.2882  1.7238 -0.4333
13360TIP3   OH261494   5.393   5.403  12.902 -0.2424  0.2684 -0.2499
13360TIP3    H161495   5.305   5.413  12.937 -1.2771 -1.0690 -2.2637
13360TIP3    H261496   5.380   5.389  12.808  2.2803  2.7303 -1.1364
13361TIP3   OH261497   4.213   1.046   5.754  0.5561  0.2120 -0.1433
13361TIP3    H161498   4.269   1.116   5.788  0.6188 -0.0196  0.2297
13361TIP3    H261499   4.171   1.085   5.677  1.4445  0.2946 -0.5973
13362TIP3   OH261500   5.623   4.434   5.227  0.1865  0.0285  0.4069
13362TIP3    H161501   5.675   4.509   5.256  1.1715 -0.4381 -0.1064
13362TIP3    H261502   5.542   4.473   5.193  2.2238  1.3559 -3.5761
13363TIP3   OH261503   1.192   4.133   5.859 -0.8648 -0.3349 -0.3945
13363TIP3    H161504   1.150   4.164   5.779 -2.2442 -0.6140  0.1783
13363TIP3    H261505   1.170   4.199   5.924  1.7553  0.8291 -0.5882
13364TIP3   OH261506   0.151   0.539   5.592  0.2430 -0.2788  0.6374
13364TIP3    H161507   0.200   0.601   5.647 -2.2403  1.6654  0.8421
13364TIP3    H261508   0.081   0.508   5.649 -0.4829 -0.7287 -0.4711
13365TIP3   OH261509   0.076   3.767   4.450  0.2423 -0.4316  0.3645
13365TIP3    H161510   0.015   3.746   4.521  1.9626 -2.3147  1.3936
13365TIP3    H261511   0.052   3.707   4.379 -1.1080  1.0595 -0.5080
13366TIP3   OH261512   2.866   1.019   0.779 -0.5822  0.3788 -0.2184
13366TIP3    H161513   2.808   1.048   0.708 -1.3878  0.5078  0.4741
13366TIP3    H261514   2.846   0.926   0.789  1.4109 -0.3040 -1.8861
13367TIP3   OH261515   6.471   6.118  11.306  0.3517  0.0927  1.2047
13367TIP3    H161516   6.397   6.097  11.249 -0.0318 -0.2588  1.8185
13367TIP3    H261517   6.512   6.194  11.265 -1.3592  1.3632  1.7320
13368TIP3   OH261518   6.104   2.125  11.727  0.4148 -0.0498 -0.2875
13368TIP3    H161519   6.057   2.042  11.714  0.7640 -0.0747 -1.4914
13368TIP3    H261520   6.098   2.141  11.821 -1.3641 -0.4408 -0.2859
13369TIP3   OH261521   6.663   5.751  16.849  0.0641 -0.1052 -0.6070
13369TIP3    H161522   6.723   5.816  16.884  0.1023 -1.3182  1.8167
13369TIP3    H261523   6.578   5.773  16.887 -0.2050 -0.6371 -0.8774
13370TIP3   OH261524   5.429   3.489  11.327 -0.0562  0.3899  0.2809
13370TIP3    H161525   5.524   3.496  11.331  0.2229 -1.9224 -0.6535
13370TIP3    H261526   5.400   3.503  11.417  1.3532 -0.6893  0.9400
13371TIP3   OH261527   5.450   6.228  13.798 -0.0774  0.1707 -0.4106
13371TIP3    H161528   5.413   6.312  13.769  0.5569  0.5308 -0.1922
13371TIP3    H261529   5.533   6.221  13.751  0.0024 -0.2031 -0.2152
13372TIP3   OH261530   1.570   1.486  10.801 -0.2940 -0.2334 -0.4192
13372TIP3    H161531   1.478   1.481  10.775 -0.6935 -0.3784  0.9178
13372TIP3    H261532   1.577   1.424  10.875  0.0850  2.0743  1.6141
13373TIP3   OH261533   2.801   3.996   3.488  0.2333  0.0604  0.1311
13373TIP3    H161534   2.710   3.979   3.465  0.1572 -0.8580  1.0258
13373TIP3    H261535   2.798   4.072   3.545  0.4645  2.6558 -3.0122
13374TIP3   OH261536   0.104   0.457  13.667  0.7115  0.1565  0.2133
13374TIP3    H161537   0.096   0.476  13.573 -1.9469 -0.9951  0.1127
13374TIP3    H261538   0.103   0.543  13.709  1.1469  0.6551 -0.7570
13375TIP3   OH261539   2.248   1.923   4.553 -0.6104  0.2032  0.3240
13375TIP3    H161540   2.313   1.864   4.514 -1.2917 -0.4654  0.1615
13375TIP3    H261541   2.222   1.879   4.634  0.1996  1.1830  1.1373
13376TIP3   OH261542   0.139   1.292   2.522 -0.1551 -0.5993  0.0332
13376TIP3    H161543   0.136   1.382   2.554  1.0285 -0.9880  1.3480
13376TIP3    H261544   0.220   1.287   2.470 -0.2828 -0.8727 -0.1456
13377TIP3   OH261545   3.056   3.850  14.341  0.1815 -0.6526  0.0800
13377TIP3    H161546   3.078   3.885  14.255 -0.0999  0.9794  0.6369
13377TIP3    H261547   2.961   3.838  14.339  0.0393  0.3250  0.4709
13378TIP3   OH261548   2.280   2.702  15.700 -0.1963  0.3508 -0.5041
13378TIP3    H161549   2.224   2.679  15.627 -1.0575  1.5832 -0.2541
13378TIP3    H261550   2.234   2.668  15.777 -0.2489  0.7455 -0.3619
13379TIP3   OH261551   3.989   0.613  13.562 -0.6810  0.0110 -0.4870
13379TIP3    H161552   3.921   0.653  13.616 -0.1050 -1.5787  1.5271
13379TIP3    H261553   3.942   0.552  13.505 -1.0446 -0.1736  0.0111
13380TIP3   OH261554   5.558   3.581  15.290  0.3282  1.0378  0.7125
13380TIP3    H161555   5.613   3.509  15.259  0.1929  0.3276  2.0391
13380TIP3    H261556   5.610   3.660  15.274  1.4706  0.4320  1.3339
13381TIP3   OH261557   6.776   3.222   3.936  0.1390 -0.6123 -0.7824
13381TIP3    H161558   6.759   3.204   3.843 -0.6943 -1.1487 -0.5403
13381TIP3    H261559   6.691   3.246   3.971  0.8178  1.6653 -0.5801
13382TIP3   OH261560   4.258   4.698  16.669  0.1816 -0.3735 -0.1632
13382TIP3    H161561   4.240   4.785  16.704  2.1461  0.1867 -0.4210
13382TIP3    H261562   4.330   4.712  16.607  0.3341 -2.1352 -0.4280
13383TIP3   OH261563   5.128   1.785  11.407  0.1772  0.8236 -0.3310
13383TIP3    H161564   5.134   1.862  11.350 -0.7795  1.0755 -0.1154
13383TIP3    H261565   5.059   1.807  11.470  1.7728  0.9053  1.4885
13384TIP3   OH261566   1.133   0.467  14.380  0.5193 -0.2250  0.0953
13384TIP3    H161567   1.096   0.468  14.469 -0.6468  1.6232 -0.3357
13384TIP3    H261568   1.057   0.458  14.323  1.1602 -0.4200 -0.7394
13385TIP3   OH261569   0.255   6.313  16.096 -0.2447 -0.3539 -0.0784
13385TIP3    H161570   0.252   6.307  16.000 -0.1687 -2.4146  0.0226
13385TIP3    H261571   0.206   6.393  16.116  1.8243  1.5629 -1.9361
13386TIP3   OH261572   5.279   1.708   2.735  0.0168 -0.3675 -0.0952
13386TIP3    H161573   5.230   1.754   2.666 -0.7512  0.9310  1.2748
13386TIP3    H261574   5.347   1.661   2.687 -0.7169  0.1860 -1.7865
13387TIP3   OH261575   5.029   0.589   2.246  0.2334 -0.1255 -0.9923
13387TIP3    H161576   5.081   0.589   2.166 -0.0669 -0.7272 -1.1878
13387TIP3    H261577   5.003   0.498   2.258 -0.1904  0.0563 -0.5174
13388TIP3   OH261578   1.331   4.690  13.935  0.2302  0.2224  0.2858
13388TIP3    H161579   1.404   4.630  13.952  0.1331 -0.1473 -0.5533
13388TIP3    H261580   1.309   4.675  13.843  0.0852  1.4169  0.1124
13389TIP3   OH261581   4.496   0.561   5.120 -0.5437  0.0270  0.2605
13389TIP3    H161582   4.448   0.644   5.111 -0.4122  0.1333  0.5220
13389TIP3    H261583   4.499   0.525   5.031 -1.2822 -0.0786  0.2724
13390TIP3   OH261584   5.191   3.668   1.807 -0.5344  1.2221 -0.1595
13390TIP3    H161585   5.114   3.690   1.755  1.0553  1.8517 -2.3870
13390TIP3    H261586   5.255   3.736   1.786  2.3091 -1.7880 -2.2478
13391TIP3   OH261587   3.175   1.112  14.783  0.4184 -0.3327 -0.8221
13391TIP3    H161588   3.108   1.174  14.753  0.5360  1.5733  2.3635
13391TIP3    H261589   3.255   1.165  14.788  1.4314 -1.7595 -1.5831
13392TIP3   OH261590   6.298   5.447  14.375  0.4593 -0.6856 -0.2245
13392TIP3    H161591   6.329   5.442  14.284  0.3248 -1.2425 -0.2472
13392TIP3    H261592   6.212   5.406  14.372 -0.3174  0.8729 -0.1710
13393TIP3   OH261593   3.358   4.203  14.934 -0.2607  0.2851 -0.6205
13393TIP3    H161594   3.419   4.256  14.883 -0.2316  0.6364 -0.2318
13393TIP3    H261595   3.272   4.241  14.914 -0.3705 -0.3135 -1.2923
13394TIP3   OH261596   4.451   3.639   2.320 -0.1721  0.5539 -0.1159
13394TIP3    H161597   4.478   3.730   2.330  2.7455 -0.4672  2.6036
13394TIP3    H261598   4.531   3.592   2.299 -1.2021 -1.6760  0.6535
13395TIP3   OH261599   0.142   4.115  15.813  0.1830 -0.3713 -0.2607
13395TIP3    H161600   0.132   4.021  15.828 -1.2001 -0.2374 -0.1729
13395TIP3    H261601   0.207   4.122  15.743  2.2378 -1.2611  1.4607
13396TIP3   OH261602   3.634   4.655  13.621 -0.2891  0.3887  0.0776
13396TIP3    H161603   3.727   4.666  13.600  0.1799  0.7323  2.1765
13396TIP3    H261604   3.599   4.744  13.623 -0.5350  0.2990 -0.1158
13397TIP3   OH261605   5.195   5.289  12.229  0.2282  0.2810  0.4488
13397TIP3    H161606   5.201   5.250  12.141  2.0117 -0.0066  0.6515
13397TIP3    H261607   5.171   5.380  12.212  1.1182  0.3838 -0.4126
13398TIP3   OH261608   1.167   6.513   5.427 -0.4587 -0.0825  0.1054
13398TIP3    H161609   1.206   6.471   5.503 -0.4583  3.5116  2.3689
13398TIP3    H261610   1.083   6.469   5.415 -0.4418 -0.7966  2.2284
13399TIP3   OH261611   4.201   4.933  16.772 -0.0935 -0.0991 -0.3603
13399TIP3    H161612   4.258   4.931  16.849 -2.9298  0.2540  1.9636
13399TIP3    H261613   4.221   5.016  16.730  0.1828  0.6603  1.1839
13400TIP3   OH261614   1.715   6.020  17.086 -0.0824 -0.4485 -0.0727
13400TIP3    H161615   1.624   6.029  17.112  0.0597 -2.1269  1.1798
13400TIP3    H261616   1.762   6.002  17.168  0.8875 -2.5379 -0.9973
13401TIP3   OH261617   4.108   3.595   2.834 -0.3584 -0.3168 -0.7890
13401TIP3    H161618   4.191   3.548   2.830 -1.2985 -2.2087  0.5158
13401TIP3    H261619   4.067   3.564   2.915 -1.4243  2.1565 -0.2809
13402TIP3   OH261620   2.915   6.195  16.612  0.3905 -0.0118 -0.2949
13402TIP3    H161621   2.837   6.184  16.557  0.1679 -0.9641  0.1993
13402TIP3    H261622   2.885   6.179  16.701  0.0215  4.5928  0.6435
13403TIP3   OH261623   6.764   3.575  14.284  0.1670 -0.8839 -0.6751
13403TIP3    H161624   6.772   3.662  14.325 -0.2583 -1.5414  0.8708
13403TIP3    H261625   6.854   3.541  14.284  0.3742 -0.3878 -1.4882
13404TIP3   OH261626   6.102   0.876  16.370 -0.4681  0.2557 -0.6182
13404TIP3    H161627   6.108   0.946  16.435 -0.2921 -0.2084 -0.1230
13404TIP3    H261628   6.158   0.806  16.405  1.0715  0.6671 -2.1589
13405TIP3   OH261629   5.572   5.067   1.842  0.7527 -0.1490 -0.8413
13405TIP3    H161630   5.535   5.129   1.906  1.7037  1.8125 -2.0792
13405TIP3    H261631   5.527   4.985   1.860  0.2078  0.5930  1.6239
13406TIP3   OH261632   4.963   5.793   6.172 -0.3625 -0.1704 -0.0387
13406TIP3    H161633   4.898   5.798   6.242  0.9357 -0.4940  1.2239
13406TIP3    H261634   5.017   5.871   6.183 -1.3249  0.8510 -1.9551
13407TIP3   OH261635   3.849   4.502  12.706  0.7179  0.1665  0.2929
13407TIP3    H161636   3.763   4.511  12.748  0.0813 -1.6099 -0.4983
13407TIP3    H261637   3.869   4.409  12.712  1.6302  0.2121 -1.3434
13408TIP3   OH261638   4.862   4.510  11.925 -0.0054 -0.4184  0.1433
13408TIP3    H161639   4.939   4.565  11.915  0.5367 -1.2545 -0.4315
13408TIP3    H261640   4.878   4.459  12.004  0.5925 -1.4519 -0.6305
13409TIP3   OH261641   1.067   1.203  13.425  0.5583  0.3603  0.1327
13409TIP3    H161642   1.094   1.233  13.512 -0.5358 -0.4234  0.7719
13409TIP3    H261643   1.020   1.121  13.442 -1.1120  1.0259 -1.0143
13410TIP3   OH261644   3.530   6.667   1.703  0.4817 -0.6265 -0.2859
13410TIP3    H161645   3.468   6.608   1.658 -0.2673  0.2785 -0.4775
13410TIP3    H261646   3.529   6.747   1.651  1.9844 -0.6503 -0.3962
13411TIP3   OH261647   0.202   0.452   0.369 -0.3113  0.4224  0.2811
13411TIP3    H161648   0.228   0.432   0.279  1.9217  1.3867  0.6441
13411TIP3    H261649   0.246   0.387   0.422  0.1409  1.1582  0.8224
13412TIP3   OH261650   3.346   0.833   0.291  0.4107 -0.2042 -0.1151
13412TIP3    H161651   3.339   0.738   0.291  1.7903 -0.3379 -1.3261
13412TIP3    H261652   3.274   0.862   0.236 -1.5148 -0.3378  2.1660
13413TIP3   OH261653   1.554   3.567   0.573 -0.4149  0.4420  0.1221
13413TIP3    H161654   1.574   3.651   0.532 -1.0272  0.0251 -1.1194
13413TIP3    H261655   1.462   3.574   0.599 -0.8161 -0.2087 -1.0289
13414TIP3   OH261656   5.420   6.169  15.244  0.0087  0.9601  0.2342
13414TIP3    H161657   5.378   6.245  15.202 -0.8558 -0.2042 -1.0965
13414TIP3    H261658   5.348   6.113  15.270  0.6648 -0.6058 -1.1637
13415TIP3   OH261659   5.766   6.358  11.610 -0.7611  0.8313 -0.2155
13415TIP3    H161660   5.801   6.446  11.619  0.1673  0.3368  1.3490
13415TIP3    H261661   5.806   6.324  11.530 -0.5289  1.5400 -0.4108
13416TIP3   OH261662   1.201   0.226   4.503 -0.3630 -0.5021  0.0509
13416TIP3    H161663   1.110   0.219   4.531 -1.0273  1.2870 -1.4817
13416TIP3    H261664   1.237   0.139   4.518 -2.1426 -1.1036  1.2189
13417TIP3   OH261665   6.342   6.339  14.935 -0.0580 -0.0379  0.3243
13417TIP3    H161666   6.271   6.276  14.921 -0.1202  0.1381 -0.1802
13417TIP3    H261667   6.418   6.300  14.890 -0.0664  0.1906  0.1110
13418TIP3   OH261668   0.104   4.583  13.649  0.6427 -0.4482 -0.0313
13418TIP3    H161669   0.133   4.492  13.652  1.0627 -0.3114  0.2397
13418TIP3    H261670   0.085   4.600  13.556  0.8000 -0.7405 -0.1165
13419TIP3   OH261671   1.982   3.071  11.876 -0.1691 -0.2063  0.4790
13419TIP3    H161672   1.943   3.076  11.789  2.9952 -2.5867 -1.3008
13419TIP3    H261673   2.034   3.151  11.884 -1.5423  0.6810  0.8439
13420TIP3   OH261674   2.997   4.335  13.910 -0.3435 -0.4082 -0.5326
13420TIP3    H161675   2.917   4.357  13.957  1.1315  1.3347  1.3764
13420TIP3    H261676   3.058   4.309  13.979  1.2133 -0.0714 -1.7326
13421TIP3   OH261677   0.504   4.913   0.381 -0.4771  0.2193  0.2102
13421TIP3    H161678   0.476   4.833   0.336 -3.6701  0.0245  2.1950
13421TIP3    H261679   0.537   4.970   0.312 -0.2432 -1.9366 -1.5706
13422TIP3   OH261680   2.416   2.365  13.338 -0.5651 -0.2900  0.3940
13422TIP3    H161681   2.465   2.400  13.264 -1.3161  1.2264  0.5570
13422TIP3    H261682   2.366   2.292  13.303 -0.1125 -0.2457 -0.3490
13423TIP3   OH261683   2.029   3.124  14.382  0.3411 -0.0486 -0.0468
13423TIP3    H161684   2.078   3.156  14.306  0.4531 -1.4592 -0.5964
13423TIP3    H261685   1.937   3.136  14.357  0.3818 -0.0178 -0.1843
13424TIP3   OH261686   5.646   0.237   5.423 -0.4073  0.1102 -0.3964
13424TIP3    H161687   5.557   0.243   5.388 -0.2635 -0.3241 -0.8441
13424TIP3    H261688   5.636   0.253   5.517 -0.6574  2.4756 -0.7518
13425TIP3   OH261689   2.325   4.510   5.775  0.3998 -0.0689  0.9195
13425TIP3    H161690   2.310   4.418   5.752  0.5931  0.1041  0.0794
13425TIP3    H261691   2.296   4.517   5.866 -1.6040 -0.4981  0.3598
13426TIP3   OH261692   0.243   3.877   2.419  0.2636  0.1964 -0.0676
13426TIP3    H161693   0.232   3.789   2.384 -0.9123  0.4851 -0.4651
13426TIP3    H261694   0.337   3.891   2.419  0.4202 -0.7472 -0.7971
13427TIP3   OH261695   1.696   2.232  15.703 -0.0242  0.3502 -0.3838
13427TIP3    H161696   1.622   2.247  15.644 -1.4430 -2.7171  0.4093
13427TIP3    H261697   1.657   2.234  15.791  0.4966 -2.2658  0.0027
13428TIP3   OH261698   5.037   0.904  11.817 -0.3188 -0.2084 -0.4832
13428TIP3    H161699   5.051   0.810  11.827  0.0219 -0.1568 -0.4555
13428TIP3    H261700   4.943   0.916  11.825 -0.2190 -0.3326  1.3268
13429TIP3   OH261701   0.640   1.547  14.567  0.0245 -0.1571  0.1371
13429TIP3    H161702   0.642   1.593  14.484  0.4858  0.7039  0.6098
13429TIP3    H261703   0.550   1.517  14.576 -0.1968  0.3535 -0.3459
13430TIP3   OH261704   2.093   1.484  12.801 -0.5088 -0.6407 -0.2116
13430TIP3    H161705   2.092   1.579  12.790  1.6647 -0.6902 -1.3669
13430TIP3    H261706   2.054   1.450  12.720 -0.6312 -0.7414 -0.1102
13431TIP3   OH261707   6.070   6.075  14.286 -0.2601  0.0905  0.5283
13431TIP3    H161708   6.145   6.084  14.345 -0.2249  1.9436  0.2699
13431TIP3    H261709   6.090   5.997  14.234  1.3017  0.3019  0.7476
13432TIP3   OH261710   1.235   5.933  15.830  0.4769  0.1044  0.1197
13432TIP3    H161711   1.190   6.013  15.859  0.5169  0.3790 -0.5522
13432TIP3    H261712   1.247   5.946  15.736  0.8544 -0.5169  0.0815
13433TIP3   OH261713   2.017   1.070   4.699  0.4540 -0.5598  0.2024
13433TIP3    H161714   2.102   1.044   4.736  1.3645  0.6671 -0.9527
13433TIP3    H261715   2.037   1.145   4.644 -1.6003  0.5343  0.8805
13434TIP3   OH261716   1.938   1.439   1.388  0.2236 -1.1662 -0.3425
13434TIP3    H161717   1.985   1.369   1.432  0.4586 -0.2362  0.9389
13434TIP3    H261718   1.971   1.437   1.298  1.2880 -1.7605  0.0450
13435TIP3   OH261719   0.366   2.404   2.102 -0.1663 -0.0862  0.1248
13435TIP3    H161720   0.399   2.384   2.189 -0.2467  0.7895  0.3707
13435TIP3    H261721   0.420   2.352   2.042 -0.2672 -0.8751  0.7043
13436TIP3   OH261722   2.086   0.369   1.740  0.7882  0.4268  0.2498
13436TIP3    H161723   2.077   0.383   1.834 -0.3120 -1.2265  0.4386
13436TIP3    H261724   2.111   0.277   1.732  1.4321  0.6946 -1.0585
13437TIP3   OH261725   2.505   4.677   1.149  0.0297  0.4500 -0.4811
13437TIP3    H161726   2.447   4.607   1.120  0.5572 -0.2450  0.1200
13437TIP3    H261727   2.554   4.640   1.222 -0.0265  1.5993  0.1711
13438TIP3   OH261728   2.711   5.247   0.539 -0.3441 -0.8610 -0.2257
13438TIP3    H161729   2.800   5.280   0.525 -0.4140  0.2979  1.7505
13438TIP3    H261730   2.667   5.261   0.455  1.3019 -1.4530 -1.2528
13439TIP3   OH261731   3.389   5.775  16.840 -0.0170  1.0179 -0.1123
13439TIP3    H161732   3.383   5.744  16.749  2.9367  0.6915 -0.2986
13439TIP3    H261733   3.410   5.868  16.832 -1.0106  1.2940  0.3077
13440TIP3   OH261734   6.746   1.578   4.593  0.1849 -0.3581 -0.2796
13440TIP3    H161735   6.694   1.568   4.673 -0.6354 -0.0665 -0.7647
13440TIP3    H261736   6.743   1.492   4.552  0.7564 -0.5564  0.0897
13441TIP3   OH261737   0.000   4.578   1.583  0.3676  0.0688 -0.3809
13441TIP3    H161738  -0.067   4.543   1.642  2.0585  0.9424  2.2238
13441TIP3    H261739   0.062   4.506   1.572 -0.5224 -0.4695 -2.1120
13442TIP3   OH261740   2.858   4.626   1.631  0.3626 -0.5798  0.0306
13442TIP3    H161741   2.904   4.647   1.713 -2.8190 -1.2455  2.1760
13442TIP3    H261742   2.821   4.710   1.603  1.8153 -0.2684 -1.0351
13443TIP3   OH261743   0.916   2.502  13.255 -0.3904  0.1524  0.0385
13443TIP3    H161744   0.885   2.512  13.165  0.0807  0.8402 -0.0586
13443TIP3    H261745   0.908   2.589  13.292 -2.8701 -0.5865  1.4515
13444TIP3   OH261746   0.125   3.627  14.949  0.2723 -0.0419  0.4874
13444TIP3    H161747   0.132   3.531  14.952 -1.9709 -0.2396  1.7594
13444TIP3    H261748   0.177   3.652  14.873  0.7820 -2.2861  0.0139
13445TIP3   OH261749   3.456   6.282  13.638 -0.1645 -0.1234  0.2929
13445TIP3    H161750   3.492   6.370  13.655  2.0427 -0.9718  0.3610
13445TIP3    H261751   3.363   6.297  13.622  0.2953  2.3309 -0.5467
13446TIP3   OH261752   0.837   1.737   4.671  0.1159  0.0138 -0.4242
13446TIP3    H161753   0.844   1.826   4.704  0.2397 -0.0354 -0.3124
13446TIP3    H261754   0.745   1.727   4.646  0.3874  0.6168 -1.7339
13447TIP3   OH261755   0.544   2.544  11.621  0.1837  0.4949 -0.1996
13447TIP3    H161756   0.594   2.467  11.592  0.0378 -0.2611  1.4376
13447TIP3    H261757   0.604   2.592  11.678 -0.1845  0.8489 -0.1083
13448TIP3   OH261758   3.391   5.553   2.697 -0.6337 -0.0876 -0.6051
13448TIP3    H161759   3.391   5.468   2.653  0.2126 -1.0312  1.1084
13448TIP3    H261760   3.465   5.600   2.659 -0.8063 -0.3050 -1.2138
13449TIP3   OH261761   0.345   2.000  13.413 -0.5317 -0.0729 -0.1341
13449TIP3    H161762   0.319   2.036  13.498 -0.0822  0.7576 -0.3357
13449TIP3    H261763   0.338   1.905  13.424 -2.2003  0.0627  0.2674
13450TIP3   OH261764   4.843   3.556   2.669 -0.5679 -0.2242 -1.2474
13450TIP3    H161765   4.814   3.609   2.595 -0.2689  0.3948 -0.9311
13450TIP3    H261766   4.784   3.579   2.740 -1.6733 -1.7732 -1.6230
13451TIP3   OH261767   0.685   5.427  11.012  0.1388  0.4628 -0.1819
13451TIP3    H161768   0.630   5.434  10.934  0.4392 -0.9072 -0.5487
13451TIP3    H261769   0.750   5.496  11.002  0.3010  0.1771 -1.2706
13452TIP3   OH261770   0.162   3.865  12.616 -0.4075 -0.8180  0.1508
13452TIP3    H161771   0.246   3.883  12.573 -0.6622 -2.4187 -1.1124
13452TIP3    H261772   0.166   3.915  12.697  1.9921 -1.2141  0.3774
13453TIP3   OH261773   2.998   5.647  15.629 -0.0584 -0.6720  0.1034
13453TIP3    H161774   2.976   5.679  15.717 -1.4102 -0.5867 -0.2509
13453TIP3    H261775   2.917   5.610  15.595  0.3596 -0.4316 -1.2362
13454TIP3   OH261776   2.313   0.572  12.852  0.5357 -0.2243  0.2629
13454TIP3    H161777   2.332   0.479  12.862  2.0120 -0.0400 -0.5188
13454TIP3    H261778   2.285   0.581  12.761  0.2650  0.0804  0.3755
13455TIP3   OH261779   2.780   1.726   2.527  0.0127  0.0210 -0.8894
13455TIP3    H161780   2.866   1.707   2.490  0.0930  0.1823 -0.7852
13455TIP3    H261781   2.738   1.640   2.534 -0.1976  0.0353 -1.8339
13456TIP3   OH261782   4.869   3.749   0.898 -0.2400 -0.0414  0.0980
13456TIP3    H161783   4.918   3.725   0.819  1.7793  0.3185  1.1848
13456TIP3    H261784   4.827   3.832   0.874  3.4098  2.1335  0.4592
13457TIP3   OH261785   1.112   5.046   4.426 -0.1338 -0.6238  0.4696
13457TIP3    H161786   1.098   5.127   4.378  0.4562 -0.2754  0.8696
13457TIP3    H261787   1.028   5.028   4.468 -0.3338 -0.3468  0.1902
13458TIP3   OH261788   1.564   5.840  16.248 -0.6058  0.4847  0.3072
13458TIP3    H161789   1.504   5.784  16.297 -2.2605 -1.7910 -3.7790
13458TIP3    H261790   1.633   5.781  16.218 -0.4248  1.3803 -1.1562
13459TIP3   OH261791   4.484   6.075   3.918 -0.4580 -0.0742 -0.0725
13459TIP3    H161792   4.439   6.074   4.003  0.6845  1.6275  0.6040
13459TIP3    H261793   4.497   5.983   3.897 -1.2040 -0.5426  1.3638
13460TIP3   OH261794   5.416   0.008  15.843  0.2271  0.0203 -0.4160
13460TIP3    H161795   5.463  -0.017  15.763  2.5228  0.1495  0.8128
13460TIP3    H261796   5.332  -0.036  15.836  0.4565 -0.2027 -2.7571
13461TIP3   OH261797   3.879   2.819   4.659 -0.3901 -0.3946  0.3805
13461TIP3    H161798   3.869   2.823   4.754  0.0590  2.6055  0.4266
13461TIP3    H261799   3.803   2.771   4.628 -1.8527  0.6690  2.1408
13462TIP3   OH261800   1.125   0.539  13.272  0.5192  0.0760 -0.0242
13462TIP3    H161801   1.135   0.494  13.188  0.6407 -0.1812  0.1264
13462TIP3    H261802   1.125   0.632  13.250 -0.7795 -0.0143 -0.4520
13463TIP3   OH261803   2.496   6.157   4.922 -0.2303  0.1039 -0.3468
13463TIP3    H161804   2.573   6.195   4.966  0.4029 -1.1799 -0.2834
13463TIP3    H261805   2.521   6.153   4.830 -1.5254  2.7129 -0.9029
13464TIP3   OH261806   6.068   3.023   5.727  0.1674 -0.3791  0.1726
13464TIP3    H161807   6.048   3.117   5.725  0.4217 -0.3302 -1.1551
13464TIP3    H261808   6.070   3.001   5.820  2.0509  1.3619  0.6144
13465TIP3   OH261809   4.923   2.498  14.172  0.3163  0.0797 -0.1219
13465TIP3    H161810   5.009   2.525  14.142  0.2769  0.1723 -0.1496
13465TIP3    H261811   4.924   2.402  14.165  0.3624  0.0910 -0.2679
13466TIP3   OH261812   0.254   0.163  13.930 -0.0804  0.9261  0.2653
13466TIP3    H161813   0.248   0.132  13.840 -0.2755  1.3283  0.1369
13466TIP3    H261814   0.169   0.203  13.947  0.1603  1.3695  0.4321
13467TIP3   OH261815   2.010   2.460   4.062  0.7928 -0.0495 -0.5598
13467TIP3    H161816   1.969   2.545   4.050  1.3160  0.5400  1.4618
13467TIP3    H261817   1.941   2.405   4.100  1.3862  0.5542  1.5416
13468TIP3   OH261818   3.966   0.537  12.742  0.0417  0.5799 -0.5230
13468TIP3    H161819   3.954   0.466  12.805  1.1935  0.6155 -0.2432
13468TIP3    H261820   3.883   0.585  12.743  0.1163  0.7298  1.1596
13469TIP3   OH261821   4.213   5.750   4.492 -0.2493 -0.7107 -0.4993
13469TIP3    H161822   4.182   5.839   4.509 -1.4731 -0.6996 -2.3832
13469TIP3    H261823   4.189   5.701   4.570 -0.4983  0.3946  0.1442
13470TIP3   OH261824   3.839   4.510   0.954 -0.0260  0.1653 -0.2042
13470TIP3    H161825   3.897   4.559   1.013  1.3006  0.0788 -1.3964
13470TIP3    H261826   3.828   4.567   0.878 -0.4742 -0.3635 -0.5416
13471TIP3   OH261827   1.656   4.033   1.368  0.0497  0.0211  0.3317
13471TIP3    H161828   1.690   3.997   1.286  2.9241 -2.5568  2.4387
13471TIP3    H261829   1.714   4.106   1.388  0.4905 -0.4657  0.8774
13472TIP3   OH261830   1.310   2.662  10.820  0.6322 -0.3203 -0.8961
13472TIP3    H161831   1.224   2.670  10.777  0.5304  0.8289 -0.5119
13472TIP3    H261832   1.373   2.669  10.749  0.4243 -0.7540 -1.1300
13473TIP3   OH261833   0.617   5.555   3.497 -0.3647 -0.0658 -0.0884
13473TIP3    H161834   0.628   5.469   3.537  1.6751  1.4549  2.9501
13473TIP3    H261835   0.703   5.577   3.462 -1.1669  0.3139 -1.9671
13474TIP3   OH261836   4.614   5.237  16.458 -0.3262  0.6180  0.2445
13474TIP3    H161837   4.528   5.235  16.415 -0.7890  2.5157  0.9731
13474TIP3    H261838   4.677   5.238  16.386 -0.9288 -0.2824 -0.3077
13475TIP3   OH261839   5.091   2.455  13.198 -0.1805  0.3466  0.3661
13475TIP3    H161840   5.113   2.422  13.284  0.2504 -0.7819 -0.1577
13475TIP3    H261841   5.175   2.463  13.152 -0.3939  1.0249  0.0694
13476TIP3   OH261842   5.497   1.011   1.915  0.0871  0.2027 -0.6955
13476TIP3    H161843   5.589   0.984   1.918  0.3829  1.0170  3.0949
13476TIP3    H261844   5.495   1.085   1.855  1.6021 -0.6153 -1.8278
13477TIP3   OH261845   3.041   3.684  12.675 -0.2913  0.2920  0.4202
13477TIP3    H161846   3.041   3.777  12.656  0.8362  0.1734 -0.2632
13477TIP3    H261847   2.974   3.648  12.617 -0.4722  0.6286  0.4196
13478TIP3   OH261848   5.941   2.710   2.011 -0.3416 -0.6754  0.1011
13478TIP3    H161849   5.982   2.795   1.995 -0.2648 -0.7994 -0.4026
13478TIP3    H261850   5.867   2.729   2.068 -1.0461 -0.0823 -0.9765
13479TIP3   OH261851   6.442   6.111  12.344  0.1193  0.0248 -0.1075
13479TIP3    H161852   6.359   6.061  12.342 -0.8195  1.5016  0.5412
13479TIP3    H261853   6.488   6.083  12.265 -0.6081 -1.4649 -0.0417
13480TIP3   OH261854   0.391   6.159   2.366 -0.2924 -0.2653 -0.7198
13480TIP3    H161855   0.455   6.116   2.310 -0.6094 -3.4697  1.1762
13480TIP3    H261856   0.435   6.169   2.450 -1.3202  0.1633 -0.2109
13481TIP3   OH261857   1.861   3.583   1.064  0.1924  0.0971 -0.1042
13481TIP3    H161858   1.892   3.534   0.987 -0.3501  0.3392 -0.4869
13481TIP3    H261859   1.914   3.662   1.065  1.0008 -0.4367  0.4555
13482TIP3   OH261860   3.159   1.978  11.664 -0.6451 -0.8079 -0.0307
13482TIP3    H161861   3.158   1.933  11.748 -1.4397 -0.5605  0.1036
13482TIP3    H261862   3.162   1.908  11.599  0.8651 -0.9892  0.1932
13483TIP3   OH261863   6.609   4.289   5.451 -0.0600  0.6800 -0.1446
13483TIP3    H161864   6.577   4.246   5.371  0.6877  0.0137 -0.0954
13483TIP3    H261865   6.683   4.235   5.479  1.8179  2.7414 -0.8424
13484TIP3   OH261866   3.947   1.709  14.003 -0.5948 -1.4174 -1.0660
13484TIP3    H161867   3.911   1.623  13.983 -2.3600 -1.2913  1.2212
13484TIP3    H261868   3.992   1.698  14.087 -2.5575  0.2217  0.3002
13485TIP3   OH261869   1.712   1.738  14.785 -0.3751  0.2183 -0.0646
13485TIP3    H161870   1.708   1.662  14.728  1.5524  1.6420 -2.2644
13485TIP3    H261871   1.793   1.727  14.834 -2.1789 -1.1758  2.9047
13486TIP3   OH261872   1.265   4.902   1.365 -0.9342  0.1708 -0.1729
13486TIP3    H161873   1.230   4.871   1.281 -0.6955  0.8458 -0.5212
13486TIP3    H261874   1.341   4.955   1.342 -0.2912 -0.4230  0.5250
13487TIP3   OH261875   1.500   1.971  16.417  0.2457 -0.1262 -0.0957
13487TIP3    H161876   1.591   1.943  16.422  0.1776 -0.3994 -0.3799
13487TIP3    H261877   1.474   1.985  16.508  0.9945  1.3419 -0.0727
13488TIP3   OH261878   4.606   1.575   6.075 -0.3370  0.7854 -0.4127
13488TIP3    H161879   4.684   1.573   6.021  1.1943 -0.8606  1.6771
13488TIP3    H261880   4.613   1.657   6.124  0.7536  0.1245  0.5944
13489TIP3   OH261881   0.844   0.819  10.388 -0.1686  0.2565  0.3678
13489TIP3    H161882   0.811   0.764  10.318  0.7076 -0.3390  0.4102
13489TIP3    H261883   0.933   0.787  10.405 -0.4553  0.2065  1.9282
13490TIP3   OH261884   1.333   5.043  16.693  0.0108 -0.1607  0.0878
13490TIP3    H161885   1.398   5.093  16.742  0.9108  0.1097 -1.3213
13490TIP3    H261886   1.248   5.079  16.722  0.5633  0.9546  0.3879
13491TIP3   OH261887   1.970   3.692   4.186 -0.3523  0.4109  0.2567
13491TIP3    H161888   2.048   3.636   4.181 -1.4463 -1.0813 -0.9199
13491TIP3    H261889   1.959   3.710   4.279  0.4134 -0.7958  0.5952
13492TIP3   OH261890   0.251   4.346  13.744 -0.6635  0.4270 -0.8001
13492TIP3    H161891   0.320   4.413  13.751  0.1940 -0.4167 -0.9844
13492TIP3    H261892   0.253   4.301  13.829 -1.3907  0.7746 -0.5954
13493TIP3   OH261893   4.308   0.284   2.162 -0.0288  0.0307 -0.6341
13493TIP3    H161894   4.278   0.338   2.235 -1.4765 -1.2192 -0.2599
13493TIP3    H261895   4.376   0.228   2.201 -1.7826 -1.6357  0.1870
13494TIP3   OH261896   6.033   5.921  16.207  0.2800 -0.8762 -0.2283
13494TIP3    H161897   6.006   5.910  16.116  0.3977 -3.1455 -0.0298
13494TIP3    H261898   5.968   5.872  16.257  0.3529  0.1585  0.9114
13495TIP3   OH261899   1.708   6.235   3.031 -0.2781  0.1310  0.1589
13495TIP3    H161900   1.784   6.290   3.050  0.4313 -0.8050  0.0837
13495TIP3    H261901   1.708   6.169   3.099  0.5720 -1.4975 -1.3459
13496TIP3   OH261902   3.637   6.385  14.408 -0.1337 -0.4452  0.4567
13496TIP3    H161903   3.615   6.441  14.334 -0.3377 -0.6482  0.3602
13496TIP3    H261904   3.617   6.438  14.485  0.4624 -0.0886  0.3671
13497TIP3   OH261905   1.165   4.407  14.910 -0.6642 -0.0427  0.0920
13497TIP3    H161906   1.156   4.413  15.006 -1.8122  0.4410 -0.0346
13497TIP3    H261907   1.200   4.319  14.895  0.5735  0.2539  1.0095
13498TIP3   OH261908   5.363   6.642   0.405 -0.3369 -0.0140 -0.0401
13498TIP3    H161909   5.434   6.590   0.445 -0.1302 -0.7663 -1.3347
13498TIP3    H261910   5.303   6.577   0.370 -2.1458  0.6020  1.7479
13499TIP3   OH261911   2.976   1.187  16.698  0.5867 -0.4390  0.0579
13499TIP3    H161912   2.920   1.143  16.761  0.7340  0.9497  1.2210
13499TIP3    H261913   3.044   1.228  16.751  1.0228  0.3241 -1.0517
13500TIP3   OH261914   2.524   5.117  11.421 -0.7146 -0.1571  0.3228
13500TIP3    H161915   2.430   5.103  11.425 -0.4453 -2.1881  0.4019
13500TIP3    H261916   2.546   5.112  11.328 -0.7372  0.8507  0.2529
13501TIP3   OH261917   6.248   0.546   3.243  0.0799  0.7029 -0.1403
13501TIP3    H161918   6.312   0.532   3.313 -0.8417 -0.1014  0.5711
13501TIP3    H261919   6.243   0.462   3.198 -0.9080  0.5670  0.1985
13502TIP3   OH261920   0.189   1.546  16.327 -0.5709  0.1535 -0.1295
13502TIP3    H161921   0.162   1.594  16.405 -1.1524 -0.3259 -0.0237
13502TIP3    H261922   0.219   1.461  16.360  2.7045  1.2092 -0.0686
13503TIP3   OH261923   0.204   6.044   2.150 -0.2355 -0.2590 -0.4255
13503TIP3    H161924   0.234   6.086   2.230  0.0069  0.9048 -1.1027
13503TIP3    H261925   0.128   6.096   2.122 -1.7055 -1.9754  0.2024
13504TIP3   OH261926   6.654   0.427   4.177  0.0101  0.3064  0.6107
13504TIP3    H161927   6.730   0.463   4.130  0.4254 -0.3508  0.7774
13504TIP3    H261928   6.628   0.351   4.125 -1.7932  1.6532 -0.5840
13505TIP3   OH261929   1.248   4.590  14.558  0.1765  0.0256 -0.1528
13505TIP3    H161930   1.316   4.525  14.539 -0.3568 -0.3812 -0.7162
13505TIP3    H261931   1.225   4.574  14.650  1.6909  0.9861  0.4300
13506TIP3   OH261932   4.890   2.746  14.580  0.2001 -0.3233 -0.1682
13506TIP3    H161933   4.880   2.701  14.664 -1.0217  0.8507  0.3441
13506TIP3    H261934   4.897   2.675  14.516 -0.8741 -1.2639  0.7051
13507TIP3   OH261935   0.393   5.458  16.509  0.3437 -0.0987  0.1641
13507TIP3    H161936   0.350   5.394  16.453  0.2087 -0.1405  0.3169
13507TIP3    H261937   0.323   5.496  16.562  0.7045 -1.3978  1.6413
13508TIP3   OH261938   2.701   4.934   2.311 -0.0286 -0.1454 -0.0905
13508TIP3    H161939   2.621   4.934   2.362  0.6425  0.5539  0.9924
13508TIP3    H261940   2.711   5.024   2.281  0.0933 -0.3409 -0.6568
13509TIP3   OH261941   6.687   3.504   1.149 -0.4245 -0.3025  0.5629
13509TIP3    H161942   6.595   3.527   1.162 -0.4340  0.8836 -1.2339
13509TIP3    H261943   6.684   3.423   1.097 -0.5595  0.9074 -1.4483
13510TIP3   OH261944   5.455   1.850   2.399  0.4755 -0.0955 -0.3773
13510TIP3    H161945   5.442   1.759   2.369  2.3278 -0.6753  0.4395
13510TIP3    H261946   5.465   1.900   2.318 -0.8369 -0.5496 -0.8468
13511TIP3   OH261947   3.536   5.169   1.104  0.2216  0.8019 -0.1137
13511TIP3    H161948   3.499   5.177   1.016  0.7186  0.5211 -0.3589
13511TIP3    H261949   3.569   5.079   1.107  1.1599  1.1337 -0.0252
13512TIP3   OH261950   6.014   5.759  15.767 -0.2804 -0.1302  0.8623
13512TIP3    H161951   6.056   5.676  15.790  0.9440 -0.2004 -1.3230
13512TIP3    H261952   6.087   5.819  15.751 -1.0681  0.5074 -0.5015
13513TIP3   OH261953   2.473   2.674  14.385 -0.3244  0.0407  0.3444
13513TIP3    H161954   2.492   2.680  14.291 -0.2063  0.2389  0.3786
13513TIP3    H261955   2.528   2.602  14.417 -0.0002  0.2888  0.3501
13514TIP3   OH261956   0.179   4.326  12.617  0.1129 -0.6066 -0.1780
13514TIP3    H161957   0.190   4.244  12.568 -0.0365 -0.6592 -0.1237
13514TIP3    H261958   0.255   4.379  12.592  0.1825 -0.7412 -0.2539
13515TIP3   OH261959   6.667   2.952  15.742 -0.3457  0.5541 -0.0985
13515TIP3    H161960   6.642   3.022  15.682 -0.8098 -1.1032 -1.9419
13515TIP3    H261961   6.587   2.902  15.757  0.2691 -0.4383 -0.0023
13516TIP3   OH261962   2.030   4.601   6.663  0.8522 -0.5231 -0.3309
13516TIP3    H161963   2.032   4.688   6.621 -0.8282 -0.7915 -1.0317
13516TIP3    H261964   2.100   4.605   6.728  0.9744  1.2815 -0.5064
13517TIP3   OH261965   2.248   0.728  14.651 -0.3190 -0.4745 -0.0952
13517TIP3    H161966   2.215   0.678  14.726  0.8763 -2.3937 -0.7892
13517TIP3    H261967   2.190   0.705  14.579 -1.3313  1.2041  0.1112
13518TIP3   OH261968   4.386   1.792   1.635 -1.1442  0.5366 -0.1787
13518TIP3    H161969   4.309   1.778   1.690 -1.0460 -0.9510 -0.3781
13518TIP3    H261970   4.460   1.782   1.694 -1.0544  3.1810  0.2809
13519TIP3   OH261971   5.880   4.148   4.187  0.4317  0.2519 -0.2841
13519TIP3    H161972   5.853   4.211   4.253 -1.0538 -0.6426  0.0129
13519TIP3    H261973   5.825   4.168   4.111  0.9517  0.2039 -0.6817
13520TIP3   OH261974   1.687   0.826   0.087  0.0437 -0.4467 -0.1708
13520TIP3    H161975   1.708   0.780   0.168 -0.8035 -1.6230 -0.5977
13520TIP3    H261976   1.617   0.887   0.111  0.6150  0.0745  0.2209
13521TIP3   OH261977   2.381   4.096   5.546 -0.7449  0.4948  0.0050
13521TIP3    H161978   2.464   4.109   5.591 -1.5725  1.4876  1.3228
13521TIP3    H261979   2.394   4.017   5.493  1.2794  1.0763 -0.4555
13522TIP3   OH261980   5.078   1.320  12.613 -0.3449 -0.2281  0.1657
13522TIP3    H161981   5.007   1.337  12.552 -0.0003 -0.5065 -0.3208
13522TIP3    H261982   5.147   1.381  12.588 -0.5372  0.2923  0.8668
13523TIP3   OH261983   1.312   1.137  10.810 -0.1660  0.0838 -0.8393
13523TIP3    H161984   1.219   1.121  10.796 -0.6438  1.4763  0.4547
13523TIP3    H261985   1.331   1.215  10.758 -0.5378  1.7016  1.3033
13524TIP3   OH261986   1.194   3.609   2.554  0.1775  0.7253  0.2514
13524TIP3    H161987   1.248   3.604   2.633  0.0409  3.0640  0.5543
13524TIP3    H261988   1.105   3.588   2.585  0.4124 -0.1507  0.3475
13525TIP3   OH261989   5.384   5.883  17.138  0.4461  0.2789  0.5250
13525TIP3    H161990   5.430   5.963  17.109  1.6568  0.9188  3.7853
13525TIP3    H261991   5.441   5.812  17.110  1.9630  0.9048  1.8550
13526TIP3   OH261992   4.601   2.650   0.261 -0.0188  0.1345  0.4244
13526TIP3    H161993   4.529   2.662   0.324  0.0852 -0.1385  0.5960
13526TIP3    H261994   4.630   2.560   0.275 -0.1118  0.0099 -0.1383
13527TIP3   OH261995   4.553   0.949   6.422  0.1810 -0.3231 -0.2124
13527TIP3    H161996   4.523   1.033   6.458 -0.7353  0.1148 -1.9126
13527TIP3    H261997   4.616   0.974   6.355  0.0253 -1.0071 -0.6157
13528TIP3   OH261998   1.270   4.992  16.119  0.1540  0.3887 -0.4544
13528TIP3    H161999   1.208   4.947  16.177 -1.1104  0.1380 -1.9167
13528TIP3    H262000   1.354   4.950  16.135  0.0012  0.8178  1.6871
13529TIP3   OH262001   6.047   1.637   4.157 -0.3515 -0.0876  0.0383
13529TIP3    H162002   6.005   1.596   4.081 -2.5668  1.4928  0.3259
13529TIP3    H262003   6.119   1.689   4.119  1.0445 -2.3141 -0.5305
13530TIP3   OH262004   5.508   2.240   3.927 -0.0701  0.1462  0.1207
13530TIP3    H162005   5.424   2.206   3.961  0.1058  0.1371  0.5561
13530TIP3    H262006   5.564   2.162   3.922  0.0475  0.2221  0.2479
13531TIP3   OH262007   1.795   1.781  12.684 -0.3053 -0.1503 -0.1571
13531TIP3    H162008   1.773   1.689  12.670  0.9302 -0.6244  0.8392
13531TIP3    H262009   1.888   1.787  12.663 -0.4981  1.0115 -0.7821
13532TIP3   OH262010   1.950   0.366   3.538  0.2121  0.6405  0.2717
13532TIP3    H162011   1.855   0.356   3.541  0.1527  0.3115 -1.5100
13532TIP3    H262012   1.964   0.455   3.507  0.5067  0.8117  0.8747
13533TIP3   OH262013   0.121   2.419  11.736 -0.1088  0.2318 -0.7369
13533TIP3    H162014   0.126   2.421  11.831  1.8445 -2.2224 -0.6888
13533TIP3    H262015   0.198   2.469  11.707 -0.9383  1.3559 -1.0982
13534TIP3   OH262016   3.182   4.700   2.317 -0.3478 -0.4445 -0.0243
13534TIP3    H162017   3.099   4.731   2.282 -0.8154 -0.9097  0.6562
13534TIP3    H262018   3.159   4.657   2.400  0.7787  1.1260  1.1619
13535TIP3   OH262019   3.815   4.527  11.803  0.1904  0.1919  0.4607
13535TIP3    H162020   3.752   4.459  11.780  1.3831 -1.1966  1.1658
13535TIP3    H262021   3.790   4.553  11.892  0.2159  0.1251  0.4873
13536TIP3   OH262022   4.531   0.070  16.754  0.3322 -0.2708 -0.3395
13536TIP3    H162023   4.519   0.159  16.722 -1.0827 -1.0966 -2.2674
13536TIP3    H262024   4.625   0.054  16.744  0.4495  0.6789 -0.8816
13537TIP3   OH262025   3.210   3.252   6.021 -0.0065  0.5555 -0.7464
13537TIP3    H162026   3.203   3.242   5.926  0.6228  0.2524 -0.7664
13537TIP3    H262027   3.155   3.182   6.056  0.2552  0.2698 -0.8943
13538TIP3   OH262028   4.361   1.138   0.149 -0.7159  0.3199 -0.0106
13538TIP3    H162029   4.350   1.105   0.238  0.8922  2.2551  1.0112
13538TIP3    H262030   4.280   1.186   0.130 -1.9102 -1.7607 -0.4516
13539TIP3   OH262031   3.316   2.207  15.446 -0.1208 -0.5133  0.4881
13539TIP3    H162032   3.289   2.177  15.360  2.0788 -1.2627 -0.0172
13539TIP3    H262033   3.320   2.127  15.499 -0.0368 -0.2625  0.8653
13540TIP3   OH262034   6.693   3.516   3.410 -0.3060  0.0917  0.0161
13540TIP3    H162035   6.614   3.464   3.403 -0.2216 -0.2854  1.6074
13540TIP3    H262036   6.760   3.465   3.364 -0.8350  0.1810 -0.8941
13541TIP3   OH262037   3.171   3.953  15.557  0.3140 -0.1640 -0.6059
13541TIP3    H162038   3.091   3.920  15.599  0.4536  0.5576  0.2471
13541TIP3    H262039   3.240   3.938  15.622  0.8479 -0.6249 -1.2717
13542TIP3   OH262040   0.487   4.868  15.627 -0.1988 -0.2891 -0.3559
13542TIP3    H162041   0.560   4.906  15.577 -0.4507 -0.3913 -0.8110
13542TIP3    H262042   0.501   4.773  15.622 -0.0887 -0.2906 -0.0211
13543TIP3   OH262043   0.991   3.368   3.150 -0.0604  0.2373 -0.2836
13543TIP3    H162044   1.057   3.425   3.189  0.1414  1.1749 -1.9259
13543TIP3    H262045   0.907   3.410   3.170 -0.0578  0.0167  0.2220
13544TIP3   OH262046   5.773   1.050  13.118 -1.0039  0.6538  0.3477
13544TIP3    H162047   5.714   1.126  13.125 -0.1642  1.2673  0.9076
13544TIP3    H262048   5.849   1.074  13.171 -0.1194 -0.0134 -0.5953
13545TIP3   OH262049   6.186   3.664  12.451 -0.3421 -0.0022  0.2345
13545TIP3    H162050   6.165   3.709  12.369 -0.0898 -0.4345 -0.0746
13545TIP3    H262051   6.229   3.730  12.505 -1.6425  0.6466  0.5263
13546TIP3   OH262052   4.811   2.947   1.104 -1.0640 -0.5558  0.2491
13546TIP3    H162053   4.844   3.036   1.097  0.6202 -1.2124 -0.7708
13546TIP3    H262054   4.749   2.939   1.030 -1.9333  0.0197  0.8929
13547TIP3   OH262055   4.833   1.804   1.638 -0.0669  0.4921  0.3287
13547TIP3    H162056   4.765   1.777   1.700  2.3215 -1.2667  2.3529
13547TIP3    H262057   4.876   1.878   1.680  0.0263  0.8620 -0.4069
13548TIP3   OH262058   3.989   5.125   6.784 -0.1059 -0.1200  0.0927
13548TIP3    H162059   3.990   5.085   6.697 -0.7201 -1.2910  0.6016
13548TIP3    H262060   4.013   5.217   6.768 -3.6931  0.6802 -1.8081
13549TIP3   OH262061   1.489   4.939  12.713  0.2268  0.4232  0.1088
13549TIP3    H162062   1.442   5.018  12.742  0.6510 -0.0274  2.1323
13549TIP3    H262063   1.437   4.866  12.748  1.2294 -0.1249  0.4812
13550TIP3   OH262064   4.704   2.693  15.053  0.3077  0.3073 -0.2824
13550TIP3    H162065   4.786   2.710  15.100 -0.4562  2.3443  0.4303
13550TIP3    H262066   4.650   2.646  15.116  0.0536  1.1854  0.1840
13551TIP3   OH262067   5.578   3.297   2.982 -0.0827  0.0782 -0.2799
13551TIP3    H162068   5.506   3.235   2.990 -0.0011  0.1296  1.2064
13551TIP3    H262069   5.644   3.252   2.930 -0.7883 -0.3434 -0.8207
13552TIP3   OH262070   6.317   6.173  14.355 -0.2892  0.3874 -0.4474
13552TIP3    H162071   6.368   6.093  14.364  0.0360  0.4391 -1.5913
13552TIP3    H262072   6.284   6.192  14.443  4.0074  1.9473  1.0823
13553TIP3   OH262073   4.364   4.305   5.358  0.1728 -1.0966  0.2973
13553TIP3    H162074   4.299   4.288   5.427  0.4796 -1.9408  0.3947
13553TIP3    H262075   4.406   4.220   5.343  1.1654 -0.6000  0.1429
13554TIP3   OH262076   0.699   3.964  13.906  0.5425  0.3917 -0.3192
13554TIP3    H162077   0.616   4.004  13.882  0.5264  0.1233 -0.7256
13554TIP3    H262078   0.765   4.028  13.881  0.5454  0.0045 -1.3764
13555TIP3   OH262079   5.215   2.763  13.684  0.9016 -0.2010 -0.1252
13555TIP3    H162080   5.127   2.798  13.697  1.1936  0.3513  0.4211
13555TIP3    H262081   5.214   2.677  13.725  1.0940  0.4968  1.4008
13556TIP3   OH262082   5.877   5.800   1.266 -0.1168  0.4167 -0.4304
13556TIP3    H162083   5.790   5.823   1.233 -1.2480 -0.9174  1.4350
13556TIP3    H262084   5.892   5.712   1.231  0.1817  0.3697 -0.1798
13557TIP3   OH262085   0.244   0.537  15.256 -0.2541  0.0321  0.0357
13557TIP3    H162086   0.316   0.493  15.210 -0.3373 -0.1098  0.0420
13557TIP3    H262087   0.219   0.476  15.325  0.0685  0.3763  0.4622
13558TIP3   OH262088   2.585   4.064  13.181 -0.2719 -0.1963 -0.6740
13558TIP3    H162089   2.640   4.141  13.192  3.9652 -3.1084  0.9313
13558TIP3    H262090   2.559   4.039  13.269  0.8356 -2.0860 -0.8300
13559TIP3   OH262091   3.663   2.313  14.140 -0.5966  0.9561  0.2336
13559TIP3    H162092   3.628   2.235  14.183  2.0819 -1.2539 -1.2901
13559TIP3    H262093   3.699   2.366  14.211  0.5845 -0.8899  1.0831
13560TIP3   OH262094   5.198   2.495  12.223  0.2387  0.2196 -0.0167
13560TIP3    H162095   5.205   2.588  12.247 -0.7084  0.3271 -0.1114
13560TIP3    H262096   5.189   2.495  12.128 -1.3414  0.1607  0.0986
13561TIP3   OH262097   6.476   4.716   6.347  0.3653  0.1784 -0.4731
13561TIP3    H162098   6.514   4.636   6.311  1.8419  0.4434  0.4121
13561TIP3    H262099   6.386   4.691   6.369  0.9328 -1.4304  0.2678
13562TIP3   OH262100   0.859   3.215   2.079 -0.2056 -0.5384  0.4072
13562TIP3    H162101   0.781   3.268   2.094  1.3186  2.1186 -0.3460
13562TIP3    H262102   0.893   3.246   1.995  1.1366 -2.3269  0.2310
13563TIP3   OH262103   1.407   6.456  17.159 -0.4531 -0.1119  0.6998
13563TIP3    H162104   1.315   6.431  17.167 -0.0809 -1.8503 -0.1447
13563TIP3    H262105   1.438   6.461  17.250 -1.3979  0.6189  0.9956
13564TIP3   OH262106   5.279   0.684   3.452 -0.1517 -0.1980  0.1061
13564TIP3    H162107   5.254   0.607   3.400  0.9690 -0.2781 -0.3577
13564TIP3    H262108   5.285   0.652   3.542 -0.2193 -0.5309 -0.0066
13565TIP3   OH262109   0.736   4.710   1.513  0.0787  0.1237 -0.6819
13565TIP3    H162110   0.769   4.621   1.503  1.6726  0.3779  1.5423
13565TIP3    H262111   0.795   4.764   1.461  0.2066  0.0467 -0.6176
13566TIP3   OH262112   4.380   0.633  12.446  0.3301  0.2904  0.8749
13566TIP3    H162113   4.382   0.631  12.350 -1.5018 -2.3410  0.7549
13566TIP3    H262114   4.459   0.587  12.473  0.5206  0.4528  0.5872
13567TIP3   OH262115   1.529   0.975   0.476 -0.1194 -0.2345 -0.1257
13567TIP3    H162116   1.577   1.045   0.519  0.5082 -0.5563 -0.2960
13567TIP3    H262117   1.541   0.899   0.534  0.2303 -0.5158 -0.5611
13568TIP3   OH262118   0.544   5.321   3.112 -0.4642 -0.2394 -0.0418
13568TIP3    H162119   0.476   5.311   3.045  2.3096  1.6415 -3.5226
13568TIP3    H262120   0.520   5.402   3.158 -0.1462  1.0143 -1.9632
13569TIP3   OH262121   0.052   3.229  12.898 -0.2021 -0.1122 -0.3611
13569TIP3    H162122   0.045   3.230  12.802 -1.5797 -1.7431 -0.3147
13569TIP3    H262123  -0.029   3.269  12.929  0.6649  1.3267  0.1667
13570TIP3   OH262124   5.171   0.329   0.962 -0.3207 -0.4614 -0.3936
13570TIP3    H162125   5.104   0.385   0.922  0.4949  0.3657 -0.6322
13570TIP3    H262126   5.183   0.365   1.050  0.6446  0.1471 -0.7584
13571TIP3   OH262127   5.547   6.269   1.080  0.3626 -0.7923  0.4225
13571TIP3    H162128   5.576   6.347   1.128 -0.4537 -0.6302  0.6735
13571TIP3    H262129   5.593   6.273   0.997  0.3185 -0.0241  0.4288
13572TIP3   OH262130   4.654   2.850  12.056  0.0355 -0.0201  0.0638
13572TIP3    H162131   4.701   2.767  12.055 -0.2840 -0.2063  0.1870
13572TIP3    H262132   4.562   2.825  12.046 -0.2876  0.1371  2.0734
13573TIP3   OH262133   6.063   3.625   4.697 -0.5393  0.7024  0.1901
13573TIP3    H162134   6.011   3.697   4.661 -0.5116  0.1765 -0.9494
13573TIP3    H262135   5.998   3.564   4.732 -0.8751 -0.6294 -2.4806
13574TIP3   OH262136   5.185   4.229   5.492 -0.0159  0.2470  0.6166
13574TIP3    H162137   5.279   4.224   5.480 -0.2397  0.8760 -1.8844
13574TIP3    H262138   5.153   4.280   5.417 -2.0256  3.0206  3.1014
13575TIP3   OH262139   1.288   6.504  11.522 -0.2764 -0.3973 -0.2800
13575TIP3    H162140   1.349   6.431  11.532  0.3691  0.1845  0.1740
13575TIP3    H262141   1.220   6.488  11.587  0.7840  0.2834  1.0676
13576TIP3   OH262142   5.868   2.085  15.206 -0.0325  0.2197  0.2988
13576TIP3    H162143   5.924   2.162  15.215  0.1144  0.1231  0.2123
13576TIP3    H262144   5.883   2.035  15.286  1.3652 -0.6984 -0.5034
13577TIP3   OH262145   2.225   4.773   2.007 -0.2688  0.0499  0.7528
13577TIP3    H162146   2.179   4.829   1.945 -0.4313  0.0997  0.9186
13577TIP3    H262147   2.284   4.721   1.953  0.3912  0.8692  0.6546
13578TIP3   OH262148   1.222   4.191  14.531 -0.5596  0.5847 -0.0693
13578TIP3    H162149   1.291   4.253  14.556 -0.1710  0.3667 -0.5805
13578TIP3    H262150   1.141   4.236  14.553 -0.2544  0.6792  0.9295
13579TIP3   OH262151   4.893   2.416   5.590 -0.0386  0.0609  0.3159
13579TIP3    H162152   4.915   2.492   5.644 -1.0905  0.8979 -0.3820
13579TIP3    H262153   4.974   2.396   5.543  0.1118  1.1455  0.0728
13580TIP3   OH262154   0.463   2.763  17.107 -0.4684  0.6966  0.0399
13580TIP3    H162155   0.455   2.819  17.185  1.1044 -2.3961  2.6338
13580TIP3    H262156   0.555   2.739  17.105 -0.3800  0.9311 -3.1186
13581TIP3   OH262157   3.457   1.982  11.702 -0.0801  0.0370  0.7056
13581TIP3    H162158   3.364   1.960  11.697 -0.2448  0.7400  0.6134
13581TIP3    H262159   3.459   2.078  11.704  0.6735  0.0347  0.1869
13582TIP3   OH262160   0.500   1.942  12.910 -0.0482  0.0951  0.4598
13582TIP3    H162161   0.504   1.846  12.905  0.3823  0.1304  0.1057
13582TIP3    H262162   0.498   1.960  13.004 -0.7899 -0.2816  0.5329
13583TIP3   OH262163   5.194   3.677  15.449 -0.1558 -0.3356  0.6632
13583TIP3    H162164   5.218   3.589  15.422 -1.5664 -0.1727 -1.3597
13583TIP3    H262165   5.200   3.729  15.369  0.2179  1.3259  1.7217
13584TIP3   OH262166   6.312   4.739   5.530 -0.0172  0.8961 -0.0833
13584TIP3    H162167   6.220   4.763   5.519  0.5114  1.8526 -3.9987
13584TIP3    H262168   6.325   4.664   5.472  1.8625  1.4994 -0.5315
13585TIP3   OH262169   2.555   4.443   0.794 -0.0177 -0.4931 -0.3078
13585TIP3    H162170   2.495   4.507   0.756  1.1117 -0.1824 -1.6571
13585TIP3    H262171   2.636   4.453   0.744  0.5555 -2.1954  0.2057
13586TIP3   OH262172   5.841   1.651   4.349  0.0975 -0.3840  0.4366
13586TIP3    H162173   5.872   1.601   4.424  0.2972 -2.3615 -0.8750
13586TIP3    H262174   5.917   1.660   4.292 -0.8025 -2.2555 -1.2155
13587TIP3   OH262175   2.563   3.562  15.476 -0.1924  0.1582 -0.1673
13587TIP3    H162176   2.479   3.572  15.521 -1.0138  0.6948 -1.7196
13587TIP3    H262177   2.580   3.468  15.476 -0.0827  0.1573  1.3617
13588TIP3   OH262178   1.593   3.522  10.533 -0.4624  0.2631  0.3329
13588TIP3    H162179   1.675   3.550  10.493 -1.8958  1.6057 -1.8562
13588TIP3    H262180   1.587   3.428  10.512  0.4591  0.1563  0.4951
13589TIP3   OH262181   2.461   2.042   5.439  0.0980  0.1940 -0.1310
13589TIP3    H162182   2.472   2.090   5.521  1.9633  1.1879 -0.9175
13589TIP3    H262183   2.531   2.073   5.383 -1.5904  0.1025 -2.4250
13590TIP3   OH262184   1.723   2.500  14.806 -0.3178  0.0212 -0.2826
13590TIP3    H162185   1.677   2.557  14.744 -2.2221 -0.8468  0.2483
13590TIP3    H262186   1.772   2.439  14.752  0.0665  0.8526 -0.8816
13591TIP3   OH262187   4.761   0.264  13.805  0.1071 -0.1364 -0.1004
13591TIP3    H162188   4.755   0.241  13.898  0.7290 -0.4383 -0.1240
13591TIP3    H262189   4.685   0.223  13.764  1.3652 -2.5259 -0.2043
13592TIP3   OH262190   0.726   3.055  17.164  0.3056 -0.0688  0.4156
13592TIP3    H162191   0.812   3.091  17.186  0.7986 -0.8086 -0.2356
13592TIP3    H262192   0.744   2.965  17.135 -0.8189 -0.6410  1.4018
13593TIP3   OH262193   2.580   5.444   2.077 -0.1363 -0.8876 -0.2142
13593TIP3    H162194   2.602   5.491   2.158 -0.8534 -0.4760 -0.2512
13593TIP3    H262195   2.486   5.459   2.065  0.3623  1.1147 -2.4150
13594TIP3   OH262196   0.267   3.205   4.515  0.3406 -0.0600  0.4291
13594TIP3    H162197   0.317   3.286   4.526  1.6288 -1.0519  2.4051
13594TIP3    H262198   0.307   3.163   4.439  0.7235  0.3984  0.3710
13595TIP3   OH262199   6.428   5.396  12.279 -0.6306  0.2354  0.0273
13595TIP3    H162200   6.412   5.405  12.373  0.3141 -1.0557  0.3346
13595TIP3    H262201   6.462   5.481  12.253 -0.4485  0.4612  0.9536
13596TIP3   OH262202   2.952   3.103  11.642  0.1551  0.1231  0.3443
13596TIP3    H162203   3.002   3.123  11.563  0.2500  2.6620  0.9690
13596TIP3    H262204   2.861   3.116  11.616  0.1448  0.3735  0.5137
13597TIP3   OH262205   6.378   2.751  15.358 -0.6977 -0.0491 -0.1828
13597TIP3    H162206   6.381   2.842  15.327 -2.4073 -0.0156 -0.3600
13597TIP3    H262207   6.329   2.756  15.440  1.6082 -0.4790  1.3160
13598TIP3   OH262208   6.607   1.007  10.279 -0.2026  0.0962  0.1876
13598TIP3    H162209   6.573   0.922  10.251 -0.1367  0.6041 -1.5084
13598TIP3    H262210   6.702   1.000  10.267 -0.0675  0.0043  1.2241
13599TIP3   OH262211   5.456   1.428   5.526  0.0449 -0.0086 -0.3510
13599TIP3    H162212   5.524   1.491   5.553 -2.0911  2.4132 -0.2160
13599TIP3    H262213   5.427   1.461   5.441 -0.4335 -1.5000 -0.7874
13600TIP3   OH262214   1.538   3.061  15.740 -0.5692  0.7234 -0.1867
13600TIP3    H162215   1.480   2.988  15.762 -0.7007  0.7675 -0.3854
13600TIP3    H262216   1.487   3.113  15.678  0.0381  0.2674 -1.0805
13601TIP3   OH262217   3.987   2.612  13.273  0.1596 -0.2270 -0.2686
13601TIP3    H162218   3.991   2.707  13.282  0.5832 -0.3733  1.4968
13601TIP3    H262219   3.895   2.593  13.257  0.0090  0.4500 -0.2432
13602TIP3   OH262220   1.937   0.039  15.658  0.5086  0.3240 -0.5193
13602TIP3    H162221   1.866   0.005  15.604  0.7605 -0.1382 -0.5684
13602TIP3    H262222   2.000  -0.033  15.663  0.8949  0.6687 -0.3372
13603TIP3   OH262223   3.325   4.369  16.868  0.6226  0.1003  0.2047
13603TIP3    H162224   3.271   4.417  16.931  0.4407 -1.2770  1.1415
13603TIP3    H262225   3.382   4.314  16.922  0.6377 -0.9332 -0.8082
13604TIP3   OH262226   1.107   0.170  12.943  0.3730  0.1907 -0.4711
13604TIP3    H162227   1.014   0.147  12.943  0.6132 -0.8854 -1.7100
13604TIP3    H262228   1.149   0.102  12.996  0.3891  1.0986  0.7256
13605TIP3   OH262229   3.167   3.621   3.960  0.0189  0.3116  0.3500
13605TIP3    H162230   3.125   3.707   3.965  0.1117  0.2959  1.6058
13605TIP3    H262231   3.237   3.632   3.895 -1.8628  0.3371 -1.8043
13606TIP3   OH262232   0.088   3.815  15.135  0.3533  0.1738  0.1827
13606TIP3    H162233   0.158   3.875  15.109 -0.7837  1.7933  0.7276
13606TIP3    H262234   0.098   3.740  15.076  1.6868  0.9791 -0.6670
13607TIP3   OH262235   5.323   5.710  12.747  0.5114  0.6645  0.2061
13607TIP3    H162236   5.332   5.624  12.707  0.9008  0.9725 -0.3798
13607TIP3    H262237   5.299   5.691  12.838  0.3185 -0.0519  0.0176
13608TIP3   OH262238   5.821   1.408  16.007 -0.3357  0.1056 -0.5173
13608TIP3    H162239   5.843   1.500  16.021 -0.7585  0.3274 -1.2805
13608TIP3    H262240   5.833   1.395  15.913  0.4685 -0.8206 -0.3074
13609TIP3   OH262241   6.375   0.803   5.602 -0.1212  0.2086  0.2402
13609TIP3    H162242   6.346   0.761   5.521  1.6856 -1.5788  0.4513
13609TIP3    H262243   6.384   0.731   5.664 -1.0827  1.4946  1.9616
13610TIP3   OH262244   6.176   4.365   0.317  0.7085  0.0034 -0.4171
13610TIP3    H162245   6.186   4.362   0.222 -0.0427 -0.4668 -0.4927
13610TIP3    H262246   6.265   4.372   0.351  0.9852  0.1120 -1.1525
13611TIP3   OH262247   4.520   0.329  16.678  0.0503  0.1198 -0.0907
13611TIP3    H162248   4.573   0.359  16.751  0.2216 -0.6815  0.1183
13611TIP3    H262249   4.474   0.408  16.648  0.5694  0.6084  0.3761
13612TIP3   OH262250   3.808   6.029  17.108  0.3422 -0.2466  0.1319
13612TIP3    H162251   3.890   5.981  17.119  1.3604  1.6221  1.3390
13612TIP3    H262252   3.815   6.066  17.020  0.5920 -0.4562  0.0614
13613TIP3   OH262253   2.536   3.141  15.878  0.0346 -0.5131 -0.0439
13613TIP3    H162254   2.520   3.047  15.864  2.2710 -0.9936  0.2088
13613TIP3    H262255   2.533   3.152  15.973 -1.3529 -0.0593 -0.1172
13614TIP3   OH262256   5.335   2.771   0.678  0.0152  0.5537  0.4041
13614TIP3    H162257   5.392   2.834   0.633  0.3455  0.5404  0.8032
13614TIP3    H262258   5.270   2.826   0.722 -1.2327  0.5258 -1.2841
13615TIP3   OH262259   1.167   1.969  13.181 -0.5871 -0.4170  0.4089
13615TIP3    H162260   1.213   2.049  13.156 -0.7129 -0.1344  1.0885
13615TIP3    H262261   1.167   1.916  13.101  0.2981 -0.1273  0.2055
13616TIP3   OH262262   2.386   5.260   4.661  0.1278  0.0245 -0.1025
13616TIP3    H162263   2.426   5.194   4.605  0.2843  0.4351 -0.4841
13616TIP3    H262264   2.460   5.309   4.696  0.1194 -1.0674  1.5561
13617TIP3   OH262265   0.471   3.959   5.745 -0.0808 -0.0752 -0.1349
13617TIP3    H162266   0.471   3.921   5.833  1.1801  0.4364  0.1061
13617TIP3    H262267   0.563   3.976   5.726 -0.4788  1.6576 -0.7454
13618TIP3   OH262268   2.848   0.754   5.934 -0.7160  0.2903  0.0644
13618TIP3    H162269   2.759   0.784   5.914 -0.8064  0.8458  1.2244
13618TIP3    H262270   2.870   0.797   6.017  0.2744 -0.5833  0.2797
13619TIP3   OH262271   6.775   1.086   5.936 -0.0015  0.0156  0.0416
13619TIP3    H162272   6.758   1.179   5.925 -1.8249 -0.4489 -1.5032
13619TIP3    H262273   6.703   1.055   5.992  0.6297 -0.4815  0.6014
13620TIP3   OH262274   3.775   0.631  12.322  0.2601 -0.4892  0.3573
13620TIP3    H162275   3.800   0.634  12.229  1.3881  0.5005  0.6706
13620TIP3    H262276   3.741   0.718  12.340 -0.5612 -0.8802  0.7277
13621TIP3   OH262277   1.870   3.241   6.507  0.3201  0.1676 -0.7044
13621TIP3    H162278   1.915   3.160   6.486  0.9343  0.3038  0.0519
13621TIP3    H262279   1.795   3.215   6.561  2.1759  0.2911  2.1286
13622TIP3   OH262280   4.638   3.011   0.900 -0.3405  0.2462 -0.1226
13622TIP3    H162281   4.546   2.986   0.887  0.0408 -0.5058 -1.6126
13622TIP3    H262282   4.687   2.953   0.842  0.9776  1.4909 -0.3045
13623TIP3   OH262283   5.444   4.269   2.847 -0.2636 -0.5086  0.2819
13623TIP3    H162284   5.473   4.182   2.873  0.0657 -0.4468  0.1197
13623TIP3    H262285   5.351   4.257   2.824 -0.2015 -0.8275  0.1933
13624TIP3   OH262286   0.324   1.838  11.692  0.4639 -0.8807 -0.0958
13624TIP3    H162287   0.372   1.892  11.754 -0.6458 -1.3344  1.2142
13624TIP3    H262288   0.329   1.886  11.609 -0.4690  1.2482  1.0077
13625TIP3   OH262289   2.131   3.998  16.421 -0.1437  0.0293  0.8719
13625TIP3    H162290   2.202   3.937  16.401 -1.1086 -0.5241 -1.1000
13625TIP3    H262291   2.174   4.070  16.467  1.5151 -0.7430  0.6150
13626TIP3   OH262292   0.395   6.423   6.219  0.2645 -0.4323 -0.2777
13626TIP3    H162293   0.301   6.426   6.232 -0.0387  2.7328 -2.0958
13626TIP3    H262294   0.421   6.335   6.246 -3.1219 -1.2923  0.5785
13627TIP3   OH262295   3.311   1.705   2.317  0.1785  0.4226  0.1619
13627TIP3    H162296   3.298   1.791   2.359 -0.9879  0.0006  0.7205
13627TIP3    H262297   3.372   1.659   2.374 -0.3834  0.3345  0.7057
13628TIP3   OH262298   5.032   4.474   3.751  0.2476  0.4007 -0.4721
13628TIP3    H162299   5.039   4.386   3.713  1.4956 -0.7040  2.0866
13628TIP3    H262300   5.120   4.494   3.782 -0.4127  1.7706  0.6471
13629TIP3   OH262301   0.766   6.667  12.647 -0.4200  0.1283  0.1871
13629TIP3    H162302   0.836   6.629  12.701  0.0936 -2.1729 -1.9391
13629TIP3    H262303   0.712   6.593  12.621  0.0388  0.8605 -3.3672
13630TIP3   OH262304   0.700   2.548   4.394 -0.5866  0.2203  0.1898
13630TIP3    H162305   0.757   2.477   4.366 -0.3190  0.5370 -0.0823
13630TIP3    H262306   0.612   2.520   4.370 -0.6315 -0.5965  1.2793
13631TIP3   OH262307   0.976   2.265  13.480  0.2670  0.5844  0.1641
13631TIP3    H162308   0.949   2.318  13.405  0.1533 -0.0191 -0.2253
13631TIP3    H262309   1.065   2.236  13.458  0.3931  0.7413  0.4531
13632TIP3   OH262310   1.186   4.450  10.631  0.0132 -0.2114 -0.2622
13632TIP3    H162311   1.253   4.471  10.565  0.2193 -1.0872 -0.3451
13632TIP3    H262312   1.198   4.357  10.647  1.0127  0.2629  2.1782
13633TIP3   OH262313   0.305   0.596  12.062  0.3187 -0.3015  0.6592
13633TIP3    H162314   0.361   0.656  12.111  0.1923  0.1037  0.3224
13633TIP3    H262315   0.338   0.600  11.972 -0.6819  0.5077  0.2960
13634TIP3   OH262316   3.333   1.080   3.878 -0.5484 -0.4064 -0.1278
13634TIP3    H162317   3.349   1.160   3.928  1.3824 -1.3741  0.9127
13634TIP3    H262318   3.238   1.078   3.865 -0.6357  2.1988 -0.4950
13635TIP3   OH262319   4.804   4.573   2.479  0.1246  0.3984  0.0337
13635TIP3    H162320   4.849   4.553   2.397 -1.5728 -1.4552 -0.5160
13635TIP3    H262321   4.799   4.669   2.480  0.4643  0.4833 -1.8751
13636TIP3   OH262322   5.908   1.365   5.151 -0.4596  0.5343  0.1933
13636TIP3    H162323   5.868   1.410   5.225 -0.3356  0.5320  0.2606
13636TIP3    H262324   5.880   1.417   5.075 -0.1798  0.8227  0.2871
13637TIP3   OH262325   3.813   2.181  16.587  0.3130  0.2400 -0.0447
13637TIP3    H162326   3.847   2.180  16.677 -0.0287  1.0691  0.0999
13637TIP3    H262327   3.731   2.229  16.593 -0.7634 -1.4593 -0.4541
13638TIP3   OH262328   3.048   3.326  10.848  0.4334  0.0035  0.4079
13638TIP3    H162329   3.135   3.307  10.882  0.3789 -1.0691 -0.0109
13638TIP3    H262330   3.007   3.381  10.916  0.1096 -2.5266  2.4340
13639TIP3   OH262331   0.697   3.648   0.506 -0.0343  0.1602  0.1851
13639TIP3    H162332   0.690   3.744   0.516  1.2621  0.2846 -0.0299
13639TIP3    H262333   0.782   3.634   0.465 -0.0693 -1.1199  0.5239
13640TIP3   OH262334   3.966   3.242   3.814  0.1969 -0.2893 -0.0383
13640TIP3    H162335   3.996   3.332   3.824  2.3330 -1.0651  1.4756
13640TIP3    H262336   3.894   3.234   3.877 -0.7172  0.6098 -0.9418
13641TIP3   OH262337   4.263   0.102  14.659 -0.0026  0.7406 -0.7145
13641TIP3    H162338   4.329   0.061  14.715  1.2341  3.4581 -0.0033
13641TIP3    H262339   4.195   0.132  14.719  0.9747  3.0181 -0.6465
13642TIP3   OH262340   1.357   3.846  16.506 -0.3343 -0.2846  0.8368
13642TIP3    H162341   1.312   3.929  16.522 -0.6304 -0.4779  1.0294
13642TIP3    H262342   1.435   3.849  16.561  1.0008  0.9141 -1.0070
13643TIP3   OH262343   1.163   4.351   4.413 -0.2515 -0.0322  0.5148
13643TIP3    H162344   1.153   4.427   4.470 -2.1285 -1.6100  2.4407
13643TIP3    H262345   1.093   4.360   4.348  1.8785  1.7581 -1.7274
13644TIP3   OH262346   5.202   6.641  14.820  0.0600 -0.2467  0.0828
13644TIP3    H162347   5.161   6.556  14.836 -0.9424 -0.4262 -2.8766
13644TIP3    H262348   5.293   6.620  14.801 -0.2007 -0.6830 -0.7078
13645TIP3   OH262349   1.241   6.188  15.117 -0.0383 -0.0612 -0.4100
13645TIP3    H162350   1.323   6.141  15.106 -0.2465 -0.8197  1.0850
13645TIP3    H262351   1.174   6.125  15.091 -0.3186 -0.6375  1.5937
13646TIP3   OH262352   2.114   5.549  15.663 -0.3680  0.1734  0.1401
13646TIP3    H162353   2.122   5.531  15.757 -0.3668 -0.6851 -0.0180
13646TIP3    H262354   2.037   5.499  15.636  0.4904 -0.7789 -0.6033
13647TIP3   OH262355   5.842   3.422   1.864  0.3686  0.0875 -0.0211
13647TIP3    H162356   5.758   3.376   1.869  0.4751 -0.1064 -0.0198
13647TIP3    H262357   5.836   3.489   1.933  0.8721 -1.0024  1.1303
13648TIP3   OH262358   3.180   4.711   5.216 -0.9325  0.3314  0.4916
13648TIP3    H162359   3.249   4.679   5.275 -2.5991  1.3381  3.1866
13648TIP3    H262360   3.120   4.637   5.207  0.2299 -0.4628 -1.6615
13649TIP3   OH262361   4.493   3.268  16.213 -0.2184 -0.5429 -0.1194
13649TIP3    H162362   4.444   3.206  16.160 -1.1450 -0.7240  0.9050
13649TIP3    H262363   4.426   3.325  16.251  0.3873 -0.6200  1.0989
13650TIP3   OH262364   3.015   2.181  13.370  0.2563 -0.8063 -0.3209
13650TIP3    H162365   2.984   2.262  13.329  1.0945 -0.0250  0.5520
13650TIP3    H262366   2.953   2.164  13.441  1.8270  0.8824  1.5734
13651TIP3   OH262367   3.093   5.748  11.328  0.0675 -0.1987  0.2521
13651TIP3    H162368   3.179   5.742  11.286  0.2883 -1.7938  0.8567
13651TIP3    H262369   3.111   5.743  11.422 -0.5861  1.0543  0.4566
13652TIP3   OH262370   1.026   2.507  14.204 -0.0487 -0.6645 -0.4939
13652TIP3    H162371   1.054   2.587  14.248 -1.1216 -0.7457  0.3814
13652TIP3    H262372   1.064   2.513  14.116 -1.4965  1.6262 -1.0478
13653TIP3   OH262373   4.347   4.244  14.621 -0.1814  0.2464 -0.3479
13653TIP3    H162374   4.258   4.250  14.584 -1.0961  0.9329  1.8234
13653TIP3    H262375   4.346   4.161  14.670  0.9216 -0.5191 -1.5745
13654TIP3   OH262376   1.297   3.655   3.962  0.1774  0.3526  1.0636
13654TIP3    H162377   1.322   3.639   3.871 -0.6739 -1.0608  1.0517
13654TIP3    H262378   1.319   3.747   3.977  1.9467  0.1656 -0.0294
13655TIP3   OH262379   2.854   2.589  13.773  0.4469  0.3128 -0.5797
13655TIP3    H162380   2.887   2.501  13.755 -0.8118  0.1317 -2.1297
13655TIP3    H262381   2.790   2.577  13.843  1.0789  0.1924  0.0012
13656TIP3   OH262382   5.731   2.869   1.644  0.0694  0.2258  0.2688
13656TIP3    H162383   5.715   2.782   1.680  0.6390  0.0711  0.1599
13656TIP3    H262384   5.681   2.871   1.563 -0.8072  0.3920  0.7938
13657TIP3   OH262385   6.061   2.769  13.239  0.2867 -0.1955 -0.1010
13657TIP3    H162386   6.084   2.702  13.174 -0.8435  0.2042 -0.9367
13657TIP3    H262387   6.108   2.743  13.318  1.4126 -0.8904 -0.9742
13658TIP3   OH262388   4.853   3.418  15.174 -0.2728  0.4667 -0.2582
13658TIP3    H162389   4.779   3.479  15.172 -0.5012  0.1755 -0.9393
13658TIP3    H262390   4.925   3.465  15.131  0.2017  1.0707  1.1521
13659TIP3   OH262391   6.656   3.352  13.655  0.2054  0.0434 -0.1605
13659TIP3    H162392   6.587   3.374  13.718  0.0569 -1.6776  0.3485
13659TIP3    H262393   6.733   3.399  13.687  0.2620 -1.1741  1.6727
13660TIP3   OH262394   2.795   5.975  14.433  0.2766 -0.3953  0.3912
13660TIP3    H162395   2.755   5.901  14.388  0.3695 -0.0183 -0.3197
13660TIP3    H262396   2.889   5.961  14.425  0.3001  0.0503 -0.1809
13661TIP3   OH262397   6.352   3.472   2.401 -0.1565 -0.0933  0.2715
13661TIP3    H162398   6.420   3.431   2.349 -1.7389 -2.6465  0.0511
13661TIP3    H262399   6.355   3.426   2.485 -0.9324  0.5128  0.6474
13662TIP3   OH262400   0.677   1.988  16.148  0.0370 -0.5067 -0.0318
13662TIP3    H162401   0.717   1.982  16.234 -1.6606  0.5107  0.8721
13662TIP3    H262402   0.586   2.010  16.165 -0.2546  0.0958 -2.1046
13663TIP3   OH262403   0.484   4.552  12.067 -0.8198  0.4230  0.1177
13663TIP3    H162404   0.564   4.520  12.107 -0.3745  2.4996  0.9805
13663TIP3    H262405   0.512   4.590  11.983 -1.2969 -1.0385 -0.7459
13664TIP3   OH262406   0.941   4.833   1.361  0.7648  0.4490 -0.0631
13664TIP3    H162407   0.982   4.746   1.361 -0.2265 -0.0986  2.3041
13664TIP3    H262408   0.976   4.876   1.283 -0.2174 -2.7592 -2.5418
13665TIP3   OH262409   6.653   4.528  12.308 -0.1287  0.2058 -0.5665
13665TIP3    H162410   6.657   4.435  12.289  0.2774  0.4780 -1.9754
13665TIP3    H262411   6.561   4.552  12.298 -0.2133 -0.0120 -0.3169
13666TIP3   OH262412   4.625   4.231   2.131  0.5011 -0.4401 -0.4760
13666TIP3    H162413   4.653   4.250   2.220  0.3656  1.3011 -0.7678
13666TIP3    H262414   4.627   4.316   2.086 -0.7263 -1.0381 -1.7595
13667TIP3   OH262415   5.114   3.144   0.461  0.0861 -0.4235 -0.5508
13667TIP3    H162416   5.137   3.191   0.541 -0.6131 -0.6649 -0.1899
13667TIP3    H262417   5.079   3.211   0.402  1.7251 -0.0427 -1.1357
13668TIP3   OH262418   4.995   2.756   4.242 -0.2752 -0.1352  0.4072
13668TIP3    H162419   4.980   2.850   4.233 -0.9922 -0.2944 -0.1398
13668TIP3    H262420   4.923   2.725   4.296 -1.4557 -0.7464 -1.4206
13669TIP3   OH262421   4.972   0.942  16.989 -0.4734 -0.1089 -0.0687
13669TIP3    H162422   4.889   0.928  17.035 -0.5208 -1.3532 -0.5046
13669TIP3    H262423   4.975   1.037  16.974 -0.5815  0.3109  2.2096
13670TIP3   OH262424   1.443   4.805  16.875  0.0238 -0.6004 -0.2156
13670TIP3    H162425   1.438   4.893  16.839 -0.1175 -0.8015 -0.7001
13670TIP3    H262426   1.532   4.775  16.852 -0.4503 -1.1514 -1.4267
13671TIP3   OH262427   4.159   1.852   5.919  0.6004  0.1120 -0.3055
13671TIP3    H162428   4.243   1.895   5.902  0.6460 -0.2770 -1.1036
13671TIP3    H262429   4.183   1.765   5.951  0.4995  0.2277  0.0919
13672TIP3   OH262430   4.229   4.783   4.569  0.4987  0.6956 -0.3243
13672TIP3    H162431   4.151   4.785   4.514 -1.1235  0.0167  1.8076
13672TIP3    H262432   4.271   4.699   4.549  0.0200  0.5306 -0.6421
13673TIP3   OH262433   5.986   4.413   2.366 -0.7061 -0.7158 -0.3316
13673TIP3    H162434   5.910   4.417   2.425 -0.1600 -0.3531  0.3666
13673TIP3    H262435   6.003   4.504   2.342  0.6934 -0.5534  1.0993
13674TIP3   OH262436   2.730   0.835   4.094 -0.6187 -0.3142  1.0963
13674TIP3    H162437   2.697   0.848   4.005 -0.9729 -0.6333  1.1760
13674TIP3    H262438   2.823   0.854   4.088 -0.6379 -0.3529  0.6503
13675TIP3   OH262439   1.730   4.208   1.080 -0.0950 -0.1847  0.0264
13675TIP3    H162440   1.690   4.125   1.052  2.0493 -1.0885 -0.5519
13675TIP3    H262441   1.762   4.247   0.999 -0.9189  1.1693  0.3244
13676TIP3   OH262442   3.336   3.358   5.452 -0.2622  0.7045 -0.1601
13676TIP3    H162443   3.417   3.353   5.503  0.2631 -1.2887 -1.0787
13676TIP3    H262444   3.349   3.434   5.395  2.6637 -1.5552 -2.8539
13677TIP3   OH262445   1.052   0.632  15.182 -0.0170  0.2139  0.3365
13677TIP3    H162446   1.096   0.589  15.108  0.0945 -0.6874  0.9071
13677TIP3    H262447   1.087   0.588  15.259  0.5797  1.8120  0.9958
13678TIP3   OH262448   4.846   3.538   5.287 -0.2200 -0.7881  0.0903
13678TIP3    H162449   4.858   3.525   5.193  0.2421 -1.1679  0.1943
13678TIP3    H262450   4.812   3.454   5.318 -0.6943 -0.5557  0.2146
13679TIP3   OH262451   6.616   2.106  14.521  0.1272 -0.0407 -0.4996
13679TIP3    H162452   6.623   2.013  14.542 -1.4518  0.4721  2.9764
13679TIP3    H262453   6.548   2.110  14.454  1.5935 -1.4384 -2.1919
13680TIP3   OH262454   4.225   3.827   5.107 -0.2235  0.1343 -0.5197
13680TIP3    H162455   4.216   3.753   5.047 -0.2089 -0.5340  0.2753
13680TIP3    H262456   4.261   3.898   5.054  0.0516 -0.5256 -1.2252
13681TIP3   OH262457   1.440   2.527   5.285 -0.1552 -0.4341  0.3788
13681TIP3    H162458   1.388   2.607   5.288  0.1077 -0.1395 -1.5166
13681TIP3    H262459   1.498   2.539   5.210  1.5968 -1.3991  1.5007
13682TIP3   OH262460   5.895   0.138  17.077  0.0038 -0.5105 -0.3103
13682TIP3    H162461   5.972   0.111  17.127 -0.5995 -0.0843  0.8784
13682TIP3    H262462   5.915   0.227  17.049  0.2832 -0.6986 -0.7132
13683TIP3   OH262463   6.633   0.713  15.898  0.1173  0.1577  1.1152
13683TIP3    H162464   6.551   0.674  15.928  0.0487 -0.3869  0.2674
13683TIP3    H262465   6.684   0.639  15.864  0.8399  0.5298  1.3614
13684TIP3   OH262466   6.646   6.228  16.704 -0.0053  0.5980  0.6658
13684TIP3    H162467   6.595   6.307  16.684 -0.5671  0.1870  0.4525
13684TIP3    H262468   6.731   6.262  16.733  0.5435  1.2624 -1.4983
13685TIP3   OH262469   4.438   5.397  15.068  0.3026  0.4772 -0.7377
13685TIP3    H162470   4.380   5.337  15.113 -1.2800  2.5217  0.0970
13685TIP3    H262471   4.513   5.406  15.126 -0.8549  1.6203  0.6405
13686TIP3   OH262472   3.586   2.923  12.042 -0.3688 -0.6169  0.3610
13686TIP3    H162473   3.504   2.971  12.043 -0.1574 -0.1419  3.2695
13686TIP3    H262474   3.644   2.972  12.101  2.9289  0.4348 -3.2901
13687TIP3   OH262475   3.222   2.401   0.734 -0.7855 -0.5089 -0.2572
13687TIP3    H162476   3.185   2.319   0.701  0.9948 -1.1440 -0.7707
13687TIP3    H262477   3.163   2.469   0.702 -2.4824 -1.5868  0.4583
13688TIP3   OH262478   1.476   1.686  11.475  0.0745 -0.8864 -0.5733
13688TIP3    H162479   1.528   1.760  11.444  1.2546 -1.9078 -1.1318
13688TIP3    H262480   1.531   1.645  11.543 -0.9564 -0.7284  0.3859
13689TIP3   OH262481   4.324   5.636  11.693 -0.1892 -0.0099 -0.4297
13689TIP3    H162482   4.407   5.667  11.728 -1.0274  1.5557  0.2799
13689TIP3    H262483   4.348   5.561  11.638  1.6192  0.1013  0.1277
13690TIP3   OH262484   3.325   1.541   1.603  0.3095 -0.0095  0.0984
13690TIP3    H162485   3.265   1.495   1.663  1.7906 -0.8397  1.0060
13690TIP3    H262486   3.388   1.584   1.661  1.9677 -1.0831 -0.8264
13691TIP3   OH262487   0.835   3.120  14.770  0.1296 -0.8301 -0.0692
13691TIP3    H162488   0.750   3.153  14.801  0.1967 -0.9690  0.2565
13691TIP3    H262489   0.859   3.052  14.832  0.7970 -0.3337  0.2214
13692TIP3   OH262490   2.841   5.820   0.120  0.1577  0.3183 -0.1716
13692TIP3    H162491   2.879   5.762   0.186  0.5460 -0.5640 -1.1446
13692TIP3    H262492   2.892   5.803   0.041 -1.5820 -0.1451 -1.2447
13693TIP3   OH262493   5.592   1.511   3.736 -0.4715 -0.2462  0.1595
13693TIP3    H162494   5.676   1.500   3.691  0.2245 -0.0790  1.3413
13693TIP3    H262495   5.571   1.423   3.768 -0.1723 -0.0940  0.7970
13694TIP3   OH262496   0.943   3.920   2.843 -0.5368 -0.2223 -0.6996
13694TIP3    H162497   0.859   3.879   2.824 -1.1160 -0.3009  1.6265
13694TIP3    H262498   0.920   4.001   2.889  0.5978 -0.8448  1.1008
13695TIP3   OH262499   3.909   2.437   0.530 -0.4475  0.0597 -0.0102
13695TIP3    H162500   3.974   2.485   0.583  0.3569 -0.3685 -0.5852
13695TIP3    H262501   3.830   2.438   0.584 -0.4819  2.0583 -0.0069
13696TIP3   OH262502   0.177   1.198   4.676 -0.1817 -0.3253  0.3566
13696TIP3    H162503   0.212   1.281   4.708  0.7910 -1.4073  2.3274
13696TIP3    H262504   0.255   1.143   4.664 -0.7936 -0.9181 -1.0913
13697TIP3   OH262505   4.334   0.370  12.508 -0.0999 -0.4217  0.2970
13697TIP3    H162506   4.256   0.337  12.553 -1.5791 -2.1825 -3.1615
13697TIP3    H262507   4.307   0.455  12.473 -0.8886 -1.3795 -1.5803
13698TIP3   OH262508   5.172   1.266   4.547 -0.4265  0.3230 -0.2754
13698TIP3    H162509   5.246   1.257   4.606 -0.1978  0.4378 -0.5455
13698TIP3    H262510   5.121   1.338   4.582 -0.1648  0.5445 -0.3517
13699TIP3   OH262511   4.602   6.453   0.493 -0.1386 -0.1095  0.3318
13699TIP3    H162512   4.664   6.380   0.482 -0.9289 -0.9570  1.2878
13699TIP3    H262513   4.633   6.520   0.432  0.7967 -1.1176 -0.3437
13700TIP3   OH262514   0.079   6.696  14.332  0.6190 -0.1980 -0.2454
13700TIP3    H162515   0.117   6.660  14.412  1.6330  0.7051 -0.2967
13700TIP3    H262516  -0.010   6.661  14.330  0.6533 -0.4272  1.1476
13701TIP3   OH262517   1.196   5.440   1.710  0.0207  0.1963  0.0725
13701TIP3    H162518   1.103   5.418   1.703  0.4162 -1.6976  0.2952
13701TIP3    H262519   1.202   5.530   1.678 -1.8476  0.2778 -0.1449
13702TIP3   OH262520   3.012   2.577   0.385 -0.6153  0.1467  0.2148
13702TIP3    H162521   3.048   2.635   0.318  0.2179 -0.9408 -0.3036
13702TIP3    H262522   2.921   2.603   0.393 -0.2994  1.4338 -0.1003
13703TIP3   OH262523   5.976   0.584   1.856  0.0720 -0.2167 -0.0751
13703TIP3    H162524   5.960   0.651   1.923 -0.3963  0.4194 -0.8110
13703TIP3    H262525   6.047   0.619   1.803  0.6962 -0.8869  0.2850
13704TIP3   OH262526   0.616   2.162  13.954 -0.2510  0.2110  0.6131
13704TIP3    H162527   0.692   2.171  13.895 -0.7487  1.1093  0.0785
13704TIP3    H262528   0.608   2.247  13.996 -1.0187  0.1581  0.5949
13705TIP3   OH262529   0.255   6.735  15.885 -0.5504  0.0355 -0.8193
13705TIP3    H162530   0.212   6.699  15.807 -3.3638  1.8261 -0.2504
13705TIP3    H262531   0.270   6.827  15.864  1.1835 -0.0738 -0.1798
13706TIP3   OH262532   2.207   6.413  13.692  0.0700  0.8254 -0.3860
13706TIP3    H162533   2.297   6.396  13.721  0.0240 -0.9250 -1.1506
13706TIP3    H262534   2.212   6.418  13.597 -0.4584  2.0870 -0.3696
13707TIP3   OH262535   4.158   0.805  15.335  0.3362 -0.8021 -0.3881
13707TIP3    H162536   4.227   0.819  15.400 -0.4911  3.3650 -0.0676
13707TIP3    H262537   4.195   0.836  15.253 -0.8294  0.8793 -0.3339
13708TIP3   OH262538   3.429   4.250   0.676  0.2797  0.1260 -0.2950
13708TIP3    H162539   3.479   4.169   0.685  0.9814  0.5942  0.1276
13708TIP3    H262540   3.490   4.319   0.703 -1.4465  0.5180  3.1513
13709TIP3   OH262541   5.189   4.977   1.819 -0.3473 -0.1648 -0.7425
13709TIP3    H162542   5.262   4.916   1.831 -1.0110 -1.3476 -2.2438
13709TIP3    H262543   5.178   5.019   1.904  1.0614 -1.1053 -0.0522
13710TIP3   OH262544   6.758   1.302   5.059 -0.3278  0.0736  0.0959
13710TIP3    H162545   6.841   1.345   5.039  0.0714 -0.3864  0.7087
13710TIP3    H262546   6.695   1.373   5.071  0.1163  0.4450  0.2153
13711TIP3   OH262547   4.734   5.279  12.911  0.4150 -0.1780  0.7620
13711TIP3    H162548   4.753   5.228  12.990 -0.8360  1.5720  2.2821
13711TIP3    H262549   4.658   5.235  12.872  2.5540 -2.5998 -1.0512
13712TIP3   OH262550   3.545   5.501   6.167  0.3775 -0.3260 -0.3478
13712TIP3    H162551   3.635   5.520   6.141  0.5859 -1.8311 -0.7798
13712TIP3    H262552   3.547   5.502   6.262  0.3089  1.9899 -0.3162
13713TIP3   OH262553   5.937   4.175  14.425 -0.2798 -0.0841 -0.3955
13713TIP3    H162554   5.984   4.103  14.383 -1.2827 -1.5978  0.9947
13713TIP3    H262555   5.993   4.202  14.497 -0.7194 -0.7238  0.1983
13714TIP3   OH262556   1.425   5.093  15.095 -0.6776  0.4388 -0.6795
13714TIP3    H162557   1.486   5.068  15.026 -1.0652 -0.6741 -0.6306
13714TIP3    H262558   1.443   5.186  15.110 -0.5666  0.7016 -2.2498
13715TIP3   OH262559   1.533   5.892   3.386  0.1179 -0.2926  0.4023
13715TIP3    H162560   1.622   5.858   3.394  0.2936 -0.2072 -0.9415
13715TIP3    H262561   1.505   5.866   3.298 -0.4301  1.3641  0.0359
13716TIP3   OH262562   6.417   3.242   2.566 -0.1686  0.8032 -0.1838
13716TIP3    H162563   6.323   3.224   2.561  0.0022 -0.6699  1.1834
13716TIP3    H262564   6.432   3.263   2.658  1.1790 -1.2297  0.1172
13717TIP3   OH262565   0.731   6.618  10.870 -0.0954 -0.5618 -0.2965
13717TIP3    H162566   0.821   6.590  10.885  0.4152  0.4608 -1.2866
13717TIP3    H262567   0.736   6.675  10.793 -1.4014  0.4547  0.3236
13718TIP3   OH262568   6.552   6.781   5.585 -0.1355 -0.0958 -0.5301
13718TIP3    H162569   6.582   6.846   5.648  3.4395 -0.1651 -1.9205
13718TIP3    H262570   6.553   6.698   5.632  1.1814  0.0485 -0.2683
13719TIP3   OH262571   2.198   2.011   0.573 -0.2540 -0.2540 -0.5482
13719TIP3    H162572   2.190   2.064   0.493 -3.1752  0.6844  0.2431
13719TIP3    H262573   2.116   1.961   0.577  0.9889 -2.3259  0.5085
13720TIP3   OH262574   5.995   1.542  14.368  0.1007  0.6361  0.6001
13720TIP3    H162575   6.058   1.567  14.436 -0.5576  0.7925  1.1612
13720TIP3    H262576   5.921   1.505  14.416  0.7402 -1.7984 -0.1587
13721TIP3   OH262577   0.298   1.191  17.082  0.0888  0.2937 -0.5188
13721TIP3    H162578   0.359   1.260  17.057 -0.5679  0.7045 -1.0368
13721TIP3    H262579   0.338   1.111  17.050  1.0239  0.3770  0.3857
13722TIP3   OH262580   4.545   1.091  11.551  0.4535 -0.7130 -0.4239
13722TIP3    H162581   4.515   1.076  11.462 -1.8589 -0.5185  0.2510
13722TIP3    H262582   4.479   1.150  11.589  1.8883 -0.0205  1.1226
13723TIP3   OH262583   1.674   3.513  11.098 -0.6720  0.1262  0.1186
13723TIP3    H162584   1.711   3.515  11.010 -1.1760 -0.0867 -0.1008
13723TIP3    H262585   1.735   3.565  11.151  0.3266 -0.8110 -0.0882
13724TIP3   OH262586   0.808   4.491  12.588  0.0868 -0.3246  0.2551
13724TIP3    H162587   0.884   4.434  12.601 -0.1056 -0.2252  2.0746
13724TIP3    H262588   0.845   4.577  12.570  0.3853 -0.5494 -0.2372
13725TIP3   OH262589   1.612   4.307  15.597  0.0161 -0.0809  0.3571
13725TIP3    H162590   1.528   4.311  15.642  0.0375  0.2059  0.3754
13725TIP3    H262591   1.628   4.397  15.569  0.3380 -0.1253  0.3933
13726TIP3   OH262592   2.897   6.399  15.630 -0.0781  0.4628 -1.2899
13726TIP3    H162593   2.912   6.311  15.665  0.6654  0.4100 -1.7105
13726TIP3    H262594   2.811   6.424  15.663  0.1227 -0.0353 -0.3605
13727TIP3   OH262595   3.799   3.557   3.216 -0.0162 -0.1740 -0.4381
13727TIP3    H162596   3.814   3.651   3.206  0.6163  0.2393  2.9891
13727TIP3    H262597   3.708   3.550   3.245 -0.1163 -0.6426 -0.8579
13728TIP3   OH262598   0.113   4.159   5.217 -0.8501  0.0723  0.3177
13728TIP3    H162599   0.108   4.125   5.306 -2.5407 -0.5888 -0.0044
13728TIP3    H262600   0.137   4.084   5.163  2.2347  0.8572  0.3722
13729TIP3   OH262601   1.074   4.205   4.095  0.0735  0.0092  0.2865
13729TIP3    H162602   1.070   4.281   4.037  1.9038  0.3936  0.5915
13729TIP3    H262603   1.092   4.131   4.037  0.2990  0.1361  0.1922
13730TIP3   OH262604   3.298   1.561   5.953  0.0254  0.1452 -0.1847
13730TIP3    H162605   3.341   1.492   6.003  1.2311 -0.5091 -2.0097
13730TIP3    H262606   3.323   1.544   5.862 -2.4631  0.9664 -1.1218
13731TIP3   OH262607   6.391   2.037  12.546 -0.2968 -0.1437  0.6793
13731TIP3    H162608   6.403   2.124  12.508  2.4959 -0.6493  0.1772
13731TIP3    H262609   6.363   1.982  12.473 -2.9934  0.4276  1.1854
13732TIP3   OH262610   0.496   3.809   0.063 -0.1181  0.1062 -0.1469
13732TIP3    H162611   0.401   3.796   0.066 -0.3105  1.5244  1.6255
13732TIP3    H262612   0.530   3.729   0.023 -1.9645 -0.9244  0.2422
13733TIP3   OH262613   0.958   2.809  15.853  1.0169 -0.2927  0.3121
13733TIP3    H162614   0.964   2.714  15.844  1.6843 -0.2345  0.1077
13733TIP3    H262615   0.953   2.841  15.763  0.4137 -0.1518  0.3906
13734TIP3   OH262616   0.753   5.441  15.142  0.5490 -0.0944  0.0828
13734TIP3    H162617   0.714   5.509  15.196  1.3766  0.3547  0.1324
13734TIP3    H262618   0.686   5.420  15.078 -0.3137 -0.3784  1.0530
13735TIP3   OH262619   5.386   2.365   3.692  0.2776 -0.7421  0.3142
13735TIP3    H162620   5.402   2.386   3.784  1.8586  1.8559 -0.4302
13735TIP3    H262621   5.300   2.323   3.691 -0.1532 -0.0753  2.8832
13736TIP3   OH262622   2.827   0.125   5.233  0.0878  0.9478 -0.0018
13736TIP3    H162623   2.807   0.045   5.185 -1.3487  0.9685  0.5089
13736TIP3    H262624   2.892   0.170   5.179  0.7986 -0.4847 -0.3654
13737TIP3   OH262625   0.593   6.054  14.808 -0.4452  0.3043  0.5133
13737TIP3    H162626   0.503   6.080  14.789 -0.5636  1.7433  2.7081
13737TIP3    H262627   0.640   6.137  14.824  1.0254 -0.4657  0.3951
13738TIP3   OH262628   2.228   3.268   1.018 -0.1011  0.2842 -0.1760
13738TIP3    H162629   2.177   3.349   1.012 -0.7442  0.0969  2.0179
13738TIP3    H262630   2.247   3.258   1.111  1.6720 -1.0742 -0.6347
13739TIP3   OH262631   5.744   2.204  12.611  0.0311 -0.1007  0.0470
13739TIP3    H162632   5.725   2.120  12.654  1.4347 -0.5879 -0.2309
13739TIP3    H262633   5.691   2.268  12.660 -0.6241 -1.0547  0.6309
13740TIP3   OH262634   3.869   0.883   1.799 -0.9298  0.1577  0.3002
13740TIP3    H162635   3.938   0.855   1.860  0.0855  1.3444 -0.2518
13740TIP3    H262636   3.825   0.954   1.845 -1.6556 -0.4438  0.5532
13741TIP3   OH262637   3.625   0.805   1.176 -0.2611  0.1150  0.0468
13741TIP3    H162638   3.602   0.713   1.183  0.4902  0.0103  1.6766
13741TIP3    H262639   3.543   0.850   1.156 -0.6370 -0.8915 -0.7144
13742TIP3   OH262640   5.342   3.860  15.257  0.3173  0.6152 -0.0041
13742TIP3    H162641   5.382   3.785  15.213  0.1287  1.3672 -1.5082
13742TIP3    H262642   5.414   3.902  15.305  0.2300 -1.0775  1.7215
13743TIP3   OH262643   2.785   4.926   5.304  0.2497  0.1239 -0.5654
13743TIP3    H162644   2.694   4.906   5.323 -0.2021  2.4688 -0.0292
13743TIP3    H262645   2.786   5.020   5.284  2.5674  0.2098 -0.3329
13744TIP3   OH262646   6.718   2.361  16.256  0.2937 -0.0946  0.5313
13744TIP3    H162647   6.805   2.360  16.296  1.2595 -1.9567 -1.4738
13744TIP3    H262648   6.668   2.298  16.308  1.0506 -1.2723 -0.1326
13745TIP3   OH262649   3.080   6.027  16.941 -0.1835  0.4471 -0.3827
13745TIP3    H162650   3.083   5.967  16.867  0.3659  2.2574 -1.9027
13745TIP3    H262651   3.001   6.079  16.927 -0.5164  0.2862  0.7687
13746TIP3   OH262652   2.663   3.674   4.199  0.2980  0.4684 -0.2573
13746TIP3    H162653   2.703   3.760   4.215  2.5657 -0.4186 -0.8237
13746TIP3    H262654   2.583   3.694   4.149  0.4907  2.2616  0.0782
13747TIP3   OH262655   0.090   4.347  14.688  0.3136  0.1112  0.4654
13747TIP3    H162656   0.061   4.429  14.649  0.9153  0.0340 -0.1770
13747TIP3    H262657   0.139   4.374  14.766 -1.0603  0.2568  1.3073
13748TIP3   OH262658   0.504   2.540   3.311 -0.0529  0.0840  0.0712
13748TIP3    H162659   0.552   2.462   3.285 -0.0265  0.1521 -0.0842
13748TIP3    H262660   0.416   2.508   3.333  0.3553 -0.1940  1.3615
13749TIP3   OH262661   2.625   2.945   2.612 -1.0425 -0.2647  0.4428
13749TIP3    H162662   2.613   2.854   2.586 -0.5814  0.0027 -0.8071
13749TIP3    H262663   2.565   2.994   2.557 -0.5418  0.2710  0.3581
13750TIP3   OH262664   6.651   1.804  16.104  0.2858  0.3321 -0.2422
13750TIP3    H162665   6.694   1.735  16.054 -1.1538 -0.4807 -0.4277
13750TIP3    H262666   6.711   1.878  16.101  1.0121 -0.2939 -1.6584
13751TIP3   OH262667   1.008   3.240  11.388  0.3021  0.0402 -0.2901
13751TIP3    H162668   1.016   3.288  11.470  2.2507  0.1533 -0.4849
13751TIP3    H262669   0.918   3.208  11.387  0.1686  0.2005  1.7918
13752TIP3   OH262670   1.185   4.042   4.318 -0.1681 -0.0731 -0.3012
13752TIP3    H162671   1.116   4.001   4.266 -1.7399 -0.5859  2.0434
13752TIP3    H262672   1.188   4.132   4.285 -2.5739  0.2098  0.0313
13753TIP3   OH262673   3.832   6.199  12.743 -0.5208 -1.1137 -0.3815
13753TIP3    H162674   3.889   6.152  12.682  1.3558 -0.5611  0.8649
13753TIP3    H262675   3.757   6.140  12.756  1.2882 -3.3805  0.3919
13754TIP3   OH262676   4.957   5.140  16.143 -0.2570  0.2825  0.2572
13754TIP3    H162677   4.926   5.224  16.108 -2.0782 -0.3737  0.1559
13754TIP3    H262678   5.009   5.163  16.219 -1.1697  1.5004  0.5489
13755TIP3   OH262679   4.473   1.108   4.554 -0.1324 -0.9113 -0.5415
13755TIP3    H162680   4.378   1.120   4.556  0.0655  0.9212 -0.2567
13755TIP3    H262681   4.495   1.098   4.462 -0.3496  1.6430 -0.9570
13756TIP3   OH262682   3.213   4.092  16.686  0.6954 -0.5941  0.2176
13756TIP3    H162683   3.188   4.000  16.686  2.3681 -1.1083  1.8207
13756TIP3    H262684   3.131   4.139  16.704 -0.1938 -1.7220 -0.6972
13757TIP3   OH262685   3.917   6.493   4.645  0.6975 -0.2999 -0.5111
13757TIP3    H162686   3.855   6.558   4.678  1.2648 -0.5570  1.1477
13757TIP3    H262687   4.001   6.517   4.684  1.0317 -1.6903 -0.3203
13758TIP3   OH262688   6.589   1.883  12.012  0.2341  0.0613  0.0466
13758TIP3    H162689   6.604   1.974  12.038  2.0708 -0.1125 -0.3123
13758TIP3    H262690   6.670   1.838  12.034  0.0452 -1.0988 -1.5296
13759TIP3   OH262691   0.335   2.253   0.801  0.2025  0.2870 -0.0764
13759TIP3    H162692   0.250   2.297   0.804  0.2588  0.3383  1.2393
13759TIP3    H262693   0.340   2.204   0.883  0.9703 -0.6284 -0.6498
13760TIP3   OH262694   5.407   0.543   5.950 -0.3027  0.3280 -0.3372
13760TIP3    H162695   5.439   0.535   5.860 -1.7097  1.3489 -0.9747
13760TIP3    H262696   5.466   0.489   6.001 -1.9315 -3.9189 -2.4481
13761TIP3   OH262697   3.187   4.872   5.004 -0.5565  0.2213  0.1106
13761TIP3    H162698   3.177   4.799   4.944 -0.1525 -1.5846  2.1318
13761TIP3    H262699   3.200   4.832   5.090  1.9076  2.5918  1.0104
13762TIP3   OH262700   6.580   6.052  17.112 -1.4125  0.5934  0.3421
13762TIP3    H162701   6.544   6.060  17.024 -1.4037  0.2789  0.3092
13762TIP3    H262702   6.642   6.124  17.120 -1.4938  0.6841  0.1289
13763TIP3   OH262703   0.907   2.257   3.777  0.6690  0.2954 -0.3273
13763TIP3    H162704   0.975   2.320   3.752 -0.3191  1.5934  0.1525
13763TIP3    H262705   0.838   2.310   3.817 -1.3220 -0.7702 -2.1348
13764TIP3   OH262706   1.951   3.043  13.485  0.7874 -0.4466  0.2944
13764TIP3    H162707   1.918   3.096  13.557  0.7501 -0.7132  0.4741
13764TIP3    H262708   1.913   3.083  13.407 -1.0745 -1.5415  0.5842
13765TIP3   OH262709   1.392   6.218  14.405 -0.2576  0.4165 -0.0114
13765TIP3    H162710   1.394   6.300  14.454 -0.5160  0.2672  0.2482
13765TIP3    H262711   1.300   6.204  14.385  0.0129  1.6934 -2.6090
13766TIP3   OH262712   2.185   1.616  15.374 -0.6572 -0.0664 -0.5662
13766TIP3    H162713   2.239   1.545  15.409  0.2631  0.5010 -0.8109
13766TIP3    H262714   2.165   1.671  15.450 -1.2780 -0.5167 -0.3973
13767TIP3   OH262715   6.702   0.651  15.378  0.5301 -0.0410 -0.4849
13767TIP3    H162716   6.792   0.669  15.407  0.4328 -0.5650  0.1732
13767TIP3    H262717   6.653   0.730  15.400  0.9012  0.3928 -1.1839
13768TIP3   OH262718   2.386   3.534  12.770  0.5198 -0.1370  1.2483
13768TIP3    H162719   2.458   3.559  12.828  0.9190 -0.2424  0.8020
13768TIP3    H262720   2.326   3.608  12.774  1.9065  1.1582 -0.4140
13769TIP3   OH262721   6.323   5.630   6.292  0.0062  0.6985  0.0800
13769TIP3    H162722   6.413   5.658   6.305 -0.2546  1.3597  0.5218
13769TIP3    H262723   6.327   5.534   6.293  0.9193  0.6929 -1.5296
13770TIP3   OH262724   0.631   0.059   1.489 -0.2145 -0.2615  0.1985
13770TIP3    H162725   0.611   0.101   1.573 -0.1130  1.5011 -0.6308
13770TIP3    H262726   0.546   0.030   1.456 -0.3990  0.0525  0.3901
13771TIP3   OH262727   4.115   5.812  16.492 -0.1877 -0.9113 -0.1560
13771TIP3    H162728   4.162   5.742  16.447  1.4898  0.1023 -0.0388
13771TIP3    H262729   4.044   5.835  16.432  0.0900 -1.7482 -0.8280
13772TIP3   OH262730   4.742   5.617  15.973 -0.1858 -0.4137 -0.9063
13772TIP3    H162731   4.817   5.678  15.976  0.9951 -1.8189  1.3517
13772TIP3    H262732   4.688   5.643  16.048 -0.4863 -1.1676 -0.8586
13773TIP3   OH262733   4.547   0.444  16.369  0.2757 -0.3570  0.5478
13773TIP3    H162734   4.564   0.475  16.279 -1.0555 -0.6423  0.1861
13773TIP3    H262735   4.499   0.516  16.410  0.2981 -0.5040  0.8306
13774TIP3   OH262736   0.533   0.604  14.783  0.2854 -0.5699  0.6225
13774TIP3    H162737   0.593   0.584  14.711  1.2216  2.8278  0.2764
13774TIP3    H262738   0.574   0.564  14.860  2.1504  0.2241  0.1001
13775TIP3   OH262739   0.283   6.234   5.164  0.9196  0.2357 -0.7142
13775TIP3    H162740   0.244   6.191   5.087 -0.2470 -1.2708  0.6610
13775TIP3    H262741   0.367   6.267   5.132  0.4582 -0.3273 -2.6504
13776TIP3   OH262742   3.249   0.366  11.860  0.2626  0.0271  0.1091
13776TIP3    H162743   3.277   0.454  11.836  1.9274  0.0115  1.6744
13776TIP3    H262744   3.224   0.373  11.952  1.2295 -1.2640  0.5055
13777TIP3   OH262745   0.618   1.103   3.307 -0.0690 -0.1034 -0.4738
13777TIP3    H162746   0.690   1.160   3.281 -2.0841  1.6820 -2.5163
13777TIP3    H262747   0.545   1.162   3.325 -1.4831 -1.8980  0.0507
13778TIP3   OH262748   0.167   0.081  12.620 -0.1607 -0.0643 -0.1795
13778TIP3    H162749   0.164   0.158  12.563 -0.3578 -0.6089 -0.9267
13778TIP3    H262750   0.077   0.052  12.625 -0.0053 -0.5850 -0.3772
13779TIP3   OH262751   1.345   5.577  16.651 -0.0241 -0.0487  0.4706
13779TIP3    H162752   1.305   5.543  16.571  0.3698  0.6915 -0.0359
13779TIP3    H262753   1.272   5.618  16.698  0.0513  0.9163 -0.2501
13780TIP3   OH262754   1.307   3.538   4.552 -0.0396 -0.3189 -0.1381
13780TIP3    H162755   1.276   3.609   4.496  0.1955  1.3341  1.7302
13780TIP3    H262756   1.228   3.498   4.587 -0.1877 -1.3618 -1.6051
13781TIP3   OH262757   3.144   1.340  15.495  0.8704  0.2419  0.5257
13781TIP3    H162758   3.133   1.297  15.580  0.0562  1.0655  0.8588
13781TIP3    H262759   3.066   1.396  15.487 -0.3376 -1.6223 -1.8494
13782TIP3   OH262760   3.199   6.335  13.722 -0.4027 -0.1299  0.4937
13782TIP3    H162761   3.178   6.398  13.792 -0.6068 -0.1534  0.4558
13782TIP3    H262762   3.114   6.312  13.685 -0.3644 -0.7301  0.7684
13783TIP3   OH262763   4.607   3.156  16.844  0.1529  0.1686 -0.1919
13783TIP3    H162764   4.691   3.146  16.888 -0.9090  0.1832  2.0105
13783TIP3    H262765   4.562   3.073  16.858 -1.1680  1.0221  1.0269
13784TIP3   OH262766   3.669   3.008   2.949  0.0597  0.5156  0.0798
13784TIP3    H162767   3.654   3.095   2.912 -2.2464 -0.7930 -2.4583
13784TIP3    H262768   3.583   2.981   2.980  0.9151 -0.5751  1.6028
13785TIP3   OH262769   3.381   0.878   2.768  0.1252  0.0482  0.0356
13785TIP3    H162770   3.473   0.905   2.773 -0.1618  2.2069 -3.4731
13785TIP3    H262771   3.384   0.795   2.720  0.1997  0.6253 -0.9707
13786TIP3   OH262772   4.377   4.165   1.065  0.1610 -0.0368 -0.5873
13786TIP3    H162773   4.405   4.126   1.147 -1.3816  0.6164  0.2928
13786TIP3    H262774   4.458   4.198   1.024  1.1742 -1.9633 -0.2290
13787TIP3   OH262775   1.434   0.663   4.925  0.6276 -0.4378  0.0299
13787TIP3    H162776   1.374   0.724   4.968 -0.6764 -2.9825  2.1084
13787TIP3    H262777   1.435   0.691   4.833 -1.1145  1.6998  0.5752
13788TIP3   OH262778   4.449   3.508   0.019  0.0953 -0.7557 -0.4144
13788TIP3    H162779   4.481   3.484  -0.068 -0.5680  0.9025 -1.1583
13788TIP3    H262780   4.491   3.592   0.038  1.0061 -1.5429  1.3349
13789TIP3   OH262781   3.665   6.451  16.911 -0.1725  0.0360  0.4500
13789TIP3    H162782   3.736   6.482  16.855  0.4803  0.1588  1.3213
13789TIP3    H262783   3.586   6.491  16.875 -0.4087 -2.8537 -2.7232
13790TIP3   OH262784   1.987   4.365   6.025 -0.2872 -0.0703 -0.2299
13790TIP3    H162785   1.968   4.377   5.932 -0.9540 -0.7066 -0.1814
13790TIP3    H262786   2.079   4.391   6.034 -0.7164  1.6990 -0.7277
13791TIP3   OH262787   3.244   5.577   3.177  0.4969 -0.9135 -0.0277
13791TIP3    H162788   3.292   5.597   3.096 -1.0043  0.3321 -0.6765
13791TIP3    H262789   3.272   5.489   3.200  0.8463 -1.3936 -2.0381
13792TIP3   OH262790   3.311   1.972  12.921  0.2157 -1.1637  0.3504
13792TIP3    H162791   3.289   1.886  12.957 -5.4522 -0.1379  0.1396
13792TIP3    H262792   3.304   2.031  12.996 -1.7281 -0.2714 -0.4721
13793TIP3   OH262793   1.226   4.679  14.307  0.4192 -0.0634 -0.5414
13793TIP3    H162794   1.308   4.672  14.258 -0.8180 -1.8630 -2.5598
13793TIP3    H262795   1.250   4.665  14.398  2.4973  0.7101 -0.9308
13794TIP3   OH262796   6.260   1.243   3.813  0.0486  0.2272 -0.1038
13794TIP3    H162797   6.174   1.226   3.773  1.3527 -2.8092 -2.0150
13794TIP3    H262798   6.275   1.167   3.869 -0.1258  2.6605  3.5563
13795TIP3   OH262799   1.699   3.973   2.175  0.3195 -0.2610  0.0228
13795TIP3    H162800   1.772   4.013   2.128 -0.4346  0.7337 -0.3206
13795TIP3    H262801   1.708   3.879   2.156  1.8861 -0.2529  0.5416
13796TIP3   OH262802   3.158   6.379  16.856  0.2843  0.4865 -0.1058
13796TIP3    H162803   3.177   6.354  16.947 -0.2015  0.9596  0.1350
13796TIP3    H262804   3.228   6.338  16.805  0.5797  0.2356  0.4835
13797TIP3   OH262805   4.977   4.298   3.392 -0.4738 -0.1523  0.1079
13797TIP3    H162806   4.981   4.227   3.456  0.7300  0.3224  0.5968
13797TIP3    H262807   4.951   4.256   3.310 -1.3605 -0.8780  0.7414
13798TIP3   OH262808   1.922   5.618   0.109  0.1575 -0.0758  0.0798
13798TIP3    H162809   1.839   5.574   0.123  0.4109 -0.1735  1.3776
13798TIP3    H262810   1.957   5.633   0.197 -0.0016  2.9149 -0.2320
13799TIP3   OH262811   0.048   1.475  12.490  0.3263 -0.3496  0.0726
13799TIP3    H162812   0.040   1.570  12.478 -0.9648 -0.5726 -1.0184
13799TIP3    H262813   0.139   1.456  12.468  0.1979  0.4334 -1.2721
13800TIP3   OH262814   4.295   0.920  12.342 -0.1052 -0.5884 -0.6486
13800TIP3    H162815   4.327   1.010  12.342 -1.8592  0.0792 -0.5017
13800TIP3    H262816   4.373   0.866  12.325  0.8571  0.9837 -1.4374
13801TIP3   OH262817   0.202   2.265  15.051 -0.5086  0.0427  0.0279
13801TIP3    H162818   0.166   2.347  15.019 -0.9286  0.4308  1.4347
13801TIP3    H262819   0.227   2.283  15.142  1.9697 -0.6113 -0.4497
13802TIP3   OH262820   5.826   2.977   1.118 -0.2757 -0.1093 -0.3466
13802TIP3    H162821   5.800   2.886   1.103  0.9531 -0.4840 -0.2792
13802TIP3    H262822   5.834   2.984   1.214  1.6456 -0.5397 -0.4363
13803TIP3   OH262823   1.413   6.391  11.098 -0.6875  0.0154  0.2730
13803TIP3    H162824   1.497   6.379  11.143  0.2411  0.1809 -1.3438
13803TIP3    H262825   1.379   6.302  11.087 -0.2310 -0.1415  0.0703
13804TIP3   OH262826   4.197   2.446  16.769  0.3301 -0.2517  0.0476
13804TIP3    H162827   4.292   2.440  16.773  0.2831 -1.2254 -0.1282
13804TIP3    H262828   4.170   2.458  16.861  0.4703 -2.8945  0.5271
13805TIP3   OH262829   4.909   6.315   3.010  0.9613  0.5215 -0.3492
13805TIP3    H162830   4.889   6.239   3.065  3.7655 -0.2214 -0.1895
13805TIP3    H262831   4.964   6.371   3.064  0.4033  1.8290 -1.0806
13806TIP3   OH262832   2.771   1.446   1.642  0.1192  0.6714 -0.1694
13806TIP3    H162833   2.728   1.529   1.625 -0.9252  0.5635  1.6918
13806TIP3    H262834   2.854   1.470   1.685  0.1964  0.7654 -0.3695
13807TIP3   OH262835   6.441   2.025   1.178  0.0020 -0.2853 -0.1373
13807TIP3    H162836   6.501   1.954   1.202  0.5833  0.8301  2.0097
13807TIP3    H262837   6.471   2.100   1.229 -1.6819  1.0204 -0.9591
13808TIP3   OH262838   4.608   4.316   4.877 -0.2954 -0.4434 -0.1346
13808TIP3    H162839   4.557   4.289   4.953 -2.1766 -0.3870 -1.3162
13808TIP3    H262840   4.554   4.383   4.834  0.4209 -0.9204 -1.8557
13809TIP3   OH262841   6.617   2.716   4.489 -0.4367 -0.7262  0.2193
13809TIP3    H162842   6.681   2.760   4.433 -2.4733  0.9752 -0.9222
13809TIP3    H262843   6.659   2.713   4.575  0.8285  1.2189 -0.2458
13810TIP3   OH262844   0.169   4.150   0.457  0.1670  0.1298 -0.2600
13810TIP3    H162845   0.104   4.097   0.411 -0.5871  0.6746  0.1517
13810TIP3    H262846   0.205   4.091   0.524 -0.1279 -0.0941 -0.2937
13811TIP3   OH262847   1.036   0.355  17.037 -0.1974 -0.0747 -0.4451
13811TIP3    H162848   1.059   0.376  16.947 -2.1751  2.9889 -0.3970
13811TIP3    H262849   0.944   0.383  17.045 -0.2293 -0.7035  2.3596
13812TIP3   OH262850   3.798   3.755   2.763 -0.2595  0.0183 -0.0690
13812TIP3    H162851   3.893   3.755   2.770 -0.1421 -2.5361 -0.6085
13812TIP3    H262852   3.767   3.746   2.854  0.2077 -2.9890 -0.1254
13813TIP3   OH262853   1.371   2.938   1.186 -0.0553 -0.8932 -0.5062
13813TIP3    H162854   1.384   3.031   1.165  0.8567 -1.5494 -3.4034
13813TIP3    H262855   1.277   2.925   1.181 -0.2488 -0.0088  0.5736
13814TIP3   OH262856   0.280   1.110  10.137  0.0207 -0.2417 -0.1081
13814TIP3    H162857   0.319   1.175  10.196  1.2009 -1.1268  0.1162
13814TIP3    H262858   0.219   1.061  10.192 -0.6353  0.4423 -0.2032
13815TIP3   OH262859   6.730   1.687  16.760 -0.2622  0.4597 -0.4418
13815TIP3    H162860   6.715   1.605  16.713 -0.0322  0.9802 -1.4393
13815TIP3    H262861   6.645   1.706  16.801  0.1644 -1.2187  1.3839
13816TIP3   OH262862   3.625   1.551  13.258 -0.0019 -0.6711 -0.3564
13816TIP3    H162863   3.691   1.519  13.320  0.3289 -0.7341 -0.7420
13816TIP3    H262864   3.618   1.481  13.193 -0.6325 -0.7775 -0.1849
13817TIP3   OH262865   1.585   5.157   0.459 -0.5195  0.0634 -0.6777
13817TIP3    H162866   1.552   5.088   0.517  1.2700 -0.1451  0.1466
13817TIP3    H262867   1.616   5.112   0.381  2.3752 -0.3893  0.6099
13818TIP3   OH262868   4.977   5.283  10.530 -0.1926 -0.6188 -0.5324
13818TIP3    H162869   4.965   5.261  10.622  1.3449 -2.0569 -0.6171
13818TIP3    H262870   4.918   5.356  10.514 -0.0354  0.0616  1.7458
13819TIP3   OH262871   5.815   2.939  17.099  0.7707  0.0260 -0.2932
13819TIP3    H162872   5.804   3.026  17.062  0.4040  0.5629  1.0015
13819TIP3    H262873   5.910   2.929  17.110  0.8348  0.1217 -0.7640
13820TIP3   OH262874   4.930   4.854   2.245 -0.5701  0.4360 -0.7569
13820TIP3    H162875   5.024   4.841   2.259 -0.7219 -2.9964 -2.1108
13820TIP3    H262876   4.892   4.850   2.333  0.3679 -0.1312 -0.3608
13821TIP3   OH262877   1.869   6.288   0.135  0.0635  0.1089 -0.4185
13821TIP3    H162878   1.834   6.262   0.220  0.1521 -3.5289 -1.3336
13821TIP3    H262879   1.793   6.284   0.076  0.3660  0.7503 -0.8613
13822TIP3   OH262880   1.435   2.539   3.721  0.0789  0.1815 -0.4836
13822TIP3    H162881   1.400   2.451   3.738 -0.0848  0.3854  0.2470
13822TIP3    H262882   1.503   2.525   3.655 -0.2951 -0.4270 -0.7462
13823TIP3   OH262883   5.326   1.368  14.367 -0.4295  0.2038  0.1450
13823TIP3    H162884   5.321   1.272  14.372 -0.4111 -0.1356 -3.5803
13823TIP3    H262885   5.385   1.392  14.438 -0.6459 -2.5072  1.3695
13824TIP3   OH262886   6.723   2.546  11.548  0.5271  0.0417 -0.3201
13824TIP3    H162887   6.809   2.587  11.541  1.4033 -1.9562 -2.4529
13824TIP3    H262888   6.741   2.453  11.563 -1.1865 -0.5696 -1.6346
13825TIP3   OH262889   2.539   2.325   1.922 -0.2868  0.1270  0.0209
13825TIP3    H162890   2.509   2.279   2.000  0.5824  0.6994  0.7142
13825TIP3    H262891   2.567   2.255   1.863 -1.0965 -0.3163  0.1557
13826TIP3   OH262892   4.310   1.204  13.434 -0.7250 -0.4890  1.0259
13826TIP3    H162893   4.355   1.287  13.422  0.7181 -1.0114  2.3866
13826TIP3    H262894   4.359   1.142  13.380 -1.2113 -0.6338  0.7482
13827TIP3   OH262895   5.604   3.247  16.581  0.4795  0.0766  0.8339
13827TIP3    H162896   5.645   3.328  16.548  0.5593 -0.0691  0.5740
13827TIP3    H262897   5.600   3.260  16.675  1.3875 -0.0231  0.8961
13828TIP3   OH262898   4.735   5.030  12.222 -0.3813  0.5705 -0.0272
13828TIP3    H162899   4.694   4.944  12.214  1.1476 -0.1581 -0.5225
13828TIP3    H262900   4.688   5.073  12.293 -0.9153 -0.8344  0.5000
13829TIP3   OH262901   1.758   1.894   1.172 -0.2441  0.0914 -0.1788
13829TIP3    H162902   1.773   1.956   1.243  2.2765  0.3336 -0.8198
13829TIP3    H262903   1.782   1.809   1.208 -0.6493 -0.0474 -0.2303
13830TIP3   OH262904   4.581   0.807   0.489  0.4295 -0.0947  0.3258
13830TIP3    H162905   4.504   0.864   0.490  0.2772 -0.2879 -0.0891
13830TIP3    H262906   4.558   0.734   0.547  0.5283  0.1325  0.6585
13831TIP3   OH262907   4.052   3.816   0.648  0.4194  0.0593 -0.3290
13831TIP3    H162908   4.129   3.770   0.615  0.6261 -0.1757  0.4565
13831TIP3    H262909   3.981   3.752   0.638  0.0208  0.7370 -2.3092
13832TIP3   OH262910   0.505   1.395   0.406 -0.7340 -0.1956  0.1729
13832TIP3    H162911   0.566   1.321   0.398 -1.5257 -0.7588 -0.8078
13832TIP3    H262912   0.451   1.373   0.481 -1.2711 -0.8597 -0.3913
13833TIP3   OH262913   5.376   5.284   0.244 -0.3244  0.3937  0.1943
13833TIP3    H162914   5.459   5.273   0.197 -0.7210 -0.2719 -0.3651
13833TIP3    H262915   5.398   5.343   0.317  1.1300 -1.4873  1.3692
13834TIP3   OH262916   1.792   6.471   6.745 -0.2609  0.4163  0.5058
13834TIP3    H162917   1.783   6.377   6.735 -1.8218  0.5952 -0.0319
13834TIP3    H262918   1.708   6.507   6.717  0.4134  1.9970  0.3606
13835TIP3   OH262919   0.838   3.199   0.296 -0.4728  0.1475 -0.2913
13835TIP3    H162920   0.873   3.132   0.238 -1.5351 -0.6558 -0.0316
13835TIP3    H262921   0.878   3.280   0.265  0.0928 -0.4645 -1.2202
13836TIP3   OH262922   2.636   4.325   5.165  0.5727 -0.1732  0.5430
13836TIP3    H162923   2.701   4.300   5.230  1.0997  0.3240  0.2147
13836TIP3    H262924   2.553   4.326   5.213  1.2607  2.5748  1.8585
13837TIP3   OH262925   3.804   5.809   0.530 -0.0961  0.2168  0.0140
13837TIP3    H162926   3.886   5.802   0.579  0.3744  0.5274 -0.7127
13837TIP3    H262927   3.760   5.726   0.545  0.2567  0.1203  0.5727
13838TIP3   OH262928   5.948   1.357  17.048  0.0506 -0.2625  0.1699
13838TIP3    H162929   5.989   1.340  16.963 -1.4461 -0.7350 -0.4937
13838TIP3    H262930   6.014   1.405  17.097  0.8594  0.2554 -1.3480
13839TIP3   OH262931   2.818   3.077  12.033  0.0199  0.0968  0.1249
13839TIP3    H162932   2.800   3.169  12.049  0.3400  0.2056 -0.1124
13839TIP3    H262933   2.757   3.052  11.964  1.2614  0.6732 -1.2469
13840TIP3   OH262934   5.188   3.255   1.141 -0.3400  0.5151  0.1594
13840TIP3    H162935   5.182   3.170   1.185  0.9186  0.9506  1.2657
13840TIP3    H262936   5.280   3.280   1.150  0.1785  0.4035 -3.2453
13841TIP3   OH262937   3.816   5.889   1.446 -0.0654  0.8596 -0.4353
13841TIP3    H162938   3.838   5.980   1.430  0.6652  0.6425 -0.6917
13841TIP3    H262939   3.884   5.839   1.401 -1.2585  0.1566 -1.5708
13842TIP3   OH262940   5.444   6.151  17.052 -0.0447  0.2758  0.9928
13842TIP3    H162941   5.536   6.154  17.079 -0.4743  0.4802  2.5137
13842TIP3    H262942   5.403   6.222  17.100 -1.3274 -0.8682  1.6435
13843TIP3   OH262943   5.331   5.372  16.286  0.3522 -0.2483  0.7043
13843TIP3    H162944   5.385   5.444  16.254 -2.1019  1.7462  0.7770
13843TIP3    H262945   5.355   5.364  16.379  2.3170 -1.2154  0.1813
13844TIP3   OH262946   5.960   6.234  13.139  0.4208 -0.1359 -0.4943
13844TIP3    H162947   5.922   6.248  13.052 -0.9711 -0.3029  0.0648
13844TIP3    H262948   6.003   6.317  13.160  0.8598 -0.1255 -1.3600
13845TIP3   OH262949   3.559   0.668   1.486 -0.1440 -0.2654 -0.2545
13845TIP3    H162950   3.627   0.618   1.533  0.2159  1.9463  1.7995
13845TIP3    H262951   3.607   0.713   1.416  0.3239  0.3065  0.4104
13846TIP3   OH262952   4.147   6.480   3.070  0.7374 -0.6122 -0.1394
13846TIP3    H162953   4.058   6.478   3.034  0.1594 -1.4659  1.2624
13846TIP3    H262954   4.155   6.565   3.113  0.7304 -0.4038 -0.5434
13847TIP3   OH262955   5.109   1.235  12.246  0.2383 -0.4133  0.3530
13847TIP3    H162956   5.036   1.188  12.286 -0.9984  1.8094  0.8742
13847TIP3    H262957   5.101   1.217  12.152 -0.6988 -0.5503  0.4533
13848TIP3   OH262958   2.886   0.971   5.203 -0.0340 -0.1962  0.3768
13848TIP3    H162959   2.963   0.918   5.181  0.4716  0.3032  0.9167
13848TIP3    H262960   2.813   0.924   5.163  0.2749 -1.8270  1.6308
13849TIP3   OH262961   6.213   5.266   4.571  0.3242 -0.1254  0.5809
13849TIP3    H162962   6.308   5.275   4.563  0.2430  0.8149  0.6210
13849TIP3    H262963   6.196   5.273   4.664  0.1131  0.7998  0.4779
13850TIP3   OH262964   4.502   1.123  17.123  0.5363  0.6769  0.1156
13850TIP3    H162965   4.443   1.128  17.198  0.0313 -0.8653 -0.1520
13850TIP3    H262966   4.513   1.030  17.107  1.8512  0.9575 -0.7953
13851TIP3   OH262967   6.406   6.262   3.327 -0.2717  0.0153 -0.1323
13851TIP3    H162968   6.421   6.340   3.275  0.0665 -0.4920 -0.8131
13851TIP3    H262969   6.339   6.213   3.279  0.5852 -0.8191 -0.4959
13852TIP3   OH262970   2.190   6.037   0.191 -0.3456 -0.0488  0.3714
13852TIP3    H162971   2.156   6.102   0.129 -1.4129 -1.1163 -0.2115
13852TIP3    H262972   2.198   6.085   0.274  0.3126  1.1942 -0.3809
13853TIP3   OH262973   3.706   4.056   3.337  0.4622 -0.4736  0.2804
13853TIP3    H162974   3.685   4.103   3.256  0.2938 -2.4056 -0.8650
13853TIP3    H262975   3.686   4.118   3.407  2.6842  2.0845 -1.1582
13854TIP3   OH262976   2.489   3.671   1.204 -0.4958  0.3040 -0.0926
13854TIP3    H162977   2.401   3.642   1.229 -0.6179  0.9549  0.2561
13854TIP3    H262978   2.478   3.762   1.176 -0.1293  0.0158 -1.2348
13855TIP3   OH262979   5.587   4.211   2.146  0.1839  0.2898 -0.6172
13855TIP3    H162980   5.629   4.294   2.122 -2.8574  2.6386  1.3292
13855TIP3    H262981   5.494   4.225   2.127 -0.2444 -3.5250 -2.0806
13856TIP3   OH262982   4.928   2.428  15.036 -0.1763 -0.4887 -0.1438
13856TIP3    H162983   4.859   2.399  14.977 -0.6890 -3.5554  1.7483
13856TIP3    H262984   4.924   2.368  15.110  2.6406  1.0352  1.4435
13857TIP3   OH262985   4.725   5.893   5.671  0.0700 -0.3638  0.3761
13857TIP3    H162986   4.769   5.920   5.590  0.4808 -0.5539  0.5348
13857TIP3    H262987   4.758   5.953   5.738 -0.9963  0.4155  0.2274
13858TIP3   OH262988   6.668   2.287  15.593  0.2500 -0.5660  0.0098
13858TIP3    H162989   6.743   2.239  15.628  1.0443  1.7027  1.6487
13858TIP3    H262990   6.593   2.255  15.644  0.7691 -0.1032  1.0935
13859TIP3   OH262991   2.208   3.617   2.688 -0.7735  0.2593  0.6207
13859TIP3    H162992   2.152   3.670   2.746  0.8206  2.1363  0.5698
13859TIP3    H262993   2.294   3.620   2.729 -0.1492 -0.4331 -0.5858
13860TIP3   OH262994   4.293   1.776  10.836  0.6083 -0.0695 -0.0842
13860TIP3    H162995   4.264   1.720  10.908  0.1882  0.0543 -0.1529
13860TIP3    H262996   4.214   1.825  10.811  0.1257 -1.7261 -2.1192
13861TIP3   OH262997   5.409   6.011   0.886  0.5020  0.1361 -0.5650
13861TIP3    H162998   5.477   6.033   0.949  0.5187 -1.9158  0.2029
13861TIP3    H262999   5.357   6.091   0.878  2.0676  1.2532  0.0141
13862TIP3   OH263000   0.980   0.710   5.601  0.1032 -0.1570 -0.2882
13862TIP3    H163001   0.891   0.704   5.567 -0.1490  2.1477 -0.1489
13862TIP3    H263002   1.035   0.711   5.523  0.0403 -1.4880 -0.3763
13863TIP3   OH263003   1.108   3.625  15.320  0.0981  0.1579  0.4206
13863TIP3    H163004   1.143   3.546  15.361  0.9015  0.8784  1.1731
13863TIP3    H263005   1.047   3.661  15.385  1.7960  1.6083  1.2742
13864TIP3   OH263006   3.319   2.887  12.291 -0.0336 -0.0502 -0.5323
13864TIP3    H163007   3.312   2.936  12.209  0.6517 -0.1030 -0.6271
13864TIP3    H263008   3.307   2.795  12.265  1.9197 -0.2590 -0.8671
13865TIP3   OH263009   5.922   6.177  12.787  0.4000 -0.1815  0.0168
13865TIP3    H163010   5.845   6.123  12.767  0.6857  0.0099 -1.7226
13865TIP3    H263011   5.996   6.126  12.753  1.1685 -0.6796  2.2615
13866TIP3   OH263012   3.633   4.167   5.537 -0.4313 -0.0598 -0.4180
13866TIP3    H163013   3.714   4.154   5.586 -1.0564  2.0988  1.4180
13866TIP3    H263014   3.593   4.080   5.532 -0.5619 -0.4149  3.5303
13867TIP3   OH263015   6.570   4.982  15.662 -0.8542  0.5576 -0.1371
13867TIP3    H163016   6.588   5.076  15.674 -0.3479  0.5842 -1.0450
13867TIP3    H263017   6.613   4.960  15.580  0.6250 -0.8966  0.9660
13868TIP3   OH263018   2.615   2.920  16.239  0.1048 -0.2448  0.4916
13868TIP3    H163019   2.627   2.866  16.317 -1.8463 -1.2265  0.1655
13868TIP3    H263020   2.541   2.880  16.194  0.8781  0.5987 -1.6210
13869TIP3   OH263021   1.108   4.225   5.587  0.4800  0.5342  0.2112
13869TIP3    H163022   1.185   4.193   5.540  1.1345 -0.3177  1.7648
13869TIP3    H263023   1.123   4.319   5.595  0.8089  0.5454 -0.4586
13870TIP3   OH263024   6.734   1.000  12.087  0.0057  0.2100  0.8137
13870TIP3    H163025   6.788   0.922  12.080 -0.0891  0.1051  1.2146
13870TIP3    H263026   6.770   1.047  12.162 -0.9689 -0.2713  1.6078
13871TIP3   OH263027   0.697   1.470   6.211  0.0851 -0.1159 -0.5820
13871TIP3    H163028   0.767   1.515   6.258  0.2220  0.3729 -1.2471
13871TIP3    H263029   0.620   1.527   6.221 -0.0318 -0.2929 -0.4658
13872TIP3   OH263030   4.417   4.634   1.558 -0.8187 -0.0305  0.6037
13872TIP3    H163031   4.506   4.599   1.567 -0.6866 -0.2693 -1.2500
13872TIP3    H263032   4.427   4.728   1.574 -0.2493 -0.0712  0.5215
13873TIP3   OH263033   4.394   2.389  15.464  0.6947 -0.1960 -0.1292
13873TIP3    H163034   4.457   2.450  15.503  2.5484 -1.0348 -1.6986
13873TIP3    H263035   4.446   2.311  15.443 -1.3511 -1.8620  0.6284
13874TIP3   OH263036   0.012   1.252  17.043  0.2558  0.2136 -0.4336
13874TIP3    H163037   0.052   1.272  16.958  1.7128 -2.1024 -0.3833
13874TIP3    H263038   0.084   1.261  17.106 -0.6889  1.3983  0.5123
13875TIP3   OH263039   6.726   1.130   4.785  0.1877  0.0913 -0.0987
13875TIP3    H163040   6.809   1.141   4.739 -0.5581  1.0356 -1.2987
13875TIP3    H263041   6.726   1.199   4.851  1.4708 -1.5630  1.7438
13876TIP3   OH263042   2.472   2.107  12.048  0.3537 -0.6341  0.3137
13876TIP3    H163043   2.419   2.184  12.067  1.2288 -0.2715  1.4105
13876TIP3    H263044   2.509   2.082  12.133  1.1052 -1.4872 -0.2446
13877TIP3   OH263045   0.396   6.471   2.610 -0.1038 -0.2543 -0.5844
13877TIP3    H163046   0.437   6.556   2.595 -0.4551  0.3045  1.3493
13877TIP3    H263047   0.303   6.486   2.590 -0.1047 -0.2908 -0.6076
13878TIP3   OH263048   3.441   4.909   0.901  0.2235  0.1655  0.4936
13878TIP3    H163049   3.445   4.814   0.909 -1.5417 -0.0011 -0.1105
13878TIP3    H263050   3.420   4.924   0.808 -2.1196  0.9789  1.0735
13879TIP3   OH263051   4.016   2.237  15.551 -0.0554  0.2303  0.2374
13879TIP3    H163052   3.957   2.166  15.576  0.8096 -0.7503 -0.4564
13879TIP3    H263053   4.100   2.194  15.534  0.9350  1.6054  1.3498
13880TIP3   OH263054   0.493   0.309   3.197 -0.3929 -0.3527 -0.2013
13880TIP3    H163055   0.553   0.292   3.125  1.0440 -0.7213  1.0502
13880TIP3    H263056   0.432   0.235   3.195 -0.4510 -0.2948 -1.0962
13881TIP3   OH263057   2.108   3.979  11.116  0.2178  0.7723  0.5687
13881TIP3    H163058   2.117   3.974  11.021 -3.1291  0.7560  0.0991
13881TIP3    H263059   2.179   3.926  11.151  0.2830 -1.0054 -2.0452
13882TIP3   OH263060   2.373   2.403   0.923  0.4669  0.0504 -0.2122
13882TIP3    H163061   2.322   2.338   0.875 -1.5511 -1.0609  3.1593
13882TIP3    H263062   2.318   2.481   0.925  0.8008  0.2904 -0.2007
13883TIP3   OH263063   1.429   0.250   5.795 -0.1072  0.1526 -0.0273
13883TIP3    H163064   1.369   0.238   5.721 -0.1860 -0.7467  0.1624
13883TIP3    H263065   1.513   0.270   5.755  0.1676 -1.6245 -0.4577
13884TIP3   OH263066   6.403   4.603  14.596  0.6828 -0.1483  0.0525
13884TIP3    H163067   6.348   4.564  14.664 -0.9567  0.6334 -0.7521
13884TIP3    H263068   6.342   4.655  14.543  1.6477 -1.5556 -2.6470
13885TIP3   OH263069   2.064   4.863   4.742 -0.0504 -0.0746 -0.1355
13885TIP3    H163070   2.110   4.930   4.691 -0.4437  0.6125  0.3989
13885TIP3    H263071   2.066   4.897   4.832 -2.0266  0.2233 -0.1671
13886TIP3   OH263072   4.341   5.247  11.108 -0.1175 -0.1527  0.3687
13886TIP3    H163073   4.380   5.186  11.046  2.6184 -1.0064  2.6788
13886TIP3    H263074   4.259   5.274  11.068  0.1995 -2.6998 -2.3093
13887TIP3   OH263075   1.416   1.696   2.714 -0.2065 -0.5993 -0.0393
13887TIP3    H163076   1.405   1.764   2.647 -0.3023 -0.2504  0.3315
13887TIP3    H263077   1.427   1.615   2.663  1.6089 -0.0862 -0.5115
13888TIP3   OH263078   0.968   2.293  15.725  0.3919  0.0258  0.0390
13888TIP3    H163079   0.933   2.206  15.744 -0.9673  0.3822 -0.7118
13888TIP3    H263080   1.050   2.297  15.775  2.0723 -2.8005 -2.1664
13889TIP3   OH263081   5.012   5.804   3.836  0.1435  0.8888  0.2638
13889TIP3    H163082   4.944   5.841   3.780  1.0727  0.7908 -0.9784
13889TIP3    H263083   4.983   5.714   3.853 -0.2775  1.0054  0.1808
13890TIP3   OH263084   1.129   6.462   1.693 -0.6191  0.3344 -0.3676
13890TIP3    H163085   1.148   6.457   1.786  4.5494  2.5925 -0.9574
13890TIP3    H263086   1.150   6.376   1.659 -2.4553 -0.4773  0.3906
13891TIP3   OH263087   3.690   2.581  15.378 -0.2135  0.3925 -0.5818
13891TIP3    H163088   3.702   2.503  15.322 -1.7524  0.3755 -0.9359
13891TIP3    H263089   3.709   2.655  15.320  1.0764  0.3176 -0.2937
13892TIP3   OH263090   6.540   0.306  13.697 -0.2536 -0.3201  0.2091
13892TIP3    H163091   6.547   0.289  13.603  0.0881  2.7950 -0.4236
13892TIP3    H263092   6.503   0.394  13.703  1.3197  0.2656  2.9613
13893TIP3   OH263093   2.373   1.783  14.871  0.9208  0.1490  0.3141
13893TIP3    H163094   2.319   1.803  14.947  1.3241  1.8665  0.1918
13893TIP3    H263095   2.342   1.843  14.803  0.0022 -1.9193 -1.1737
13894TIP3   OH263096   2.138   0.568  14.966  0.3221  0.0588 -0.0064
13894TIP3    H163097   2.156   0.617  15.046  1.0022 -0.5817  0.2498
13894TIP3    H263098   2.090   0.629  14.911  0.5838  0.7913  0.5554
13895TIP3   OH263099   1.999   4.594  12.897  0.5228  0.3873 -0.6014
13895TIP3    H163100   1.911   4.583  12.934  0.0669  2.3119 -1.0106
13895TIP3    H263101   2.048   4.520  12.932 -1.3554 -0.9964 -0.7136
13896TIP3   OH263102   1.921   2.918  15.805  0.4303  0.4578  0.2118
13896TIP3    H163103   1.901   3.011  15.810  0.6946  0.5810 -0.7723
13896TIP3    H263104   1.909   2.895  15.713  0.1072 -0.5463  0.4845
13897TIP3   OH263105   5.915   1.444  15.586 -0.1468 -0.5159 -0.1858
13897TIP3    H163106   5.857   1.368  15.598 -1.1748  0.2466 -0.1883
13897TIP3    H263107   5.962   1.452  15.670 -0.1766 -1.0252 -0.1163
13898TIP3   OH263108   1.355   1.254   2.584 -0.0379 -0.0044 -0.6037
13898TIP3    H163109   1.269   1.212   2.577 -0.5501  1.2337 -2.6544
13898TIP3    H263110   1.401   1.228   2.505  1.0302  0.3222 -0.1022
13899TIP3   OH263111   5.983   3.936   2.627  0.4510 -0.2774 -0.3306
13899TIP3    H163112   6.025   3.945   2.542  1.2580  0.8700  0.1592
13899TIP3    H263113   6.017   4.010   2.679 -1.1386 -0.0851  0.5165
13900TIP3   OH263114   3.126   0.217   1.985 -0.0262  0.2294  0.0324
13900TIP3    H163115   3.145   0.294   2.039 -1.9761  1.9009 -1.4731
13900TIP3    H263116   3.135   0.143   2.044  0.9886  1.6832  1.8055
13901TIP3   OH263117   4.560   0.982  16.308 -0.2994 -0.0150 -0.6187
13901TIP3    H163118   4.593   1.071  16.303 -1.8224  0.6619  0.5068
13901TIP3    H263119   4.490   0.978  16.242 -1.2010  0.1055  0.3001
13902TIP3   OH263120   0.611   1.750   2.462  0.1806  0.5078 -0.5862
13902TIP3    H163121   0.537   1.703   2.423 -0.4850  0.8978  0.1709
13902TIP3    H263122   0.686   1.692   2.449 -0.0940  0.4330 -2.0295
13903TIP3   OH263123   5.089   1.674  16.769 -0.1883 -0.2672  0.3424
13903TIP3    H163124   5.026   1.729  16.815  0.4349 -0.0508  0.9534
13903TIP3    H263125   5.162   1.664  16.830  0.0351 -1.1629 -0.0437
13904TIP3   OH263126   5.388   5.842   1.915 -0.1088  0.5249 -0.0117
13904TIP3    H163127   5.293   5.857   1.918 -0.1052  1.2136 -2.1414
13904TIP3    H263128   5.422   5.913   1.861  1.6016  0.0555  0.3783
13905TIP3   OH263129   6.197   6.110   1.528 -0.8055 -0.1566 -0.1707
13905TIP3    H163130   6.252   6.046   1.573 -1.6436 -0.1425  0.9200
13905TIP3    H263131   6.193   6.078   1.437  1.6934  0.3454 -0.5213
13906TIP3   OH263132   4.550   3.375  15.516  0.0220  0.5165  0.2899
13906TIP3    H163133   4.607   3.429  15.571  0.6674 -1.2637  1.4627
13906TIP3    H263134   4.610   3.316  15.471 -0.7808 -0.6881  0.7428
13907TIP3   OH263135   5.913   4.609   1.548 -0.8812  0.1909  0.0590
13907TIP3    H163136   5.909   4.705   1.542  0.1549  0.1594 -1.5076
13907TIP3    H263137   5.851   4.578   1.482 -0.2939 -0.2244 -0.3003
13908TIP3   OH263138   5.389   4.380  16.702 -0.2249 -0.3286 -0.3133
13908TIP3    H163139   5.383   4.286  16.717 -1.3029  0.1444  3.0248
13908TIP3    H263140   5.298   4.411  16.706  0.3297  1.2812  2.9712
13909TIP3   OH263141   3.726   2.319  15.234  0.3052  0.5782 -0.2128
13909TIP3    H163142   3.728   2.262  15.311  0.4352  0.5914 -0.2057
13909TIP3    H263143   3.697   2.262  15.163 -2.9273  1.2791  0.4123
13910TIP3   OH263144   1.023   2.636  17.120  0.2394 -0.0223  0.8170
13910TIP3    H163145   0.982   2.567  17.173 -4.2982  1.2651 -0.5779
13910TIP3    H263146   1.043   2.593  17.037  0.1148 -0.3448  0.9510
13911TIP3   OH263147   5.430   6.116   1.290  0.1084 -0.0849  0.2468
13911TIP3    H163148   5.372   6.185   1.324 -0.1176 -0.4083  0.5253
13911TIP3    H263149   5.466   6.153   1.210  0.7191  0.7197  0.8799
13912TIP3   OH263150   0.281   3.710  14.676 -0.0248 -0.0034  0.2643
13912TIP3    H163151   0.259   3.801  14.695 -1.2557 -0.2515  0.0791
13912TIP3    H263152   0.309   3.712  14.584 -2.8700 -0.2254 -0.7023
13913TIP3   OH263153   6.523   0.388   0.156  1.1942 -0.0557  0.3500
13913TIP3    H163154   6.611   0.397   0.191  1.0313  0.6183  0.5907
13913TIP3    H263155   6.476   0.465   0.187  0.5860 -0.2839  0.0213
13914TIP3   OH263156   3.702   3.964  11.690  0.3459  0.0086  0.8349
13914TIP3    H163157   3.696   4.029  11.760 -1.2563  0.6987  0.1200
13914TIP3    H263158   3.672   3.882  11.731  1.2850 -0.0470  1.4421
13915TIP3   OH263159   0.687   1.024  14.087  0.7335  0.2105 -0.2608
13915TIP3    H163160   0.747   0.999  14.157  0.8889 -1.2673 -0.8683
13915TIP3    H263161   0.601   1.026  14.129  0.7977 -0.8552 -0.0459
13916TIP3   OH263162   3.473   1.330  14.487  0.8668  0.6104  0.6180
13916TIP3    H163163   3.414   1.255  14.494  3.2944 -1.3326  2.0245
13916TIP3    H263164   3.530   1.309  14.413 -0.0066  2.3819 -0.6383
13917TIP3   OH263165   5.542   6.506  13.479 -0.4034  0.1657 -0.6145
13917TIP3    H163166   5.590   6.542  13.554  1.2484 -1.8880 -0.6160
13917TIP3    H263167   5.598   6.525  13.404 -0.0818 -1.2836 -0.7656
13918TIP3   OH263168   1.594   2.329  15.004  0.0950 -0.3323 -0.1438
13918TIP3    H163169   1.581   2.262  14.937 -0.3321 -0.7837  0.3800
13918TIP3    H263170   1.614   2.409  14.955 -1.3828 -0.3710 -0.8611
13919TIP3   OH263171   4.760   5.483   1.333 -0.6150  0.1870 -0.2280
13919TIP3    H163172   4.853   5.473   1.311 -1.3146 -3.0217 -2.5149
13919TIP3    H263173   4.760   5.508   1.426  2.5043  0.0599 -0.0811
13920TIP3   OH263174   5.278   1.819  15.435 -0.0144 -0.0478 -0.5375
13920TIP3    H163175   5.297   1.736  15.391  1.7671 -0.1122  0.2775
13920TIP3    H263176   5.356   1.837  15.486 -0.4470  2.0607 -0.5475
13921TIP3   OH263177   3.385   0.751   5.209  0.1152 -0.1661 -0.6239
13921TIP3    H163178   3.390   0.687   5.138 -1.4847  0.2313 -1.1399
13921TIP3    H263179   3.439   0.714   5.279 -0.2178 -1.7312 -1.1531
13922TIP3   OH263180   5.307   5.194   5.808 -0.1633 -0.3439  0.2899
13922TIP3    H163181   5.270   5.123   5.861 -1.8667  1.0362  1.0555
13922TIP3    H263182   5.239   5.215   5.745  1.0768 -0.6176 -1.2104
13923TIP3   OH263183   1.470   6.018  15.124  0.1074 -0.0441  0.6408
13923TIP3    H163184   1.415   5.970  15.062 -0.4666 -0.5581  1.5256
13923TIP3    H263185   1.552   5.969  15.125  1.3494  1.7606 -2.0717
13924TIP3   OH263186   4.175   1.533  17.138  0.1006  0.3250 -0.4347
13924TIP3    H163187   4.179   1.445  17.101  0.6327 -0.4206  1.3125
13924TIP3    H263188   4.261   1.548  17.175 -0.8379  0.3945  1.8602
13925TIP3   OH263189   2.634   5.557   5.426 -0.2160 -0.0543  0.3530
13925TIP3    H163190   2.728   5.537   5.424 -0.3227 -0.5497 -0.3598
13925TIP3    H263191   2.629   5.652   5.416  0.2247  0.0383  0.9873
13926TIP3   OH263192   1.607   1.064  11.509 -0.5295 -0.2301  0.0123
13926TIP3    H163193   1.597   1.136  11.446  1.2067 -0.7134 -0.9064
13926TIP3    H263194   1.656   1.102  11.581  0.1217 -0.3899 -0.3350
13927TIP3   OH263195   3.057   3.346  13.712 -0.1894  0.1895  0.5056
13927TIP3    H163196   3.113   3.422  13.706 -1.6074  1.1848 -1.1858
13927TIP3    H263197   2.975   3.379  13.751 -1.7470  0.2223 -2.5098
13928TIP3   OH263198   6.238   2.025   4.526  0.5956 -0.0974  0.0748
13928TIP3    H163199   6.312   1.965   4.534  1.1628  0.6264  0.3979
13928TIP3    H263200   6.230   2.042   4.432  3.7558  3.2882  0.1702
13929TIP3   OH263201   1.623   0.800   6.635 -0.5438  0.5692 -0.3832
13929TIP3    H163202   1.570   0.880   6.632 -1.3488  0.0254 -1.9087
13929TIP3    H263203   1.681   0.806   6.559  1.2776  0.8956  0.9623
13930TIP3   OH263204   1.582   0.397  13.965  0.7142 -0.3487  0.2600
13930TIP3    H163205   1.562   0.490  13.959 -0.2505 -0.5163  0.6444
13930TIP3    H263206   1.515   0.355  13.912  2.9339 -0.6795 -2.5288
13931TIP3   OH263207   5.792   3.197  14.321  0.3309 -0.1899  0.1550
13931TIP3    H163208   5.880   3.159  14.316 -0.0047 -0.8458 -1.0850
13931TIP3    H263209   5.734   3.130  14.287 -0.5364  0.6412 -0.0647
13932TIP3   OH263210   5.630   2.792  15.715 -0.9450  0.0959 -0.3057
13932TIP3    H163211   5.574   2.726  15.674 -1.8980  0.0039  1.0711
13932TIP3    H263212   5.713   2.747  15.730 -1.2646 -0.4851 -0.2671
13933TIP3   OH263213   5.145   4.559  14.001 -0.2762 -0.0450 -0.2341
13933TIP3    H163214   5.196   4.544  13.922  1.1916 -0.3333  0.7332
13933TIP3    H263215   5.055   4.535  13.977  0.1861 -0.3674 -1.7192
13934TIP3   OH263216   4.777   0.077   3.240  0.1449  0.0477 -0.2502
13934TIP3    H163217   4.733   0.033   3.167 -1.1539  0.5593  0.2000
13934TIP3    H263218   4.712   0.077   3.310  0.8819  0.8179  0.4456
13935TIP3   OH263219   2.506   0.442  14.495 -0.6281  0.0770  0.0986
13935TIP3    H163220   2.492   0.422  14.587  1.3140  0.1597  0.4714
13935TIP3    H263221   2.600   0.428  14.482 -0.9094 -0.2521 -1.9527
13936TIP3   OH263222   2.813   5.023   3.616 -0.3696 -0.1627 -0.1799
13936TIP3    H163223   2.777   5.079   3.684  0.0170 -1.0645  0.7961
13936TIP3    H263224   2.809   4.934   3.653  0.2333 -0.6207 -1.1639
13937TIP3   OH263225   6.692   1.418  13.614  0.7391  0.3031 -0.0763
13937TIP3    H163226   6.760   1.486  13.616  0.6667  0.3634  0.3381
13937TIP3    H263227   6.629   1.445  13.680 -0.3686  0.9430 -1.3527
13938TIP3   OH263228   2.465   0.696  15.913  0.0341 -0.2003 -0.7565
13938TIP3    H163229   2.474   0.733  15.825 -1.2021  0.8006 -0.4888
13938TIP3    H263230   2.528   0.624  15.915  0.2774 -0.0728 -2.3690
13939TIP3   OH263231   4.550   6.672   3.298  0.4994  0.0517 -0.0182
13939TIP3    H163232   4.544   6.686   3.392 -0.1774 -0.3800  0.0129
13939TIP3    H263233   4.477   6.723   3.262  1.5219  1.2819 -0.4453
13940TIP3   OH263234   2.762   2.355   6.305 -0.2000  0.0110  0.2596
13940TIP3    H163235   2.737   2.401   6.225  1.1811 -3.9497 -2.8070
13940TIP3    H263236   2.857   2.364   6.310 -0.1602 -0.6454  0.8442
13941TIP3   OH263237   2.229   1.506  16.563  0.3042 -0.5850 -0.1062
13941TIP3    H163238   2.210   1.582  16.617 -0.6420 -0.3405 -0.7490
13941TIP3    H263239   2.322   1.487  16.579  0.5894  0.7829 -0.0385
13942TIP3   OH263240   6.192   6.493   5.440  0.1292 -0.5235 -0.2500
13942TIP3    H163241   6.151   6.513   5.525  0.2733 -0.0504 -0.2888
13942TIP3    H263242   6.160   6.562   5.382  0.2870 -0.6645 -0.5031
13943TIP3   OH263243   0.157   0.599   3.251  0.1255 -1.2662  0.4040
13943TIP3    H163244   0.080   0.545   3.236 -0.3505 -0.9990  1.7671
13943TIP3    H263245   0.214   0.581   3.176 -1.1234 -1.6857 -0.4798
13944TIP3   OH263246   0.856   1.875  13.979  0.2198  0.4075 -0.0116
13944TIP3    H163247   0.941   1.849  14.013  1.0767  2.7107 -0.2345
13944TIP3    H263248   0.794   1.851  14.047  1.1374 -0.5918  0.4901
13945TIP3   OH263249   1.138   1.925  15.066 -0.5521 -0.4420 -0.1752
13945TIP3    H163250   1.152   1.856  15.001 -0.5007  0.0150 -0.6533
13945TIP3    H263251   1.159   2.006  15.020 -0.3154 -0.1303  0.4779
13946TIP3   OH263252   6.728   1.828   4.880 -0.5542  0.5383 -0.1300
13946TIP3    H163253   6.714   1.806   4.788  1.4445  0.1739 -0.4014
13946TIP3    H263254   6.665   1.775   4.928 -0.6282 -0.3864 -1.2114
13947TIP3   OH263255   0.672   1.479   3.554 -0.2072 -0.3053  0.2775
13947TIP3    H163256   0.728   1.546   3.514  0.6867 -1.0910  0.1780
13947TIP3    H263257   0.678   1.496   3.648  0.3758 -0.4973  0.2836
13948TIP3   OH263258   5.662   0.940   2.418 -0.4335  1.0869  0.2743
13948TIP3    H163259   5.574   0.976   2.428 -0.8938 -0.0665  0.5423
13948TIP3    H263260   5.649   0.845   2.420  0.8264  0.9068  0.3928
13949TIP3   OH263261   6.484   0.776  12.201  0.1337 -1.0213  0.5580
13949TIP3    H163262   6.427   0.743  12.270 -0.0140  0.3097  1.1016
13949TIP3    H263263   6.570   0.784  12.243 -0.1736  0.7557  0.9266
13950TIP3   OH263264   1.764   3.536  14.842 -0.0367 -0.0830  0.2521
13950TIP3    H163265   1.788   3.495  14.759  0.2123 -2.9128  1.6068
13950TIP3    H263266   1.741   3.626  14.818  1.2982 -0.3909 -2.6625
13951TIP3   OH263267   6.651   1.431  12.675 -0.0538 -0.5381 -0.2517
13951TIP3    H163268   6.650   1.342  12.710  0.1294  0.0521  1.3031
13951TIP3    H263269   6.741   1.444  12.644 -0.1342 -0.9468 -0.6708
13952TIP3   OH263270   3.239   4.683  11.774  0.0793  0.2615 -0.0289
13952TIP3    H163271   3.237   4.763  11.827  1.6962  1.1704 -1.2334
13952TIP3    H263272   3.318   4.692  11.721 -0.5335 -1.4380 -1.3140
13953TIP3   OH263273   2.489   5.305  15.455  0.4043 -0.6117 -0.0266
13953TIP3    H163274   2.417   5.272  15.509  0.2454 -1.1660 -0.5691
13953TIP3    H263275   2.492   5.245  15.380  0.4411  0.3065 -0.7797
13954TIP3   OH263276   3.443   5.008   0.304  0.0243 -0.3357  0.1217
13954TIP3    H163277   3.369   4.989   0.247 -1.2634  2.9891  0.4607
13954TIP3    H263278   3.515   5.030   0.243 -0.6248  0.7782 -0.2816
13955TIP3   OH263279   4.734   0.211  15.266  0.2570  0.3969 -0.1158
13955TIP3    H163280   4.823   0.230  15.234  0.2079 -0.5620 -0.8435
13955TIP3    H263281   4.747   0.182  15.356  0.4740  2.2793  0.5205
13956TIP3   OH263282   4.690   4.359  16.868  0.3151 -0.5778 -0.3287
13956TIP3    H163283   4.755   4.361  16.798  1.4021  0.4164  0.6568
13956TIP3    H263284   4.700   4.443  16.912 -0.2944 -1.2034  1.0563
13957TIP3   OH263285   2.191   1.027  16.431 -0.1370  0.5216  0.1810
13957TIP3    H163286   2.169   1.088  16.360 -2.5154 -1.2807 -0.7890
13957TIP3    H263287   2.254   0.966  16.392  0.1519  0.7504  0.2876
13958TIP3   OH263288   1.848   3.624  15.846 -0.1479  0.5118  0.4419
13958TIP3    H163289   1.790   3.555  15.878  1.8552 -0.2446  2.7627
13958TIP3    H263290   1.907   3.580  15.786  1.2906  0.0389  2.1135
13959TIP3   OH263291   0.829   3.923  17.106  0.7473 -0.0945  0.5233
13959TIP3    H163292   0.741   3.938  17.072  0.6793 -0.7723  0.3949
13959TIP3    H263293   0.863   3.850  17.055  1.2144 -0.1322  0.8764
13960TIP3   OH263294   3.470   0.604   4.977 -0.0248 -0.2097 -0.1262
13960TIP3    H163295   3.544   0.545   4.962 -1.6234 -2.2034 -0.5679
13960TIP3    H263296   3.414   0.592   4.901 -1.4324  0.2375  0.8022
13961TIP3   OH263297   6.302   3.894   5.649 -0.2333 -0.3939  0.1783
13961TIP3    H163298   6.312   3.829   5.719 -0.7082  0.4088  1.0040
13961TIP3    H263299   6.388   3.937   5.644 -0.6142  0.5238  1.2630
13962TIP3   OH263300   1.575   6.492   2.136  0.0669 -0.5260  0.3454
13962TIP3    H163301   1.531   6.422   2.185 -0.0788 -0.6045  0.1060
13962TIP3    H263302   1.648   6.449   2.093  0.2371 -0.4428  0.5489
13963TIP3   OH263303   2.199   4.779   5.857 -0.0177  0.1352  0.0882
13963TIP3    H163304   2.152   4.781   5.774 -2.6477  1.3120  1.4844
13963TIP3    H263305   2.284   4.819   5.837 -1.4723  2.6917 -1.5854
13964TIP3   OH263306   3.365   1.174   0.067  0.1003 -0.1281 -0.0993
13964TIP3    H163307   3.299   1.161  -0.002 -0.7423 -0.1085  0.6798
13964TIP3    H263308   3.369   1.269   0.077 -0.1356 -0.1459  0.1982
13965TIP3   OH263309   5.886   1.129   3.104  0.0282 -0.3425 -0.1829
13965TIP3    H163310   5.866   1.123   3.010  1.1210 -1.5761 -0.3664
13965TIP3    H263311   5.838   1.206   3.134  0.2191  0.4902 -1.9009
13966TIP3   OH263312   0.759   1.792  15.994  0.3178 -0.2816  0.6586
13966TIP3    H163313   0.685   1.766  15.939  0.5603 -0.8907  0.6203
13966TIP3    H263314   0.723   1.860  16.052 -0.0218  0.1316 -0.0225
13967TIP3   OH263315   6.201   1.291   2.417  0.7594  0.5112 -0.4956
13967TIP3    H163316   6.183   1.203   2.449 -2.2161  1.4921  0.9256
13967TIP3    H263317   6.295   1.304   2.432  1.2233 -2.2756 -0.5428
13968TIP3   OH263318   0.202   0.174   1.479 -0.1992  0.2157  0.5155
13968TIP3    H163319   0.191   0.081   1.458  0.7261  0.0773  0.6043
13968TIP3    H263320   0.290   0.195   1.449 -0.7363  1.3149 -0.3637
13969TIP3   OH263321   1.083   6.234  15.582 -0.0839 -0.0288 -0.2987
13969TIP3    H163322   1.059   6.263  15.494  0.3668  3.1194  0.4984
13969TIP3    H263323   1.176   6.254  15.590  0.1409 -1.2811  0.5579
13970TIP3   OH263324   4.649   2.024  14.445 -0.4334  0.4393  0.3995
13970TIP3    H163325   4.560   2.002  14.416 -0.5141  1.3105 -0.0461
13970TIP3    H263326   4.648   2.119  14.456  0.3345  0.4120  0.7743
13971TIP3   OH263327   5.816   1.323  13.365  0.4754  0.6471  0.1960
13971TIP3    H163328   5.911   1.316  13.374  0.4199  0.4985  0.6771
13971TIP3    H263329   5.785   1.351  13.451 -0.0844 -1.0670  0.5854
13972TIP3   OH263330   4.528   6.404   1.827  1.2603  0.3519 -0.8836
13972TIP3    H163331   4.519   6.499   1.819 -0.7751  0.3006  0.1503
13972TIP3    H263332   4.490   6.369   1.746  1.2572  0.3873 -0.8973
13973TIP3   OH263333   2.350   3.726  15.154  0.0782  0.3525  0.2266
13973TIP3    H163334   2.318   3.635  15.155  0.3800  0.2496  1.0221
13973TIP3    H263335   2.441   3.720  15.183  0.3975  0.8133 -0.6354
13974TIP3   OH263336   3.608   2.269  16.090  0.2635  0.2990  0.3436
13974TIP3    H163337   3.674   2.324  16.132  0.0182  0.8635  0.0034
13974TIP3    H263338   3.651   2.236  16.012  0.0141  1.0103 -0.1049
13975TIP3   OH263339   0.407   1.829   2.242 -0.2104 -0.0775  0.4475
13975TIP3    H163340   0.387   1.856   2.153  0.2792 -0.8835  0.0793
13975TIP3    H263341   0.362   1.893   2.297  0.5486  1.2122 -0.3723
13976TIP3   OH263342   4.252   4.420   2.101 -0.0253 -0.5758  0.1805
13976TIP3    H163343   4.278   4.473   2.177 -0.1741 -0.0707 -0.1176
13976TIP3    H263344   4.156   4.418   2.105 -0.2508  1.8088 -1.5217
13977TIP3   OH263345   4.651   0.010   4.035  0.2996 -0.3661 -0.1703
13977TIP3    H163346   4.567   0.006   3.989  0.1832 -0.2781  0.0337
13977TIP3    H263347   4.703  -0.061   3.997  0.4982  0.2063 -1.0170
13978TIP3   OH263348   1.473   4.337   5.260  1.1203 -0.5693 -0.0019
13978TIP3    H163349   1.455   4.393   5.336 -0.9847  2.2037 -2.3222
13978TIP3    H263350   1.498   4.399   5.191  1.9372 -2.8698 -1.8827
13979TIP3   OH263351   2.349   2.896  11.708  0.6733  0.3072 -0.0950
13979TIP3    H163352   2.404   2.893  11.786 -2.0373  1.7490  2.0342
13979TIP3    H263353   2.287   2.825  11.720  0.3826  0.3775 -1.1094
13980TIP3   OH263354   4.475   2.550  14.358  0.0383 -0.9314  0.1813
13980TIP3    H163355   4.522   2.633  14.349  0.6531 -1.1863  0.9015
13980TIP3    H263356   4.396   2.573  14.408  1.4808 -1.1615  2.7598
13981TIP3   OH263357   4.614   3.197   3.399 -0.3699  0.1818  0.0055
13981TIP3    H163358   4.674   3.268   3.420  1.3072 -1.2962  0.5083
13981TIP3    H263359   4.540   3.208   3.458 -0.0808  1.4146  0.1541
13982TIP3   OH263360   6.676   0.537   2.321 -0.1538 -0.0464 -0.1891
13982TIP3    H163361   6.618   0.612   2.335 -1.4553 -0.8287 -1.0874
13982TIP3    H263362   6.635   0.466   2.371 -1.6675 -1.3577 -3.0213
13983TIP3   OH263363   2.478   3.187   5.248  0.0711  0.4124 -0.1600
13983TIP3    H163364   2.410   3.175   5.183  1.4433 -2.5106 -1.2279
13983TIP3    H263365   2.538   3.251   5.209  0.2587 -0.4239 -1.2867
13984TIP3   OH263366   2.735   3.629   1.297 -0.2930  0.5782 -0.2782
13984TIP3    H163367   2.781   3.645   1.214  0.4767  2.2573  0.4226
13984TIP3    H263368   2.642   3.633   1.273 -0.1090  2.3856 -0.8867
13985TIP3   OH263369   3.748   0.006  16.897 -0.5016 -0.1668 -0.6999
13985TIP3    H163370   3.796  -0.066  16.856 -0.9589 -0.2676 -1.0646
13985TIP3    H263371   3.717  -0.030  16.980  1.4949  0.4180  0.3621
13986TIP3   OH263372   1.400   4.949  13.979  0.0950  0.0409  0.2862
13986TIP3    H163373   1.475   4.933  13.922  1.5626  0.2243  2.0610
13986TIP3    H263374   1.347   4.869  13.973  0.7989 -0.3733 -0.4770
13987TIP3   OH263375   2.242   3.729   3.938  0.3510 -0.1345  0.1241
13987TIP3    H163376   2.272   3.765   4.021  0.9843 -1.5234  0.5341
13987TIP3    H263377   2.217   3.805   3.885  2.4920  0.9582  0.5957
13988TIP3   OH263378   4.009   1.379   1.767  0.2260  0.1424  0.7782
13988TIP3    H163379   3.984   1.323   1.693  1.5430  0.5514 -0.0163
13988TIP3    H263380   3.961   1.461   1.752  1.2040  0.5624 -0.1692
13989TIP3   OH263381   2.402   4.504  14.781 -0.2054  0.2368  0.1810
13989TIP3    H163382   2.411   4.597  14.758  0.0246 -0.2349 -1.8922
13989TIP3    H263383   2.420   4.500  14.874  1.2124  2.0928  0.0476
13990TIP3   OH263384   4.655   0.224   4.946  0.2763 -0.4103 -0.3456
13990TIP3    H163385   4.705   0.249   4.868  0.0241  1.0825 -0.0488
13990TIP3    H263386   4.588   0.292   4.955  1.4925  0.5834  2.2710
13991TIP3   OH263387   0.774   5.391   1.904 -0.1019 -0.4033 -0.2894
13991TIP3    H163388   0.707   5.440   1.857  0.5209 -1.0006 -1.8848
13991TIP3    H263389   0.817   5.456   1.959 -1.3903  0.1652  0.0719
13992TIP3   OH263390   6.063   0.847  11.133  0.2967  0.1192 -1.0037
13992TIP3    H163391   5.995   0.780  11.142 -0.6385  1.1048 -0.3573
13992TIP3    H263392   6.051   0.881  11.044  0.7094 -0.4968 -1.2976
13993TIP3   OH263393   1.840   1.428   2.786 -0.0065  0.3424 -0.5075
13993TIP3    H163394   1.870   1.345   2.823 -0.2293 -0.6565 -2.4619
13993TIP3    H263395   1.760   1.406   2.739 -0.7663  1.9243 -0.0043
13994TIP3   OH263396   3.765   2.324   3.047  1.0748  0.0585 -0.4142
13994TIP3    H163397   3.854   2.328   3.082  1.3291 -0.3472 -0.9847
13994TIP3    H263398   3.730   2.241   3.079  0.7923  0.3537  0.0496
13995TIP3   OH263399   1.289   2.211  14.971 -0.0316  0.2243  0.6537
13995TIP3    H163400   1.234   2.160  14.912  0.1168 -1.9548  2.2725
13995TIP3    H263401   1.379   2.190  14.945  0.0685  1.3526  0.0030
13996TIP3   OH263402   2.050   2.885   0.366  0.8407  0.1672 -0.3007
13996TIP3    H163403   2.100   2.860   0.443 -0.1357 -0.3845  0.1658
13996TIP3    H263404   1.959   2.892   0.396  0.2930 -0.9346 -1.5719
13997TIP3   OH263405   0.513   0.939   5.053 -0.3549 -0.1145 -0.4592
13997TIP3    H163406   0.498   0.874   5.122  0.4707  2.9544  2.9133
13997TIP3    H263407   0.425   0.971   5.031 -0.5438  0.1723  0.6209
13998TIP3   OH263408   2.668   5.782  11.751 -0.3641  0.2770  0.5784
13998TIP3    H163409   2.619   5.700  11.746  1.5395 -1.0421  1.8845
13998TIP3    H263410   2.649   5.827  11.669 -2.6487 -0.7570  0.4707
13999TIP3   OH263411   3.159   6.279   3.485 -0.4260 -0.0653 -0.3906
13999TIP3    H163412   3.143   6.190   3.455 -1.2275 -0.3854  0.8726
13999TIP3    H263413   3.089   6.295   3.549  0.3804  1.0564  0.2431
14000TIP3   OH263414   4.669   6.766   5.029  0.0574  0.3606  0.4644
14000TIP3    H163415   4.588   6.724   4.999 -1.0651  1.4838  1.7919
14000TIP3    H263416   4.670   6.851   4.984 -0.0571  0.7874  1.2570
14001TIP3   OH263417   1.808   3.371  12.962  0.4046 -0.2527 -0.3893
14001TIP3    H163418   1.761   3.376  13.045  0.3175  0.3052 -0.4668
14001TIP3    H263419   1.739   3.359  12.896  0.3530  0.5471 -0.5007
14002TIP3   OH263420   4.907   0.021  15.767 -0.1298 -0.6627  0.0252
14002TIP3    H163421   4.922  -0.071  15.745 -0.4928 -0.3849 -1.4611
14002TIP3    H263422   4.826   0.020  15.818 -0.3720 -1.1350 -0.3584
14003TIP3   OH263423   2.484   4.303  12.611 -0.3503  0.0797  0.6089
14003TIP3    H163424   2.450   4.216  12.591  0.0754 -0.0070  0.2279
14003TIP3    H263425   2.412   4.362  12.587 -0.1595 -0.0847 -0.4111
14004TIP3   OH263426   6.623   4.918   0.382 -0.1302 -0.0728  0.1903
14004TIP3    H163427   6.707   4.933   0.340 -0.2659  1.6997  0.4773
14004TIP3    H263428   6.634   4.952   0.472 -0.7550 -1.0207  0.6395
14005TIP3   OH263429   6.611   0.963  15.092 -0.1151 -0.1615 -0.2584
14005TIP3    H163430   6.571   0.916  15.165 -0.6461 -0.7444 -0.9132
14005TIP3    H263431   6.686   0.911  15.067 -0.5934 -0.5766 -0.8600
14006TIP3   OH263432   5.828   5.688   5.877  0.3373  0.0847 -0.3007
14006TIP3    H163433   5.916   5.673   5.911 -0.2671 -0.7305  0.9705
14006TIP3    H263434   5.786   5.742   5.944 -0.5419 -0.6404 -0.2494
14007TIP3   OH263435   6.132   1.737   4.422  0.0347 -0.9998  0.3497
14007TIP3    H163436   6.122   1.749   4.327 -1.0363 -1.3491  0.4148
14007TIP3    H263437   6.110   1.823   4.459  0.3733 -0.8861  0.2904
14008TIP3   OH263438   0.142   4.303   0.960  0.4299  0.1544  0.4534
14008TIP3    H163439   0.113   4.365   0.893 -0.0203  0.6492  1.0979
14008TIP3    H263440   0.100   4.221   0.936 -1.7408  0.8902  1.4631
14009TIP3   OH263441   4.235   0.108   0.286  0.4134 -0.7105  0.0082
14009TIP3    H163442   4.200   0.195   0.268  1.1109 -0.6318 -1.0279
14009TIP3    H263443   4.186   0.078   0.363  2.3921  1.8937  2.4870
14010TIP3   OH263444   0.159   0.175   4.668  0.2188  0.0619  0.5720
14010TIP3    H163445   0.090   0.155   4.731  0.3794  1.7441  1.3133
14010TIP3    H263446   0.145   0.266   4.643  1.6181  0.1637  0.0236
14011TIP3   OH263447   6.413   4.259  12.074 -0.8238  0.2649 -0.2798
14011TIP3    H163448   6.378   4.298  11.993 -2.1333  0.5958  0.4247
14011TIP3    H263449   6.338   4.217  12.115 -0.3137  0.6260  1.0773
14012TIP3   OH263450   0.241   3.142   1.643  0.3142 -0.1867  0.1386
14012TIP3    H163451   0.218   3.234   1.634  2.1160  0.4403  1.2987
14012TIP3    H263452   0.221   3.121   1.734  1.9004 -0.2972  0.4903
14013TIP3   OH263453   4.101   2.632   2.450 -0.0620  0.3438 -0.2226
14013TIP3    H163454   4.057   2.645   2.366 -3.4711 -1.9124  0.9710
14013TIP3    H263455   4.037   2.661   2.515  0.6764 -1.8627  1.6317
14014TIP3   OH263456   5.819   0.791  15.645  0.5580  0.0403  0.3462
14014TIP3    H163457   5.830   0.723  15.711  1.1117 -0.2609 -0.0497
14014TIP3    H263458   5.786   0.745  15.568 -1.5414  0.6054  0.8350
14015TIP3   OH263459   5.386   3.926  12.508  0.0487 -0.5566  0.4739
14015TIP3    H163460   5.392   3.983  12.585  1.3681 -0.4702  0.3273
14015TIP3    H263461   5.294   3.901  12.504 -0.3438  0.6762  1.1824
14016TIP3   OH263462   4.838   4.905   3.994 -0.3593  0.6117 -0.1030
14016TIP3    H163463   4.822   4.820   3.954 -0.6613  0.5629  0.1206
14016TIP3    H263464   4.930   4.903   4.019 -0.2470  0.5256 -0.5143
14017TIP3   OH263465   3.564   6.326   4.433  0.1654 -0.4492  0.4787
14017TIP3    H163466   3.559   6.400   4.373 -2.1309 -0.9047 -0.0102
14017TIP3    H263467   3.547   6.249   4.379 -0.0234 -1.0586  1.3691
14018TIP3   OH263468   0.492   3.407   5.612  0.1872 -0.0100 -0.5015
14018TIP3    H163469   0.539   3.457   5.545  2.3509 -1.8868 -0.5277
14018TIP3    H263470   0.525   3.442   5.695  0.7748 -0.5151 -0.5093
14019TIP3   OH263471   0.431   1.108   2.982  0.2718 -0.0537 -0.1476
14019TIP3    H163472   0.410   1.119   3.074 -0.9101  0.5540 -0.4743
14019TIP3    H263473   0.381   1.030   2.955  1.2471 -0.7192 -0.0983
14020TIP3   OH263474   0.620   3.078   4.105  0.1221 -0.0151 -0.0072
14020TIP3    H163475   0.682   3.005   4.107  0.1893 -0.2247 -3.4423
14020TIP3    H263476   0.667   3.148   4.060 -1.4354  0.4818 -0.9477
14021TIP3   OH263477   0.672   3.326  17.085  0.1895 -0.0707  0.3134
14021TIP3    H163478   0.721   3.243  17.090  2.1458  0.8898 -1.1890
14021TIP3    H263479   0.580   3.300  17.089  0.7604 -2.2097  0.9479
14022TIP3   OH263480   2.184   3.825  15.556  0.3001  0.0244  0.6159
14022TIP3    H163481   2.277   3.829  15.580 -0.1911  2.2781  2.5379
14022TIP3    H263482   2.145   3.899  15.602 -2.4572 -0.8044 -0.2332
14023TIP3   OH263483   2.754   1.491  16.898  0.3832 -0.0322  0.9349
14023TIP3    H163484   2.830   1.511  16.953 -0.7934  2.4558  1.7823
14023TIP3    H263485   2.698   1.567  16.905 -0.6300 -0.2654 -2.4609
14024TIP3   OH263486   1.002   2.787   0.288  0.6499  0.0903  0.4816
14024TIP3    H163487   0.970   2.807   0.377  1.1043 -0.5044  0.7863
14024TIP3    H263488   1.056   2.709   0.300  1.4722  0.5537 -0.1742
14025TIP3   OH263489   6.229   5.430  15.238  0.4147  0.1360 -0.3303
14025TIP3    H163490   6.157   5.464  15.183 -0.1522  0.8730  0.8310
14025TIP3    H263491   6.269   5.509  15.275 -0.2408 -0.3753  1.5792
14026TIP3   OH263492   1.807   5.474  11.792  0.0096 -0.0604  0.2251
14026TIP3    H163493   1.751   5.551  11.790 -0.2539 -0.2587 -1.1737
14026TIP3    H263494   1.759   5.411  11.846 -2.2835 -1.0124 -2.6319
14027TIP3   OH263495   4.653   2.599  12.344  0.1860  0.1235  0.5105
14027TIP3    H163496   4.573   2.561  12.307  0.8675 -2.2757  1.3588
14027TIP3    H263497   4.724   2.553  12.300  1.0492 -0.1871  2.1842
14028TIP3   OH263498   6.025   5.361   1.976 -0.1389  0.9569  0.1243
14028TIP3    H163499   6.106   5.411   1.961 -0.2578  1.5718  1.4216
14028TIP3    H263500   6.047   5.302   2.048 -0.9617  1.4308  0.7806
14029TIP3   OH263501   1.090   2.305   4.656 -0.1489 -0.3662 -0.5999
14029TIP3    H163502   1.116   2.383   4.606  1.3648 -0.0337  0.6400
14029TIP3    H263503   1.049   2.340   4.735  0.8177 -0.7962  0.1138
14030TIP3   OH263504   1.101   2.621   6.261  0.3202  0.3488 -0.3143
14030TIP3    H163505   1.163   2.590   6.327 -0.3545  0.1814  0.2526
14030TIP3    H263506   1.030   2.557   6.262 -0.3701  1.0927 -0.1988
14031TIP3   OH263507   1.768   1.503  13.720  0.3884 -1.1491 -0.1056
14031TIP3    H163508   1.846   1.491  13.774  1.0109  0.2159 -0.6468
14031TIP3    H263509   1.695   1.481  13.777  0.9000  1.9212  1.9605
14032TIP3   OH263510   5.130   3.826   3.719  0.5271  0.1064 -0.5611
14032TIP3    H163511   5.217   3.865   3.730  1.2479 -1.9280  1.9073
14032TIP3    H263512   5.147   3.747   3.667 -0.3068  0.9481 -2.1910
14033TIP3   OH263513   4.944   5.191   5.424 -0.0537  0.3518 -0.0386
14033TIP3    H163514   4.855   5.167   5.452  0.4854 -0.6381  0.8899
14033TIP3    H263515   4.953   5.283   5.451  0.1418 -0.3171  2.4108
14034TIP3   OH263516   2.986   2.386   5.520 -0.4089 -0.2315 -0.0614
14034TIP3    H163517   2.945   2.421   5.441  1.6697 -0.3895 -1.2868
14034TIP3    H263518   3.052   2.452   5.543 -1.6107  0.2734  2.1445
14035TIP3   OH263519   5.787   0.395  11.868 -0.4942  0.3658  0.1780
14035TIP3    H163520   5.760   0.478  11.907  1.1120 -1.1310  5.3259
14035TIP3    H263521   5.881   0.405  11.852 -0.5554 -0.0666 -0.4969
14036TIP3   OH263522   5.977   2.365  11.513  0.1729  0.4603  0.1599
14036TIP3    H163523   6.032   2.319  11.577  0.7547 -0.6623 -1.0935
14036TIP3    H263524   6.021   2.449  11.500  1.1431 -0.0803 -0.1828
14037TIP3   OH263525   5.299   4.899   2.313  0.0911  0.4017  0.1747
14037TIP3    H163526   5.299   4.881   2.219  0.1736  0.8581  0.0859
14037TIP3    H263527   5.348   4.826   2.351 -2.2575 -1.3240  0.1643
14038TIP3   OH263528   0.207   4.054   5.705 -0.0204 -0.0268 -0.1742
14038TIP3    H163529   0.174   3.994   5.771  0.1253 -0.0829 -0.1525
14038TIP3    H263530   0.298   4.029   5.692  0.0428  0.1888 -0.1633
14039TIP3   OH263531   4.849   1.418   0.371 -0.0880  0.2259 -0.0578
14039TIP3    H163532   4.770   1.378   0.334  0.1379 -0.8708  0.6110
14039TIP3    H263533   4.823   1.445   0.459 -0.1108  1.1632 -0.3456
14040TIP3   OH263534   5.959   3.744  12.597  0.4001 -0.4805 -0.3973
14040TIP3    H163535   6.027   3.690  12.557  1.2978 -1.8457  2.6504
14040TIP3    H263536   5.997   3.831  12.602  1.7422 -1.0866  0.6669
14041TIP3   OH263537   2.060   6.495  12.979 -0.5006 -0.6736  0.0842
14041TIP3    H163538   2.043   6.412  13.023  2.3077 -1.1787  0.4542
14041TIP3    H263539   2.045   6.561  13.047  0.3618 -1.1744  0.7846
14042TIP3   OH263540   0.807   0.269   5.210  0.4966 -0.0356  0.0785
14042TIP3    H163541   0.809   0.285   5.305  1.3864 -1.0649  0.2520
14042TIP3    H263542   0.899   0.253   5.187  0.2266 -0.2234 -0.8838
14043TIP3   OH263543   2.936   5.135  12.522  0.3509 -0.2716  0.5061
14043TIP3    H163544   2.972   5.121  12.434 -0.9573  0.6284 -0.1936
14043TIP3    H263545   3.003   5.186  12.568  0.4098  0.5104 -0.4405
14044TIP3   OH263546   4.452   5.913  11.126 -0.6808 -0.1135  0.6034
14044TIP3    H163547   4.408   5.922  11.041  0.4152  0.7825  0.0964
14044TIP3    H263548   4.504   5.834  11.117 -0.6181 -0.0573  0.4534
14045TIP3   OH263549   2.967   0.500   3.178  0.3932  0.0172  0.4599
14045TIP3    H163550   2.991   0.417   3.219 -1.6493 -1.1169 -0.4387
14045TIP3    H263551   2.978   0.484   3.084 -1.9543 -0.0270  0.1239
14046TIP3   OH263552   1.782   1.906  16.484  0.2631  0.2559  0.0258
14046TIP3    H163553   1.774   1.839  16.552  1.8617 -0.7525 -0.7198
14046TIP3    H263554   1.869   1.943  16.498  0.4916  0.2413 -1.2612
14047TIP3   OH263555   4.901   2.889  11.758 -0.2382 -0.1075  0.8116
14047TIP3    H163556   4.967   2.826  11.729  1.2001  1.6203  0.1308
14047TIP3    H263557   4.861   2.920  11.677 -2.8780 -2.0304  1.2534
14048TIP3   OH263558   4.180   0.320   4.124 -0.4119  0.3741  0.5315
14048TIP3    H163559   4.122   0.248   4.100  1.5155 -1.1684  0.2498
14048TIP3    H263560   4.228   0.288   4.200  0.4832  1.3451  0.4070
14049TIP3   OH263561   3.750   0.813   2.617 -0.1640 -0.1112 -0.1558
14049TIP3    H163562   3.663   0.778   2.636 -0.2820  0.3956  0.2655
14049TIP3    H263563   3.797   0.739   2.577 -0.7511 -0.4167 -0.2986
14050TIP3   OH263564   0.879   3.493   1.193  0.6577  0.4718  0.0321
14050TIP3    H163565   0.835   3.511   1.276  2.2381 -0.2547  1.0899
14050TIP3    H263566   0.882   3.397   1.187 -0.0851  0.5077 -1.2452
14051TIP3   OH263567   4.932   5.605   2.820 -0.4599 -0.3729 -0.2413
14051TIP3    H163568   4.946   5.681   2.876  0.8016 -1.3136  0.7991
14051TIP3    H263569   4.848   5.568   2.850 -0.3149 -0.2624  0.3053
14052TIP3   OH263570   1.985   5.310   0.575  0.6543  0.2236 -0.2438
14052TIP3    H163571   2.002   5.216   0.568  1.2571  0.1555  1.7404
14052TIP3    H263572   2.038   5.339   0.649 -0.9638  1.7669  0.3736
14053TIP3   OH263573   2.499   4.782  13.046  0.7956 -0.5933  0.7676
14053TIP3    H163574   2.463   4.718  12.984  1.7163 -1.7072  1.3342
14053TIP3    H263575   2.592   4.762  13.050  0.9974  0.3993  1.4404
14054TIP3   OH263576   6.318   6.673   0.130 -0.4374 -0.3493 -0.0249
14054TIP3    H163577   6.395   6.729   0.127 -1.3944  1.2772  2.4995
14054TIP3    H263578   6.353   6.584   0.137  1.2102  0.3295  0.9340
14055TIP3   OH263579   5.084   3.667   2.796 -0.0057 -0.2432  0.0676
14055TIP3    H163580   5.037   3.660   2.713 -2.8507  0.4128  1.4983
14055TIP3    H263581   5.016   3.657   2.862  1.8459  1.1723  2.3173
14056TIP3   OH263582   2.739   4.525   2.888  0.3991  0.6766  0.4598
14056TIP3    H163583   2.725   4.477   2.970  0.5747 -0.0715  0.0602
14056TIP3    H263584   2.744   4.457   2.821  2.1683  1.1339  0.0817
14057TIP3   OH263585   5.667   0.999  12.163 -0.5123 -0.6751  0.1688
14057TIP3    H163586   5.704   0.950  12.089  0.3957 -0.5295  0.5196
14057TIP3    H263587   5.652   0.932  12.230  1.7774 -0.3581  1.0652
14058TIP3   OH263588   0.448   0.359  15.159 -0.0098 -0.6323  0.7098
14058TIP3    H163589   0.516   0.319  15.213  1.0884  1.8229  1.2806
14058TIP3    H263590   0.460   0.320  15.072 -0.8171 -3.4998  1.7620
14059TIP3   OH263591   3.365   0.913   4.122  0.7036  0.1643 -0.1415
14059TIP3    H163592   3.368   1.006   4.099 -2.0947  0.4549  0.3059
14059TIP3    H263593   3.410   0.869   4.050  1.1788  1.7889 -0.8763
14060TIP3   OH263594   1.930   1.113  11.285 -0.1393  0.3637  0.2484
14060TIP3    H163595   1.918   1.058  11.363 -1.7053  1.9992  1.2247
14060TIP3    H263596   1.922   1.052  11.212 -0.8748 -0.8796  1.3076
14061TIP3   OH263597   4.860   4.507  12.707 -0.4329  0.3322  0.1517
14061TIP3    H163598   4.831   4.595  12.683  0.7033  0.4185 -1.0680
14061TIP3    H263599   4.822   4.451  12.640  0.3683  0.1593 -0.1661
14062TIP3   OH263600   1.422   5.227   1.512 -0.3824  0.2981  0.6096
14062TIP3    H163601   1.394   5.298   1.570  0.0991  1.6751 -0.7725
14062TIP3    H263602   1.412   5.263   1.424 -0.5663 -1.5329 -0.1726
14063TIP3   OH263603   5.236   0.207   0.412  0.1910 -0.7361 -0.1868
14063TIP3    H163604   5.165   0.230   0.473  0.7331 -1.1332  0.6118
14063TIP3    H263605   5.273   0.291   0.386 -0.1390 -0.5535 -0.0737
14064TIP3   OH263606   4.724   1.879   5.586  0.7352 -0.2250 -0.2327
14064TIP3    H163607   4.737   1.856   5.678 -0.1401  0.1407 -0.0022
14064TIP3    H263608   4.753   1.970   5.580  0.6315 -0.1939 -0.2734
14065TIP3   OH263609   5.994   4.877   0.030  0.1884 -0.4595  0.8037
14065TIP3    H163610   5.995   4.800  -0.026 -1.3393 -0.0014  0.1038
14065TIP3    H263611   5.918   4.865   0.087 -0.0872  0.5342  0.6685
14066TIP3   OH263612   4.858   6.543  10.266 -0.2049  0.1526 -0.2552
14066TIP3    H163613   4.944   6.513  10.296 -1.2657 -1.3652  1.4587
14066TIP3    H263614   4.814   6.463  10.236 -0.4493  1.1488 -2.8251
14067TIP3   OH263615   6.138   0.244  16.837  0.1628 -0.4104 -0.0309
14067TIP3    H163616   6.081   0.309  16.878  0.2527 -0.1967 -0.2449
14067TIP3    H263617   6.082   0.198  16.775  0.8394  1.6407 -2.2861
14068TIP3   OH263618   5.137   1.518  12.292 -0.4228 -0.2633  0.5702
14068TIP3    H163619   5.127   1.423  12.287 -0.5712 -0.2719  0.9749
14068TIP3    H263620   5.184   1.533  12.374  2.3052 -0.1633 -0.9157
14069TIP3   OH263621   6.361   4.498   5.418 -0.0026  0.1490 -0.9348
14069TIP3    H163622   6.293   4.431   5.429  1.3255 -1.0345  0.6361
14069TIP3    H263623   6.430   4.454   5.368  2.2758 -0.8937  2.7363
14070TIP3   OH263624   4.542   2.664   1.332 -0.4139  0.0515  0.0098
14070TIP3    H163625   4.466   2.609   1.349  1.7418 -2.5729  2.0236
14070TIP3    H263626   4.585   2.625   1.257 -0.0623  0.3616  0.0413
14071TIP3   OH263627   2.178   1.283  12.241 -0.1135 -0.0859  0.5623
14071TIP3    H163628   2.156   1.372  12.214 -1.9142 -0.7758 -0.4397
14071TIP3    H263629   2.274   1.279  12.238 -0.0691  1.3407 -1.0049
14072TIP3   OH263630   1.428   3.924  11.264 -0.1705  0.3818  0.3260
14072TIP3    H163631   1.469   3.965  11.188  1.8199 -0.2964  0.9671
14072TIP3    H263632   1.447   3.831  11.254 -0.9230  0.1390  1.0617
14073TIP3   OH263633   6.712   0.765   0.609 -0.5368  0.2540 -0.0938
14073TIP3    H163634   6.663   0.839   0.645 -1.1253  0.5883 -1.5188
14073TIP3    H263635   6.788   0.756   0.668 -0.4751  1.9447  0.1443
14074TIP3   OH263636   4.920   3.359   5.484 -0.8216  0.1441 -0.1597
14074TIP3    H163637   4.947   3.448   5.503 -0.1975  0.0531 -0.5814
14074TIP3    H263638   5.002   3.312   5.465 -1.1958 -0.3525 -0.5906
14075TIP3   OH263639   5.571   4.702   4.597 -0.0191 -0.3334 -0.1734
14075TIP3    H163640   5.633   4.679   4.666 -0.6366  1.0102  0.8870
14075TIP3    H263641   5.493   4.649   4.616 -1.1140  1.7603  1.7401
14076TIP3   OH263642   5.859   6.334   0.696  0.3335  0.2449  0.1025
14076TIP3    H163643   5.887   6.381   0.618  0.3485  0.2438  0.1072
14076TIP3    H263644   5.918   6.363   0.765 -1.5831  2.6793  0.8875
14077TIP3   OH263645   6.273   4.582  10.609 -0.2075 -0.7608 -0.0056
14077TIP3    H163646   6.218   4.597  10.687 -1.6435 -1.6156 -0.8107
14077TIP3    H263647   6.218   4.610  10.536  1.3743  0.6897 -0.7127
14078TIP3   OH263648   0.488   2.692  16.468  0.2720  0.0866 -0.0127
14078TIP3    H163649   0.566   2.746  16.485  0.6651 -0.5267  0.1559
14078TIP3    H263650   0.490   2.625  16.536 -0.2306 -0.1345 -0.2111
14079TIP3   OH263651   5.861   5.970   5.815 -0.5869 -0.3284  0.2363
14079TIP3    H163652   5.782   6.014   5.847 -0.7847 -1.3222  1.1736
14079TIP3    H263653   5.850   5.879   5.841  0.5263 -0.6358 -0.3018
14080TIP3   OH263654   1.053   2.875  12.846  0.5752  0.5290  0.1756
14080TIP3    H163655   1.077   2.923  12.925 -0.0743 -0.2377  0.8511
14080TIP3    H263656   1.075   2.935  12.774  2.5777  0.6700  0.8296
14081TIP3   OH263657   1.865   1.737   2.136 -0.0631 -0.0391  0.2060
14081TIP3    H163658   1.866   1.810   2.198 -2.4105  0.1126  0.1817
14081TIP3    H263659   1.920   1.670   2.175  0.8797  1.1532  0.9893
14082TIP3   OH263660   1.557   5.148   0.196  0.0118 -0.2301  0.8347
14082TIP3    H163661   1.471   5.165   0.157 -0.7938 -3.9427  0.5914
14082TIP3    H263662   1.598   5.234   0.202 -3.4093  1.6341  0.2915
14083TIP3   OH263663   5.568   0.055   2.337 -0.1553 -1.1760 -0.2380
14083TIP3    H163664   5.616  -0.027   2.349 -1.2809 -1.7124  0.8545
14083TIP3    H263665   5.620   0.121   2.383  1.0526 -1.1246 -1.5992
14084TIP3   OH263666   5.882   5.985   1.489 -0.2148 -0.2685 -0.3534
14084TIP3    H163667   5.908   5.934   1.412  1.0603  0.1413 -0.2118
14084TIP3    H263668   5.815   6.044   1.456  0.2549 -0.1599 -1.1436
14085TIP3   OH263669   4.865   6.563  17.156 -0.2310  0.0531  0.0715
14085TIP3    H163670   4.793   6.516  17.198  0.4692 -0.8798  0.2435
14085TIP3    H263671   4.872   6.645  17.205 -0.6927 -0.1719  0.5177
14086TIP3   OH263672   5.635   0.996  14.341  0.1100 -0.3920 -0.2708
14086TIP3    H163673   5.641   1.088  14.368 -0.6104 -0.6351  0.7737
14086TIP3    H263674   5.622   0.948  14.423  0.9482 -1.4850 -0.7514
14087TIP3   OH263675   5.310   3.648  12.039 -0.4969  0.0141  0.0448
14087TIP3    H163676   5.282   3.557  12.039 -1.5178  0.3151  0.5098
14087TIP3    H263677   5.241   3.695  11.991 -0.2114  0.6047  0.1936
14088TIP3   OH263678   2.504   2.560  11.312  0.0356 -0.1067 -0.6704
14088TIP3    H163679   2.495   2.471  11.346 -0.6537  0.1711 -0.1005
14088TIP3    H263680   2.553   2.550  11.230  2.4829 -0.7298  0.7560
14089TIP3   OH263681   0.137   4.923  12.358  0.2878  0.4793  0.2004
14089TIP3    H163682   0.138   4.892  12.448  2.0204 -0.6922 -0.1722
14089TIP3    H263683   0.219   4.972  12.349  0.3337  0.2298 -0.8376
14090TIP3   OH263684   6.639   4.347   1.861 -0.3097  0.3521  0.5952
14090TIP3    H163685   6.618   4.269   1.809 -0.5085 -1.1928  2.8439
14090TIP3    H263686   6.735   4.350   1.861 -0.2611 -0.5885  1.3995
14091TIP3   OH263687   5.249   5.916  15.110 -0.1096  0.3820 -0.1631
14091TIP3    H163688   5.201   5.898  15.030  0.9729  2.1894 -1.2826
14091TIP3    H263689   5.212   5.998  15.143  0.6203  0.5744  0.2071
14092TIP3   OH263690   0.648   6.529   2.111  0.5661 -0.3760  0.5684
14092TIP3    H163691   0.695   6.570   2.183  1.7527 -1.7745  0.6355
14092TIP3    H263692   0.715   6.515   2.044  0.3427 -2.5970  0.7409
14093TIP3   OH263693   2.240   2.950   2.153  0.3408  0.3212  0.1456
14093TIP3    H163694   2.182   2.887   2.196  0.5942 -0.8152 -1.0982
14093TIP3    H263695   2.251   3.020   2.217 -2.3576  0.5758  0.4561
14094TIP3   OH263696   4.895   3.798  13.462 -0.1122  0.6849 -0.0935
14094TIP3    H163697   4.931   3.715  13.494 -0.2532  0.9347  0.7628
14094TIP3    H263698   4.801   3.782  13.457 -0.3018  1.1820  1.3851
14095TIP3   OH263699   1.492   5.442  16.988  0.2270 -0.6626 -0.3893
14095TIP3    H163700   1.543   5.476  16.915  1.3987 -0.8015  0.3387
14095TIP3    H263701   1.421   5.392  16.947  0.9107 -0.8139 -1.4228
14096TIP3   OH263702   1.034   1.069  11.706 -0.0706 -0.0802  0.6818
14096TIP3    H163703   0.971   1.088  11.637  0.9905 -0.8237 -0.5442
14096TIP3    H263704   1.104   1.133  11.693 -0.3802  0.5027  1.7965
14097TIP3   OH263705   5.753   2.349   5.611 -0.1626 -0.2464  0.4107
14097TIP3    H163706   5.795   2.361   5.696 -0.4235 -0.4252  0.5696
14097TIP3    H263707   5.755   2.254   5.597 -0.2242 -0.2279  0.2722
14098TIP3   OH263708   5.974   2.827  12.004  0.3812 -0.3465  0.2091
14098TIP3    H163709   6.047   2.864  11.955  0.4110 -0.1403  0.4054
14098TIP3    H263710   5.897   2.851  11.954  0.4620 -0.7184 -0.0914
14099TIP3   OH263711   0.732   3.634  11.170  0.4907  0.1600  0.3291
14099TIP3    H163712   0.683   3.578  11.110 -1.2825 -0.4697  2.2371
14099TIP3    H263713   0.671   3.706  11.190  1.0473  0.3618  1.3389
14100TIP3   OH263714   4.299   5.216  13.117  0.4480 -0.5243  0.0322
14100TIP3    H163715   4.307   5.282  13.186 -0.8342 -0.7793  0.4664
14100TIP3    H263716   4.335   5.136  13.155 -0.5133 -0.7356  0.5461
14101TIP3   OH263717   3.495   3.491  14.069  0.1562  0.1846  0.4699
14101TIP3    H163718   3.473   3.503  14.161  0.4711  0.2233  0.5390
14101TIP3    H263719   3.522   3.399  14.063  2.0685  0.6861  0.8113
14102TIP3   OH263720   3.233   5.267   4.533 -0.2637 -0.0826 -0.3481
14102TIP3    H163721   3.148   5.237   4.568  0.2041 -1.6227 -0.4451
14102TIP3    H263722   3.275   5.187   4.501  1.3405  0.6030 -0.0626
14103TIP3   OH263723   4.000   0.815  12.605  0.7236  0.0398 -0.0496
14103TIP3    H163724   3.988   0.726  12.638 -1.8738 -0.1580 -1.2640
14103TIP3    H263725   4.002   0.805  12.510  1.6512  1.1819 -0.1706
14104TIP3   OH263726   1.377   5.861  14.362  0.2295 -0.1095  0.0254
14104TIP3    H163727   1.318   5.935  14.350  0.1161 -0.0695  0.7554
14104TIP3    H263728   1.367   5.838  14.455  0.4275 -0.8953 -0.1407
14105TIP3   OH263729   4.830   4.921   0.434 -0.3301  0.2129 -0.5074
14105TIP3    H163730   4.914   4.892   0.399 -0.4333 -0.2050 -0.4101
14105TIP3    H263731   4.805   4.854   0.496 -1.0180  0.0351 -0.9598
14106TIP3   OH263732   0.996   0.650  11.948 -0.0277  0.1750  0.3112
14106TIP3    H163733   1.061   0.648  12.018  0.3820 -1.0708 -0.0699
14106TIP3    H263734   1.025   0.719  11.889  0.5278  0.1337  0.5311
14107TIP3   OH263735   4.315   5.310   2.271 -0.2592 -0.0254  0.1835
14107TIP3    H163736   4.267   5.392   2.275 -0.8812 -0.3650 -0.1810
14107TIP3    H263737   4.260   5.253   2.217 -0.5759 -1.1657  1.6420
14108TIP3   OH263738   1.738   5.934  11.905 -0.1649 -0.2189 -0.2994
14108TIP3    H163739   1.721   5.950  11.998 -0.6048 -0.7142 -0.2857
14108TIP3    H263740   1.833   5.941  11.897 -0.0985 -0.3941  0.2401
14109TIP3   OH263741   5.595   4.868  13.426  0.3228 -0.2826 -0.6986
14109TIP3    H163742   5.649   4.879  13.347 -0.5599 -0.6493 -1.3722
14109TIP3    H263743   5.579   4.958  13.456  2.4419 -0.2001  0.3375
14110TIP3   OH263744   3.801   3.365   4.568  0.4387  0.5013  0.5032
14110TIP3    H163745   3.868   3.421   4.608  1.1712  0.3320 -0.4480
14110TIP3    H263746   3.726   3.371   4.627  0.3639  2.7608  0.2797
14111TIP3   OH263747   3.655   2.881   5.427  0.1771  0.0046  0.3898
14111TIP3    H163748   3.702   2.889   5.344 -1.6398 -0.1719 -0.7140
14111TIP3    H263749   3.676   2.792   5.458 -0.1591 -0.4269 -0.5788
14112TIP3   OH263750   1.595   3.300  11.769  0.1464 -0.4433 -0.7114
14112TIP3    H163751   1.589   3.220  11.820 -0.4017 -0.4601 -0.7956
14112TIP3    H263752   1.547   3.281  11.688  0.2689 -0.1314 -0.8607
14113TIP3   OH263753   3.990   0.661   1.957  0.4418 -0.0020 -0.5923
14113TIP3    H163754   4.062   0.691   2.013  0.4989 -0.0290 -0.6514
14113TIP3    H263755   4.033   0.609   1.890  0.4527  0.6081 -1.0671
14114TIP3   OH263756   0.414   2.891   3.953  0.1243 -0.6968  0.3076
14114TIP3    H163757   0.461   2.859   4.030  0.6526  0.2810  0.4035
14114TIP3    H263758   0.453   2.843   3.880  0.8254 -0.3802  0.4637
14115TIP3   OH263759   2.575   3.052   3.471  0.8405 -0.0468 -0.2658
14115TIP3    H163760   2.556   2.975   3.417  0.8824 -1.5346  1.7073
14115TIP3    H263761   2.512   3.118   3.443 -0.4337 -1.4389 -0.8046
14116TIP3   OH263762   2.917   2.125   4.977 -0.3457  0.2861  0.6946
14116TIP3    H163763   2.827   2.154   4.960  0.0220  0.3046 -1.4793
14116TIP3    H263764   2.971   2.199   4.951  0.4276 -0.9303 -1.4294
14117TIP3   OH263765   0.016   0.517  13.023 -0.4068 -0.5806 -0.3032
14117TIP3    H163766  -0.019   0.552  12.941 -1.8603 -2.0014 -0.3518
14117TIP3    H263767   0.102   0.481  12.999  0.7853  2.1250 -0.3981
14118TIP3   OH263768   4.033   5.880  15.810 -0.4637  0.0357 -0.0036
14118TIP3    H163769   3.956   5.896  15.864 -0.3891  0.5505 -0.0454
14118TIP3    H263770   4.003   5.890  15.720 -0.7867 -1.6554 -0.1224
14119TIP3   OH263771   0.685   4.448  14.285  0.0375 -0.1953  0.1950
14119TIP3    H163772   0.681   4.423  14.378  1.1173  0.2535  0.3790
14119TIP3    H263773   0.705   4.542  14.286 -2.6410  0.4600 -0.4951
14120TIP3   OH263774   4.638   0.891  11.015  1.0015  1.2241  0.3218
14120TIP3    H163775   4.684   0.872  10.934  0.5005  0.8267  0.1274
14120TIP3    H263776   4.675   0.829  11.078 -0.0465  0.1349 -0.1089
14121TIP3   OH263777   4.547   0.371  12.691 -0.2408 -0.5715  0.1811
14121TIP3    H163778   4.476   0.360  12.628 -0.8598 -1.8953  1.0578
14121TIP3    H263779   4.627   0.375  12.638 -0.8449 -0.5612 -0.7359
14122TIP3   OH263780   4.594   6.178  13.850  0.2355  0.3051  0.3226
14122TIP3    H163781   4.596   6.224  13.933  1.3761 -0.0156  0.4842
14122TIP3    H263782   4.515   6.124  13.855 -1.0786  2.1165  0.1609
14123TIP3   OH263783   0.391   6.116   3.374 -0.0087 -0.1246  0.4840
14123TIP3    H163784   0.339   6.106   3.294  1.0143  1.2601 -0.4016
14123TIP3    H263785   0.328   6.146   3.440 -0.6424 -0.0408 -0.1425
14124TIP3   OH263786   0.569   6.532  15.965 -0.3346  0.6750  0.0242
14124TIP3    H163787   0.566   6.627  15.955  0.9524  0.7400  0.0947
14124TIP3    H263788   0.604   6.518  16.053  2.7239  0.2042 -1.1277
14125TIP3   OH263789   0.689   2.175   2.130  0.4453  0.0558 -0.0384
14125TIP3    H163790   0.671   2.116   2.203  1.9278  0.3723  0.6134
14125TIP3    H263791   0.784   2.170   2.117  0.1530 -0.5481 -2.4437
14126TIP3   OH263792   4.773   4.987  15.392 -0.0256  0.4329 -0.0215
14126TIP3    H163793   4.694   4.948  15.355 -1.1914  2.5192  0.1763
14126TIP3    H263794   4.794   4.930  15.467 -1.8988  0.3772  0.5094
14127TIP3   OH263795   3.896   5.388  12.547  0.3820  0.9918  0.4833
14127TIP3    H163796   3.806   5.414  12.530 -0.1511  0.6627  2.5301
14127TIP3    H263797   3.903   5.299  12.513 -0.4001  0.6270  1.2381
14128TIP3   OH263798   3.648   2.357   4.096  0.3386  0.0001 -0.1274
14128TIP3    H163799   3.637   2.380   4.189  0.0729 -0.1294 -0.1265
14128TIP3    H263800   3.721   2.412   4.067 -0.1093  0.6532 -0.0504
14129TIP3   OH263801   3.364   2.784  14.254  0.1454  0.9081  0.2996
14129TIP3    H163802   3.375   2.699  14.297 -1.5324 -0.6673 -2.1392
14129TIP3    H263803   3.437   2.791  14.193  0.1784  1.1416  0.3616
14130TIP3   OH263804   0.096   4.060   4.313 -0.1423 -0.0600 -0.3966
14130TIP3    H163805   0.128   4.137   4.267  0.2995 -0.0556 -0.0895
14130TIP3    H263806   0.010   4.085   4.345 -0.2435  0.1044 -0.7934
14131TIP3   OH263807   2.595   0.182  16.701 -0.3903 -0.2358 -0.6400
14131TIP3    H163808   2.501   0.199  16.702 -0.8461 -2.4080 -0.5136
14131TIP3    H263809   2.602   0.086  16.705  1.8359 -0.1229 -0.4196
14132TIP3   OH263810   0.780   2.926   1.370 -1.1402  0.0242  0.5635
14132TIP3    H163811   0.716   2.879   1.422 -2.1143  1.9939  1.2609
14132TIP3    H263812   0.770   2.891   1.282 -1.6535 -1.1925  1.0822
14133TIP3   OH263813   0.681   4.058   5.239 -0.5111  0.2839  0.0340
14133TIP3    H163814   0.602   4.046   5.291  0.3611 -0.4880  1.2178
14133TIP3    H263815   0.752   4.062   5.303  0.5000  0.2388 -1.0468
14134TIP3   OH263816   5.403   0.452  13.463  0.0480 -0.0116  0.4719
14134TIP3    H163817   5.494   0.420  13.457 -0.0678 -0.3569  0.5280
14134TIP3    H263818   5.400   0.501  13.545 -0.3944 -1.9099  1.6461
14135TIP3   OH263819   4.844   4.071  11.535  0.0176  0.5660  0.7137
14135TIP3    H163820   4.812   4.001  11.477 -1.2470  2.9530 -1.7291
14135TIP3    H263821   4.790   4.063  11.613 -1.8905  0.3038 -0.5572
14136TIP3   OH263822   6.589   6.504  11.406  0.3810 -0.1383  0.5072
14136TIP3    H163823   6.542   6.571  11.357  1.0751 -0.7931 -1.1364
14136TIP3    H263824   6.531   6.483  11.480 -1.4431 -0.1976 -0.8642
14137TIP3   OH263825   1.360   4.514   2.309  0.3072  0.2704 -0.0324
14137TIP3    H163826   1.300   4.459   2.359 -0.1717  0.1397 -0.7325
14137TIP3    H263827   1.434   4.457   2.287 -1.0120 -0.6982 -2.3274
14138TIP3   OH263828   2.112   4.410   3.728 -0.8050  0.4042 -0.3799
14138TIP3    H163829   2.204   4.435   3.722 -0.9549  1.3156  0.6685
14138TIP3    H263830   2.098   4.391   3.821 -1.4073 -0.8579 -0.7115
14139TIP3   OH263831   3.697   0.825  16.844  0.4177  0.5039  0.3540
14139TIP3    H163832   3.763   0.841  16.776 -0.3750  1.7085 -0.1679
14139TIP3    H263833   3.744   0.777  16.912  0.9885 -1.6374 -1.4478
14140TIP3   OH263834   0.089   5.433   1.961  0.0254  0.6723  0.1539
14140TIP3    H163835   0.047   5.433   2.047  2.0707 -1.2081  1.2803
14140TIP3    H263836   0.182   5.445   1.981  0.8517 -2.0810 -1.5327
14141TIP3   OH263837   6.686   0.663  14.873 -0.8713  0.0670 -0.2687
14141TIP3    H163838   6.591   0.659  14.886 -0.9211  1.4028 -0.0207
14141TIP3    H263839   6.723   0.630  14.955 -1.1787  3.1735  1.2856
14142TIP3   OH263840   5.220   2.027  14.473  0.7901  0.5316 -0.0729
14142TIP3    H163841   5.159   1.998  14.406  0.7350  2.4940 -0.9430
14142TIP3    H263842   5.306   2.023  14.431  0.6680  2.5808 -0.6376
14143TIP3   OH263843   0.543   3.010   2.423 -0.5622 -0.0409 -0.4557
14143TIP3    H163844   0.467   3.065   2.404 -1.1563 -0.2986  1.0534
14143TIP3    H263845   0.600   3.065   2.476 -0.6557 -0.5170  0.1470
14144TIP3   OH263846   2.601   4.163  13.967 -0.1513  0.1469  0.4677
14144TIP3    H163847   2.657   4.091  13.939  1.2644  1.2805  0.2700
14144TIP3    H263848   2.538   4.123  14.027  0.4070 -1.2876  0.1311
14145TIP3   OH263849   5.796   2.387   3.864 -0.6216  0.4589 -0.0439
14145TIP3    H163850   5.750   2.408   3.945 -0.5086 -1.2209  0.4868
14145TIP3    H263851   5.888   2.381   3.889 -0.6277 -0.4329 -0.2085
14146TIP3   OH263852   0.859   1.409   0.014 -0.6555 -0.2912 -0.0930
14146TIP3    H163853   0.785   1.469   0.003  0.5668  1.2099 -0.4728
14146TIP3    H263854   0.934   1.466   0.026  1.3176 -1.4518 -4.6270
14147TIP3   OH263855   3.534   1.646   4.026  0.6155  0.6797  0.2219
14147TIP3    H163856   3.540   1.716   4.090  0.9365  0.4409  0.4563
14147TIP3    H263857   3.577   1.680   3.948  0.1424  1.0055  0.0978
14148TIP3   OH263858   3.616   6.245  14.673  0.2321  0.1343  0.2816
14148TIP3    H163859   3.595   6.338  14.660 -0.5605 -0.2213 -1.2679
14148TIP3    H263860   3.627   6.211  14.584  0.3186 -1.2935  0.8216
14149TIP3   OH263861   6.261   5.585  12.473 -0.2941 -0.3688 -0.0671
14149TIP3    H163862   6.166   5.571  12.468 -0.3518  0.4793 -2.3200
14149TIP3    H263863   6.296   5.499  12.498 -1.5525 -1.1377 -0.7941
14150TIP3   OH263864   5.284   2.121   4.080  0.3003  0.0097 -0.0125
14150TIP3    H163865   5.203   2.082   4.115 -0.6567  2.9578  1.4306
14150TIP3    H263866   5.329   2.155   4.157  2.6519 -0.9505 -0.8806
14151TIP3   OH263867   0.684   6.417  16.329  0.0256  0.5073 -0.2187
14151TIP3    H163868   0.745   6.400  16.258  0.9640 -0.5036  0.7964
14151TIP3    H263869   0.612   6.356  16.314  1.0598 -0.9731  0.6568
14152TIP3   OH263870   1.511   1.387   5.663  0.3040  0.1335  1.0298
14152TIP3    H163871   1.602   1.360   5.661  0.3084  0.0452 -1.5271
14152TIP3    H263872   1.472   1.347   5.585 -2.0685 -0.2656  2.3192
14153TIP3   OH263873   5.496   1.189  11.173 -0.3205 -0.7552 -0.1396
14153TIP3    H163874   5.530   1.195  11.083 -0.4208 -0.6508 -0.1706
14153TIP3    H263875   5.429   1.121  11.169 -2.4371  1.2383 -0.8125
14154TIP3   OH263876   6.791   4.800  12.713  0.0272  0.4655  0.0723
14154TIP3    H163877   6.881   4.808  12.743 -0.2414  1.9328  0.5642
14154TIP3    H263878   6.793   4.730  12.648  1.5116  0.4962  0.0578
14155TIP3   OH263879   3.168   1.214  12.463  0.3786  0.3322  0.4439
14155TIP3    H163880   3.213   1.136  12.432  0.1938 -0.1057  1.2419
14155TIP3    H263881   3.230   1.286  12.448  0.0666  0.2409 -1.4417
14156TIP3   OH263882   3.417   5.833  15.301  0.6529  0.1095  1.0300
14156TIP3    H163883   3.429   5.924  15.330 -1.9877  0.9186 -0.0199
14156TIP3    H263884   3.472   5.825  15.223 -0.0577  1.2972  0.3666
14157TIP3   OH263885   5.878   6.358   3.977 -0.7062  0.0057 -0.0024
14157TIP3    H163886   5.843   6.316   3.899 -0.0840  1.2127 -0.9623
14157TIP3    H263887   5.959   6.400   3.948 -1.0676  1.4777  0.9962
14158TIP3   OH263888   5.565   4.236   0.910 -0.3266 -0.4939 -0.2525
14158TIP3    H163889   5.557   4.245   1.005  1.9494 -3.3077  0.3387
14158TIP3    H263890   5.625   4.306   0.885  1.0333 -1.2130  0.8401
14159TIP3   OH263891   4.863   0.707  16.850  0.8523  0.5374  0.1900
14159TIP3    H163892   4.916   0.780  16.880  1.2068  0.3701 -0.0212
14159TIP3    H263893   4.778   0.720  16.892  1.4269  0.1430  1.5137
14160TIP3   OH263894   3.737   0.043   5.944  0.3783  0.3233 -0.6181
14160TIP3    H163895   3.658   0.014   5.899  1.1869 -2.8175 -0.2570
14160TIP3    H263896   3.708   0.066   6.032 -0.2487  0.0819 -0.7615
14161TIP3   OH263897   4.350   2.085  16.973  0.0982  0.0055  0.1005
14161TIP3    H163898   4.344   2.103  17.067 -0.2500  0.4447 -0.0039
14161TIP3    H263899   4.286   2.016  16.958 -0.7603  0.8042 -0.0234
14162TIP3   OH263900   2.938   5.333   2.860  0.5144 -0.1284  0.9052
14162TIP3    H163901   2.982   5.306   2.779 -0.0988 -1.3806  0.9541
14162TIP3    H263902   2.998   5.306   2.930  0.3469 -0.4674  0.9192
14163TIP3   OH263903   4.165   5.323  12.594  0.4141 -0.1182  0.3734
14163TIP3    H163904   4.080   5.366  12.586 -0.0296 -0.9450  0.4631
14163TIP3    H263905   4.145   5.230  12.581  1.1028 -0.4692  1.6787
14164TIP3   OH263906   3.565   1.262  10.435  0.1904 -0.1433 -0.5625
14164TIP3    H163907   3.615   1.253  10.516 -1.2345  0.1304  0.3854
14164TIP3    H263908   3.541   1.355  10.431 -0.2564 -0.2684 -0.9733
14165TIP3   OH263909   0.186   2.400  16.370 -0.8672  0.1477  0.2104
14165TIP3    H163910   0.159   2.489  16.395  0.7422  0.3252  1.5047
14165TIP3    H263911   0.257   2.379  16.431 -1.5757 -2.2594  0.2758
14166TIP3   OH263912   0.244   2.409  13.874 -0.3412  0.3707  0.4669
14166TIP3    H163913   0.289   2.367  13.801 -0.3582  0.4356  0.4185
14166TIP3    H263914   0.243   2.343  13.943 -0.4289  0.2690  0.3683
14167TIP3   OH263915   3.689   2.791  14.630 -0.0711  0.1166  0.4003
14167TIP3    H163916   3.764   2.785  14.689  0.5836  1.8203 -0.1743
14167TIP3    H263917   3.641   2.710  14.644  0.4975  0.0951  2.6609
14168TIP3   OH263918   6.449   0.516  14.278  0.7687 -0.0774  0.1829
14168TIP3    H163919   6.397   0.538  14.355  1.8674  0.2674  0.8525
14168TIP3    H263920   6.407   0.564  14.206  0.3132  0.3781  0.7429
14169TIP3   OH263921   6.593   4.903   4.877 -0.4435 -0.4251 -0.2332
14169TIP3    H163922   6.640   4.900   4.960 -0.0100 -1.2735 -0.5041
14169TIP3    H263923   6.652   4.861   4.815 -0.0016  1.6974 -1.3601
14170TIP3   OH263924   2.860   2.680  12.177  0.0289 -0.1227 -0.2088
14170TIP3    H163925   2.863   2.610  12.242  2.3559 -0.7565 -0.8889
14170TIP3    H263926   2.924   2.744  12.208 -2.9146  2.4569  1.0701
14171TIP3   OH263927   4.734   6.050   5.163 -0.6713  0.0402  0.5663
14171TIP3    H163928   4.821   6.078   5.192 -0.3743 -0.3708  0.0703
14171TIP3    H263929   4.707   6.118   5.101 -1.1926  0.7735  1.5482
14172TIP3   OH263930   5.415   3.067   1.826  0.7475 -0.1643  0.2645
14172TIP3    H163931   5.417   3.025   1.740  1.0682  0.4752 -0.0466
14172TIP3    H263932   5.325   3.056   1.856  0.7385 -0.7585  0.0322
14173TIP3   OH263933   4.657   0.026  15.616 -0.0606  0.2349  0.5607
14173TIP3    H163934   4.604   0.102  15.641  0.6856  0.9302  0.0731
14173TIP3    H263935   4.747   0.053  15.634  0.1934 -0.6435  0.6403
14174TIP3   OH263936   1.408   6.241   4.213  0.1372  0.0620 -0.5340
14174TIP3    H163937   1.484   6.288   4.180 -0.2040  0.9404 -0.0874
14174TIP3    H263938   1.334   6.278   4.166 -0.2333  0.5995  0.4617
14175TIP3   OH263939   1.058   2.139  16.654  0.1407  0.1043  0.0244
14175TIP3    H163940   1.137   2.177  16.694 -0.0825  1.0652 -0.4380
14175TIP3    H263941   1.073   2.146  16.560 -1.8694  3.3463 -0.1763
14176TIP3   OH263942   6.263   0.507   6.098  0.0217 -0.2437 -0.2786
14176TIP3    H163943   6.340   0.514   6.042 -0.6377  1.0182 -1.0923
14176TIP3    H263944   6.269   0.582   6.157  1.0242 -1.8875  1.8357
14177TIP3   OH263945   1.514   5.202  16.807  0.6204  0.3923 -0.1684
14177TIP3    H163946   1.535   5.289  16.772 -1.2657  0.7617 -0.4952
14177TIP3    H263947   1.578   5.144  16.767  0.6282  1.3214 -1.5803
14178TIP3   OH263948   4.613   3.041  12.235  0.8094 -0.4366 -0.7193
14178TIP3    H163949   4.646   2.976  12.174  0.8393 -0.9776 -0.1444
14178TIP3    H263950   4.635   3.006  12.322  0.7528  0.2976 -0.3975
14179TIP3   OH263951   1.208   0.820   6.350 -0.1788 -0.2693  0.6375
14179TIP3    H163952   1.167   0.749   6.400 -1.0034 -0.1371  0.1628
14179TIP3    H263953   1.157   0.824   6.269 -1.0544  1.7976  1.2327
14180TIP3   OH263954   1.029   1.120  12.236 -0.3527 -0.1790  0.5367
14180TIP3    H163955   0.981   1.070  12.169  0.5161  0.7778 -0.8425
14180TIP3    H263956   1.018   1.068  12.316  0.8468 -2.8318 -0.8913
14181TIP3   OH263957   6.616   3.267   1.014 -0.3734  0.4729 -0.2915
14181TIP3    H163958   6.662   3.188   0.984  2.9346  1.6826  1.1321
14181TIP3    H263959   6.623   3.328   0.941 -2.6751 -0.3338 -1.2796
14182TIP3   OH263960   6.264   0.797   0.768  0.2228  0.3237  0.4882
14182TIP3    H163961   6.224   0.834   0.689  0.4404 -0.1947  0.1225
14182TIP3    H263962   6.246   0.860   0.837  0.6443  1.1320 -0.1320
14183TIP3   OH263963   4.709   1.188  16.153  0.1732  0.1012  0.4224
14183TIP3    H163964   4.675   1.216  16.068 -0.7760  1.0986  1.0985
14183TIP3    H263965   4.796   1.153  16.134 -0.9546 -1.9509 -1.2778
14184TIP3   OH263966   4.350   5.985  17.178 -0.0951 -0.4933 -0.3735
14184TIP3    H163967   4.395   5.914  17.224  1.3239  0.5275 -0.1293
14184TIP3    H263968   4.261   5.985  17.214  0.1377 -1.5736  0.2466
14185TIP3   OH263969   0.673   0.841  14.567  0.3011  0.7673 -0.2688
14185TIP3    H163970   0.581   0.841  14.539 -0.0499 -0.7880  0.7523
14185TIP3    H263971   0.689   0.931  14.595 -1.2356  0.8345  0.5007
14186TIP3   OH263972   1.437   5.878   5.591  0.4618 -0.0623  0.0080
14186TIP3    H163973   1.398   5.934   5.524 -0.2406 -0.6123 -0.0635
14186TIP3    H263974   1.507   5.930   5.629  0.1920  0.6427 -0.4465
14187TIP3   OH263975   3.013   0.349   1.122  0.2245 -0.0629 -0.0835
14187TIP3    H163976   2.949   0.399   1.172 -0.2448  0.1831 -0.8968
14187TIP3    H263977   3.067   0.415   1.080  0.6097 -0.2642  0.0927
14188TIP3   OH263978   4.344   0.353  14.794 -0.0212  0.1234 -0.3072
14188TIP3    H163979   4.305   0.345  14.882  4.3004  0.8961  1.9538
14188TIP3    H263980   4.335   0.265  14.757  0.0860 -0.9145  1.9210
14189TIP3   OH263981   1.302   0.085  13.908  0.0277 -0.1508  0.5714
14189TIP3    H163982   1.362   0.123  13.843  1.5512 -0.6986  1.5884
14189TIP3    H263983   1.295   0.153  13.975  0.7788 -0.6750  1.2002
14190TIP3   OH263984   4.152   2.903  12.556 -0.2477  0.0379 -0.0659
14190TIP3    H163985   4.129   2.996  12.556 -1.5302 -0.2535 -0.2002
14190TIP3    H263986   4.111   2.869  12.636  0.8700 -0.2660  0.3913
14191TIP3   OH263987   2.688   1.944  13.581 -0.6153 -0.2005 -0.2963
14191TIP3    H163988   2.760   1.890  13.614  1.5400  1.3108 -2.1839
14191TIP3    H263989   2.623   1.882  13.550 -0.5344 -1.6201  2.1179
14192TIP3   OH263990   5.878   4.846   4.948 -0.1179  0.2111 -0.1547
14192TIP3    H163991   5.846   4.846   4.858 -2.1311 -0.7906  0.4808
14192TIP3    H263992   5.860   4.757   4.979  2.6113 -0.1587  0.5807
14193TIP3   OH263993   4.071   0.302   4.647 -0.8255  0.0008 -0.0512
14193TIP3    H163994   4.156   0.288   4.688 -0.5399  1.5116 -0.0687
14193TIP3    H263995   4.025   0.363   4.705  0.2404  3.6099 -2.6465
14194TIP3   OH263996   5.870   0.529  12.307 -0.0017  0.2563  0.1313
14194TIP3    H163997   5.807   0.600  12.298  1.4794  1.8582  1.6102
14194TIP3    H263998   5.864   0.504  12.399  2.3182  1.3093  0.6365
14195TIP3   OH263999   3.301   1.552  11.216 -1.0439 -0.2005 -0.4975
14195TIP3    H164000   3.335   1.505  11.293  1.4269  1.5733 -0.4030
14195TIP3    H264001   3.267   1.483  11.159  1.1068 -1.9914  0.2601
14196TIP3   OH264002   4.648   2.138  16.996 -0.1391  0.3109 -0.5556
14196TIP3    H164003   4.709   2.188  17.050 -1.2472  0.5861  0.4840
14196TIP3    H264004   4.562   2.174  17.016 -0.7308 -0.5127 -1.4867
14197TIP3   OH264005   3.366   6.085   3.974 -0.1696 -0.1701 -0.0776
14197TIP3    H164006   3.297   6.148   3.956  1.2048  1.1263 -1.0317
14197TIP3    H264007   3.325   5.999   3.961 -1.4991  0.5780 -0.9326
14198TIP3   OH264008   4.913   4.533   2.232 -0.3121 -1.3366  0.4614
14198TIP3    H164009   4.888   4.621   2.205  2.2873 -0.9472 -1.0054
14198TIP3    H264010   4.943   4.491   2.151  1.9073 -2.2881  1.6935
14199TIP3   OH264011   4.433   4.946   3.744 -0.4486  0.1342 -0.7340
14199TIP3    H164012   4.408   4.886   3.673 -1.9966 -0.0051 -0.1192
14199TIP3    H264013   4.379   5.023   3.730  0.9779  1.1094 -1.0683
14200TIP3   OH264014   1.596   6.132   4.860  0.3469  0.2774  0.4354
14200TIP3    H164015   1.576   6.039   4.850  0.7878  0.2737 -0.5497
14200TIP3    H264016   1.524   6.176   4.814  1.4949  0.3168 -1.4514
14201TIP3   OH264017   6.313   2.801   0.428 -0.4745  0.6823 -0.3616
14201TIP3    H164018   6.269   2.719   0.406 -2.7461  1.8562 -0.5084
14201TIP3    H264019   6.284   2.820   0.518  2.6887 -0.2657  0.9956
14202TIP3   OH264020   1.501   5.520  16.366  0.0823  0.0939  0.1938
14202TIP3    H164021   1.458   5.453  16.420  1.0524  0.4143  1.4106
14202TIP3    H264022   1.435   5.543  16.300 -0.7569 -1.0728  0.5837
14203TIP3   OH264023   1.759   2.037  17.121  0.1341 -0.9300 -0.2931
14203TIP3    H164024   1.803   2.116  17.091  0.9435 -1.5130 -0.6981
14203TIP3    H264025   1.774   2.035  17.216 -1.1129  0.1229 -0.0511
14204TIP3   OH264026   6.177   0.455   2.135 -0.5110  0.8764 -0.2497
14204TIP3    H164027   6.218   0.370   2.117  0.9853  1.6906 -0.8812
14204TIP3    H264028   6.102   0.459   2.076  0.3183  0.6156 -1.3639
14205TIP3   OH264029   3.379   2.823   4.492  0.1671  0.0028 -0.6970
14205TIP3    H164030   3.443   2.782   4.551 -2.2114  0.3222  2.4175
14205TIP3    H264031   3.332   2.749   4.454  0.6081 -0.2002 -0.8585
14206TIP3   OH264032   0.559   3.538   3.789  0.3444 -0.0263  0.1804
14206TIP3    H164033   0.627   3.572   3.731  0.5539 -1.3537 -0.3863
14206TIP3    H264034   0.494   3.499   3.730  0.1028 -0.5677  0.7873
14207TIP3   OH264035   2.752   2.538   0.220 -0.6245 -0.0893 -0.4256
14207TIP3    H164036   2.738   2.562   0.312  0.1816  1.7616 -0.7446
14207TIP3    H264037   2.670   2.497   0.194 -1.7138  1.3531  0.5259
14208TIP3   OH264038   0.304   2.307   5.082 -0.3863  0.7709  0.0187
14208TIP3    H164039   0.264   2.349   5.157  1.6926  3.5291 -0.2675
14208TIP3    H264040   0.245   2.325   5.009 -1.0311  0.4877  0.4642
14209TIP3   OH264041   2.549   1.434   4.097  0.2024  0.2874  0.3803
14209TIP3    H164042   2.629   1.475   4.130  1.3726  0.8575 -2.7864
14209TIP3    H264043   2.580   1.359   4.046 -1.3701 -0.1076 -0.0440
14210TIP3   OH264044   5.404   4.190  16.214 -0.6508  0.1284  0.0195
14210TIP3    H164045   5.464   4.221  16.145  0.7738 -0.6447  0.8588
14210TIP3    H264046   5.432   4.238  16.292 -1.9972  0.7033  0.1785
14211TIP3   OH264047   2.905   3.949  12.691  0.8074 -0.6099  0.2171
14211TIP3    H164048   2.850   3.986  12.622 -1.5762 -1.5109  1.5604
14211TIP3    H264049   2.885   4.000  12.769  1.1089 -1.6075  0.9740
14212TIP3   OH264050   0.090   5.539  11.831 -0.4425  0.0772  0.1013
14212TIP3    H164051   0.125   5.579  11.752 -0.8086  0.9213  0.3543
14212TIP3    H264052   0.051   5.612  11.880  0.1426 -0.3630  1.2571
14213TIP3   OH264053   0.779   5.458  11.763  0.0390 -0.3400 -0.0938
14213TIP3    H164054   0.762   5.448  11.670  0.5354 -2.0216 -0.0489
14213TIP3    H264055   0.764   5.551  11.781 -1.1091 -0.1852 -1.6184
14214TIP3   OH264056   4.249   4.427  12.387 -0.6471 -0.2609  0.1804
14214TIP3    H164057   4.162   4.411  12.422 -0.5203  2.2968  2.0263
14214TIP3    H264058   4.307   4.371  12.438 -0.6881  2.1028  3.1205
14215TIP3   OH264059   4.593   4.082  11.713 -0.1849  0.0502  0.0277
14215TIP3    H164060   4.553   4.149  11.768  1.3395  2.2638 -1.4015
14215TIP3    H264061   4.637   4.023  11.774 -1.2791  0.5133  1.3041
14216TIP3   OH264062   1.255   3.037  13.645  0.0917  0.0138  0.4004
14216TIP3    H164063   1.206   3.077  13.716 -0.0488 -0.2158  0.4370
14216TIP3    H264064   1.220   3.077  13.565 -0.3507 -0.3462  0.4095
14217TIP3   OH264065   3.425   3.296   6.218 -0.0883 -0.0471  0.0039
14217TIP3    H164066   3.370   3.257   6.151  0.8655 -0.9677 -0.2630
14217TIP3    H264067   3.513   3.260   6.202  0.0607 -0.7380  2.0834
14218TIP3   OH264068   1.804   3.441   0.143 -0.1802  0.2430  0.4843
14218TIP3    H164069   1.771   3.519   0.187 -1.0891 -0.4960  1.1393
14218TIP3    H264070   1.850   3.392   0.212  0.6351  0.3254  0.0142
14219TIP3   OH264071   3.853   1.439   4.450  0.1480 -0.2589  0.0236
14219TIP3    H164072   3.861   1.522   4.405  0.5680  0.1517  0.8430
14219TIP3    H264073   3.837   1.375   4.380  1.0769  0.3128 -0.7295
14220TIP3   OH264074   1.372   4.079  13.658 -0.4456 -0.0085  0.5679
14220TIP3    H164075   1.396   4.036  13.739  0.2077  0.3463  0.5661
14220TIP3    H264076   1.279   4.058  13.646 -0.0236 -1.8540  0.2858
14221TIP3   OH264077   3.248   6.594  14.760 -0.3924  0.1819  0.2323
14221TIP3    H164078   3.299   6.547  14.826 -0.7771  2.1134  2.0302
14221TIP3    H264079   3.163   6.608  14.801 -0.4395  1.9938 -0.3787
14222TIP3   OH264080   4.147   3.746  12.942 -0.0175 -0.1141  0.2165
14222TIP3    H164081   4.209   3.801  12.894 -1.1701  0.1780 -0.9960
14222TIP3    H264082   4.107   3.805  13.006 -0.6768  0.2953 -0.5492
14223TIP3   OH264083   5.236   5.733  13.571 -0.2705 -0.4581 -0.6274
14223TIP3    H164084   5.304   5.785  13.526  0.2501 -0.6299 -0.0542
14223TIP3    H264085   5.285   5.669  13.623 -0.8992 -1.1523 -0.8761
14224TIP3   OH264086   5.095   3.397   4.538  0.6242  0.4193  0.4442
14224TIP3    H164087   5.010   3.353   4.538  0.6904  0.2754 -0.3571
14224TIP3    H264088   5.159   3.326   4.537  0.7366  0.5275 -0.3131
14225TIP3   OH264089   4.227   3.097   0.217  0.4173  0.0347  0.1898
14225TIP3    H164090   4.193   3.008   0.212  0.9918 -0.1382 -0.8528
14225TIP3    H264091   4.234   3.126   0.126  0.9941  0.8495  0.4745
14226TIP3   OH264092   1.529   5.813  13.928  0.4139 -0.0792  0.4572
14226TIP3    H164093   1.560   5.792  13.839 -0.7506 -0.5231  0.1440
14226TIP3    H264094   1.600   5.785  13.985  1.3800  0.6313 -0.3476
14227TIP3   OH264095   5.343   4.314   0.672  0.1942  0.5166  0.3760
14227TIP3    H164096   5.426   4.353   0.698  0.1086  1.5271 -0.7668
14227TIP3    H264097   5.278   4.355   0.730  0.5369 -0.8054  1.7604
14228TIP3   OH264098   0.480   1.307  15.125 -0.0489 -0.2967  0.1462
14228TIP3    H164099   0.460   1.278  15.214  0.5845  1.5629  0.9449
14228TIP3    H264100   0.469   1.229  15.071 -4.2013 -0.7015  1.2221
14229TIP3   OH264101   2.708   6.146  14.754  0.0067 -0.0198  0.0100
14229TIP3    H164102   2.789   6.186  14.724 -0.0259 -0.5794 -0.8692
14229TIP3    H264103   2.687   6.082  14.686 -0.1016 -1.3126  1.2349
14230TIP3   OH264104   2.241   2.364  11.525 -0.2743 -0.0841 -0.0772
14230TIP3    H164105   2.324   2.346  11.480 -0.1343  0.6389 -0.1211
14230TIP3    H264106   2.240   2.302  11.598  0.1591 -0.3101 -0.2547
14231TIP3   OH264107   6.672   1.743  11.116  0.6458  0.2414  0.1051
14231TIP3    H164108   6.688   1.764  11.208 -0.9904 -0.5674  0.6146
14231TIP3    H264109   6.589   1.695  11.116  0.3600  0.6307 -1.8497
14232TIP3   OH264110   2.563   6.468   0.093  0.0021 -0.1186  0.4350
14232TIP3    H164111   2.521   6.554   0.083 -0.4719 -0.3101  0.7598
14232TIP3    H264112   2.498   6.405   0.063  1.7257 -0.2084 -3.8963
14233TIP3   OH264113   6.013   2.989  13.082 -0.2340  0.5245 -0.6438
14233TIP3    H164114   6.064   2.942  13.015 -0.2296  0.6539 -0.7323
14233TIP3    H264115   6.014   2.931  13.158 -0.8762  0.0349 -1.0019
14234TIP3   OH264116   1.446   3.843   1.959  0.0331 -0.3391  0.0684
14234TIP3    H164117   1.456   3.751   1.937  0.5170 -0.2594 -0.0516
14234TIP3    H264118   1.364   3.869   1.916 -0.7664 -1.0112  1.1209
14235TIP3   OH264119   1.500   5.842  11.259  0.4588  0.2480 -0.1275
14235TIP3    H164120   1.590   5.812  11.248  1.0924  0.1853  3.7671
14235TIP3    H264121   1.453   5.766  11.293 -0.1498  1.1463  1.1421
14236TIP3   OH264122   0.884   5.246  17.093 -0.0956  0.2339  0.4176
14236TIP3    H164123   0.890   5.266  17.000 -1.5630 -0.9263  0.0227
14236TIP3    H264124   0.800   5.284  17.120 -1.3049 -2.2718  0.4297
14237TIP3   OH264125   2.745   2.424  15.320 -0.1304 -0.9325 -0.1636
14237TIP3    H164126   2.743   2.364  15.395 -0.9731 -1.9325 -0.9581
14237TIP3    H264127   2.835   2.421  15.289 -0.2359 -2.0873 -0.4029
14238TIP3   OH264128   0.860   1.804  12.139 -0.3262  0.1183 -0.1733
14238TIP3    H164129   0.892   1.717  12.116  0.5466  0.4909 -0.3886
14238TIP3    H264130   0.927   1.840  12.197 -0.3146  0.9397 -0.6857
14239TIP3   OH264131   1.669   3.860  12.863 -0.1989 -0.4481  0.2359
14239TIP3    H164132   1.656   3.867  12.769 -0.8531  0.1009  0.3594
14239TIP3    H264133   1.599   3.913  12.901  0.2226 -0.4369  1.0239
14240TIP3   OH264134   0.567   1.876   5.549 -0.6807  0.5266 -0.3873
14240TIP3    H164135   0.497   1.909   5.606  0.1510  1.0210  0.3673
14240TIP3    H264136   0.640   1.858   5.608 -0.4272 -0.7939 -1.0490
14241TIP3   OH264137   1.763   5.659  13.265 -0.1749 -0.9058  0.3419
14241TIP3    H164138   1.809   5.721  13.321 -1.5173  1.1460 -0.7049
14241TIP3    H264139   1.825   5.587  13.253  1.9278  0.7542  0.6672
14242TIP3   OH264140   5.443   3.654   3.219  0.3036  0.5465  0.1455
14242TIP3    H164141   5.466   3.652   3.312 -1.0577  1.5620  0.5426
14242TIP3    H264142   5.414   3.565   3.199  2.2083 -0.1449  0.2065
14243TIP3   OH264143   6.430   6.455   5.287 -0.0907  0.2798 -0.1686
14243TIP3    H164144   6.358   6.459   5.349 -0.1173  0.5422 -0.2166
14243TIP3    H264145   6.405   6.386   5.225 -0.3669  0.4684 -0.2687
14244TIP3   OH264146   4.232   1.946   4.459  0.0255 -0.4957  0.0136
14244TIP3    H164147   4.159   1.987   4.413 -0.2732 -0.8801  0.1352
14244TIP3    H264148   4.305   2.007   4.448 -0.4274  0.1050  0.2722
14245TIP3   OH264149   0.791   4.194   4.105 -0.0617 -0.1714  0.4027
14245TIP3    H164150   0.864   4.168   4.161 -0.0747  0.1921  0.5863
14245TIP3    H264151   0.715   4.193   4.162 -0.3062 -1.0948  0.0857
14246TIP3   OH264152   4.085   1.240   0.101  0.3149 -0.1248 -0.3159
14246TIP3    H164153   4.014   1.222   0.039  1.1036 -1.8542 -0.7744
14246TIP3    H264154   4.059   1.195   0.181 -0.6765  2.0615  0.6808
14247TIP3   OH264155   3.775   4.462  14.256  0.2076 -0.4338  0.4439
14247TIP3    H164156   3.835   4.535  14.273 -0.3506 -0.5581  3.5485
14247TIP3    H264157   3.794   4.436  14.166  3.0887  1.0884  0.4811
14248TIP3   OH264158   1.982   6.458  13.900 -0.6391  0.2910 -0.5451
14248TIP3    H164159   2.038   6.500  13.835 -1.8158  0.8294 -1.2442
14248TIP3    H264160   1.895   6.493  13.883 -1.4142 -1.3947 -0.2474
14249TIP3   OH264161   2.576   4.106   2.994  0.7510  0.2890 -0.5928
14249TIP3    H164162   2.542   4.182   2.946  0.1633 -1.2026 -2.6901
14249TIP3    H264163   2.580   4.036   2.929 -0.2611 -1.9584  1.5727
14250TIP3   OH264164   2.962   3.561  17.063  0.2450  0.5402  0.1717
14250TIP3    H164165   2.901   3.491  17.086  0.7958  0.2855  0.9008
14250TIP3    H264166   3.048   3.518  17.057  0.4158  0.9530 -0.4913
14251TIP3   OH264167   3.761   1.183   5.569 -0.0723  0.2905  0.1630
14251TIP3    H164168   3.842   1.143   5.537  0.4037 -0.4901  2.1917
14251TIP3    H264169   3.720   1.219   5.491  1.5800 -0.4559 -1.1181
14252TIP3   OH264170   0.983   1.608  12.757 -0.3846  0.8614 -0.2351
14252TIP3    H164171   0.941   1.688  12.727  0.2588  0.8733 -1.1258
14252TIP3    H264172   1.058   1.597  12.700 -0.9482 -0.8533 -0.7063
14253TIP3   OH264173   6.675   5.864   5.667 -0.8501 -0.8554 -0.3395
14253TIP3    H164174   6.716   5.829   5.746  0.6336  0.3214 -0.5538
14253TIP3    H264175   6.710   5.811   5.596  0.1010 -0.0355 -0.4931
14254TIP3   OH264176   3.002   5.843  14.750 -0.0472  0.3779 -0.3593
14254TIP3    H164177   2.995   5.769  14.689 -1.1069  0.2321 -0.0698
14254TIP3    H264178   3.066   5.901  14.709 -2.1412  1.2433 -2.6700
14255TIP3   OH264179   6.228   0.096   3.939 -0.1633  0.1146 -0.5118
14255TIP3    H164180   6.214   0.006   3.908 -0.8673  0.7913 -2.3377
14255TIP3    H264181   6.307   0.125   3.893 -1.6033  1.3691 -2.3790
14256TIP3   OH264182   4.472   3.773  11.211  0.7914 -0.0465  0.1065
14256TIP3    H164183   4.472   3.677  11.203 -1.2910 -0.0028 -0.8481
14256TIP3    H264184   4.426   3.790  11.293  1.7164  0.1496  0.5998
14257TIP3   OH264185   0.044   3.874  13.680  0.0006 -0.0139  0.1001
14257TIP3    H164186   0.065   3.967  13.669 -1.8445  0.2221 -2.1543
14257TIP3    H264187   0.112   3.828  13.632  1.4316  0.0311  1.9492
14258TIP3   OH264188   3.138   4.379   0.225  0.0956 -0.4936 -0.0206
14258TIP3    H164189   3.165   4.294   0.189 -0.5505  0.1555 -2.2489
14258TIP3    H264190   3.070   4.409   0.164  0.3792  1.6701  0.6536
14259TIP3   OH264191   1.902   2.916  15.220 -0.1097 -0.3616 -0.1370
14259TIP3    H164192   1.964   2.950  15.284  1.0467 -1.7225 -0.4755
14259TIP3    H264193   1.862   2.993  15.181  1.1176  0.5500  0.3544
14260TIP3   OH264194   1.110   3.306   5.018 -0.1235 -0.0630  0.1513
14260TIP3    H164195   1.055   3.273   4.948 -0.1088 -0.7250  0.4533
14260TIP3    H264196   1.160   3.377   4.977 -1.0276  0.4031 -0.1759
14261TIP3   OH264197   2.720   2.263  15.555  0.3570  0.1985  0.3521
14261TIP3    H164198   2.733   2.177  15.595  0.0220  0.4211  0.9504
14261TIP3    H264199   2.702   2.321  15.629 -0.4608  0.5803 -0.1402
14262TIP3   OH264200   6.228   3.138  14.971  0.3676 -0.2026 -0.0175
14262TIP3    H164201   6.279   3.192  14.912 -1.5203  1.1129 -0.5242
14262TIP3    H264202   6.222   3.053  14.928  1.7745 -0.2677 -0.1124
14263TIP3   OH264203   4.983   4.373  15.913 -0.0186 -0.4584  0.0147
14263TIP3    H164204   4.999   4.333  15.828  0.0729 -1.3597  0.4494
14263TIP3    H264205   5.069   4.405  15.941 -0.1333  0.2724 -0.4346
14264TIP3   OH264206   6.553   3.714  13.389 -0.0390 -0.4509  0.0073
14264TIP3    H164207   6.637   3.683  13.422  1.5725  1.7723 -1.7318
14264TIP3    H264208   6.490   3.688  13.457  2.4626  0.3728  2.8703
14265TIP3   OH264209   3.870   6.759   1.445 -0.0475 -0.0688  0.0577
14265TIP3    H164210   3.813   6.715   1.508  0.3142 -2.0291 -0.8953
14265TIP3    H264211   3.957   6.723   1.462  0.4341  0.9624 -0.1834
14266TIP3   OH264212   4.721   4.998   3.744  0.2904  0.1812  0.2261
14266TIP3    H164213   4.625   4.994   3.750  0.2629 -0.3069 -0.3853
14266TIP3    H264214   4.751   4.978   3.833 -0.1709  0.2111  0.3952
14267TIP3   OH264215   0.393   1.840   1.027 -0.3090 -0.3382  0.2692
14267TIP3    H164216   0.398   1.837   0.932 -0.7413 -2.6577  0.2565
14267TIP3    H264217   0.304   1.868   1.047 -1.4008 -3.2060 -0.1278
14268TIP3   OH264218   5.510   4.652  15.788 -0.3144  0.5076  0.5618
14268TIP3    H164219   5.425   4.690  15.808 -0.6372 -0.1710  0.5113
14268TIP3    H264220   5.491   4.561  15.767  0.2683  0.6453 -0.6790
14269TIP3   OH264221   5.419   4.520  12.082  0.3734  0.0849 -0.5130
14269TIP3    H164222   5.382   4.483  12.001 -0.0584  1.3113 -0.8975
14269TIP3    H264223   5.486   4.581  12.052  1.6985 -0.9897  0.1478
14270TIP3   OH264224   0.263   5.517   2.552  0.0826  0.6916  0.2973
14270TIP3    H164225   0.182   5.515   2.603 -0.0929 -0.0005  0.0050
14270TIP3    H264226   0.331   5.493   2.615 -0.2619 -1.2028  0.0178
14271TIP3   OH264227   4.087   0.379   3.548 -0.5024 -0.2066 -0.4515
14271TIP3    H164228   4.095   0.300   3.601 -2.3953 -0.7937 -0.9626
14271TIP3    H264229   4.080   0.450   3.613  0.0225 -0.5858  0.0268
14272TIP3   OH264230   2.807   6.279   5.455 -0.3749 -0.2728  0.2271
14272TIP3    H164231   2.885   6.324   5.422 -0.3007 -0.8532 -0.4108
14272TIP3    H264232   2.841   6.216   5.519 -0.4519  0.3582  0.9040
14273TIP3   OH264233   2.469   6.395  13.767  0.5395  0.4363 -0.2847
14273TIP3    H164234   2.502   6.416  13.855 -1.3508 -0.8905  0.8334
14273TIP3    H264235   2.540   6.347  13.726  1.1912  0.4091  0.8161
14274TIP3   OH264236   3.103   6.144   0.815 -0.0666  0.4770 -0.4593
14274TIP3    H164237   3.050   6.219   0.788 -1.0718 -0.3537 -0.8730
14274TIP3    H264238   3.186   6.182   0.844 -0.5091  1.7299 -0.7774
14275TIP3   OH264239   1.216   5.039   0.198  0.3027  0.4444  0.1556
14275TIP3    H164240   1.179   5.061   0.284  0.2293  2.3485 -0.3197
14275TIP3    H264241   1.174   5.099   0.138  0.1264 -1.0648 -1.3067
14276TIP3   OH264242   3.006   1.994   2.139 -0.5904  0.7922 -0.1037
14276TIP3    H164243   2.984   1.901   2.141  0.9669  0.3077 -1.9955
14276TIP3    H264244   2.980   2.022   2.051  0.7754  1.6105 -0.2756
14277TIP3   OH264245   1.441   1.473  13.802 -0.4262  1.0653  0.1258
14277TIP3    H164246   1.380   1.547  13.805 -0.2072  1.3490 -1.4248
14277TIP3    H264247   1.496   1.484  13.879  0.0138  2.8975 -0.4023
14278TIP3   OH264248   4.136   1.014   3.995 -0.0381 -0.1507 -0.0937
14278TIP3    H164249   4.117   0.934   3.946 -1.7360  0.6410 -0.8188
14278TIP3    H264250   4.151   0.984   4.085 -0.9568 -1.2807 -0.2829
14279TIP3   OH264251   3.744   3.618   4.839 -0.0961 -0.2397  0.0360
14279TIP3    H164252   3.791   3.694   4.804 -2.4006  1.3114  0.1032
14279TIP3    H264253   3.798   3.589   4.913  0.0300  2.4089  1.0977
14280TIP3   OH264254   5.431   5.482  15.644 -0.1429 -0.9610  0.1614
14280TIP3    H164255   5.395   5.524  15.566  0.6375 -1.7538 -0.6500
14280TIP3    H264256   5.386   5.525  15.717  0.7964  1.4679 -0.5811
14281TIP3   OH264257   1.484   3.118   4.548 -0.1759 -0.0179 -0.3650
14281TIP3    H164258   1.481   3.208   4.518  0.5486 -0.1368 -0.7920
14281TIP3    H264259   1.576   3.094   4.546 -0.1680 -0.2857  1.2146
14282TIP3   OH264260   2.026   5.911  12.188  0.3907 -0.1942  0.0479
14282TIP3    H164261   2.001   5.818  12.188  0.0927 -0.1135  0.5918
14282TIP3    H264262   1.971   5.951  12.254  0.2002  0.4639 -0.4992
14283TIP3   OH264263   4.327   3.214   4.508 -0.2821  0.0836  0.1133
14283TIP3    H164264   4.397   3.255   4.458  0.5613 -0.2540  0.9983
14283TIP3    H264265   4.250   3.220   4.451  0.2766  1.1532 -0.5537
14284TIP3   OH264266   1.375   2.120  11.521  0.0611  0.1017  0.3703
14284TIP3    H164267   1.453   2.164  11.556 -0.7027 -0.0951  2.4631
14284TIP3    H264268   1.349   2.059  11.590 -1.3573 -0.5929 -0.7208
14285TIP3   OH264269   6.682   1.823  13.013 -0.1692 -0.1272 -0.4767
14285TIP3    H164270   6.632   1.779  12.944 -2.1533  1.6569 -0.2763
14285TIP3    H264271   6.623   1.824  13.088  2.1367 -2.5325  1.5961
14286TIP3   OH264272   4.085   6.717  11.898 -0.5594 -0.4160 -0.0039
14286TIP3    H164273   4.083   6.628  11.933 -1.8100 -0.5612 -0.3955
14286TIP3    H264274   4.018   6.764  11.949  0.2462  0.3697  0.3587
14287TIP3   OH264275   1.716   1.071  15.515  0.4756  0.2566 -0.3978
14287TIP3    H164276   1.778   0.999  15.526  0.3440  0.1054 -0.6106
14287TIP3    H264277   1.761   1.148  15.550 -0.0260 -0.2264  1.4062
14288TIP3   OH264278   3.361   0.956  16.927  0.0969 -0.5819 -0.1820
14288TIP3    H164279   3.370   0.894  17.000 -0.4539  0.1365  0.5175
14288TIP3    H264280   3.377   0.903  16.849  0.3201 -1.4572  0.4341
14289TIP3   OH264281   2.493   4.258   0.451 -0.5400  0.4702  0.0489
14289TIP3    H164282   2.486   4.222   0.363 -2.3040 -0.8923  0.6905
14289TIP3    H264283   2.531   4.187   0.503 -0.6770  0.8258  0.6396
14290TIP3   OH264284   1.308   4.705  10.387 -0.2981 -0.6883  0.3603
14290TIP3    H164285   1.214   4.717  10.402 -0.2926  0.2707 -0.2546
14290TIP3    H264286   1.319   4.611  10.377 -1.1619 -0.8307  0.6414
14291TIP3   OH264287   3.096   5.848   4.480 -0.6962  0.4493 -0.3056
14291TIP3    H164288   3.080   5.846   4.574  0.7895 -1.0672 -0.0459
14291TIP3    H264289   3.149   5.927   4.466 -0.2369  0.2444  0.2545
14292TIP3   OH264290   2.202   5.823  16.575 -0.1632 -0.3551 -0.3987
14292TIP3    H164291   2.233   5.845  16.487  1.3717  0.5305  0.3287
14292TIP3    H264292   2.224   5.899  16.628 -3.3541  0.2315  0.2905
14293TIP3   OH264293   1.496   3.929  17.053  0.0075  0.1253  0.3827
14293TIP3    H164294   1.537   3.968  16.976 -0.1275 -0.6424 -0.0825
14293TIP3    H264295   1.495   3.835  17.035  2.3913 -0.4129  2.4240
14294TIP3   OH264296   3.648   3.886  15.578 -0.4765 -0.2212  0.2128
14294TIP3    H164297   3.654   3.791  15.563 -0.3405 -0.0972 -0.5612
14294TIP3    H264298   3.730   3.908  15.623  0.3329 -0.2047 -1.1832
14295TIP3   OH264299   5.291   6.169   2.246 -0.3704 -0.2362 -0.2480
14295TIP3    H164300   5.326   6.233   2.307  0.4932 -0.8115 -0.1289
14295TIP3    H264301   5.209   6.208   2.215  0.6514  1.4123 -1.0055
14296TIP3   OH264302   2.205   1.471  12.004  0.5726 -0.5906 -0.1804
14296TIP3    H164303   2.214   1.537  12.074  2.4382  0.1441 -1.0473
14296TIP3    H264304   2.294   1.457  11.973 -0.1843 -1.0318 -2.2971
14297TIP3   OH264305   2.508   3.775  14.779  0.1414 -0.2790  0.1471
14297TIP3    H164306   2.602   3.789  14.783 -0.2338  2.3993  2.1869
14297TIP3    H264307   2.495   3.688  14.818  1.6500  0.1097  1.6205
14298TIP3   OH264308   2.112   1.839   6.548 -0.2712  0.0832 -0.5642
14298TIP3    H164309   2.162   1.900   6.494 -0.2130 -0.6498 -1.3569
14298TIP3    H264310   2.171   1.815   6.619  0.3031 -0.3065 -1.1622
14299TIP3   OH264311   1.579   2.816  11.731 -0.3196 -0.2860 -0.0719
14299TIP3    H164312   1.560   2.722  11.735  1.1613 -0.6605 -0.9809
14299TIP3    H264313   1.674   2.822  11.745 -0.4754  1.1413  0.5733
14300TIP3   OH264314   5.178   3.926   0.369  0.0099 -0.4962 -0.2314
14300TIP3    H164315   5.103   3.867   0.365 -1.0717  0.8374 -0.1891
14300TIP3    H264316   5.240   3.890   0.304 -1.4992 -0.5190 -1.7275
14301TIP3   OH264317   3.510   2.248  13.584 -0.3274  0.0839 -0.4179
14301TIP3    H164318   3.425   2.207  13.566 -0.6547  0.3738  0.4515
14301TIP3    H264319   3.505   2.333  13.541  0.0995 -0.4918 -1.6496
14302TIP3   OH264320   5.799   4.604  13.659  0.4519  0.6910  0.2412
14302TIP3    H164321   5.802   4.691  13.697 -0.2316  1.0136 -0.4226
14302TIP3    H264322   5.822   4.618  13.567 -1.7143  0.4778 -0.3688
14303TIP3   OH264323   1.419   4.146  14.249 -0.0630 -0.6817  0.1929
14303TIP3    H164324   1.402   4.064  14.296 -1.9231 -0.8617 -0.7057
14303TIP3    H264325   1.473   4.121  14.175 -0.4635 -1.0866  0.0305
14304TIP3   OH264326   2.336   2.571  12.314  0.0896 -0.0218 -0.3529
14304TIP3    H164327   2.405   2.544  12.253  0.5528 -0.2905  0.2832
14304TIP3    H264328   2.258   2.524  12.283  0.1507  0.3835 -1.1521
14305TIP3   OH264329   0.288   2.915   4.522 -0.0558  0.4216  0.2986
14305TIP3    H164330   0.333   2.947   4.443  0.9614  0.3867  0.8431
14305TIP3    H264331   0.356   2.917   4.590 -0.1171 -2.1869  0.5343
14306TIP3   OH264332   4.632   2.366   2.900  0.0704  0.4493  0.0424
14306TIP3    H164333   4.608   2.291   2.953  0.5278 -0.0234 -0.4090
14306TIP3    H264334   4.623   2.441   2.960  0.2148 -0.0282  0.6764
14307TIP3   OH264335   2.610   4.625   5.376  0.4412  0.4094 -0.2564
14307TIP3    H164336   2.610   4.553   5.438  1.4710  1.0268  0.4815
14307TIP3    H264337   2.519   4.655   5.375 -0.2043 -1.4089 -1.2295
14308TIP3   OH264338   0.438   1.110   1.737  0.6619  0.0870 -0.1712
14308TIP3    H164339   0.511   1.146   1.686 -0.3933  0.6467 -1.3565
14308TIP3    H264340   0.371   1.179   1.734 -0.7981 -1.3104 -1.1152
14309TIP3   OH264341   4.780   0.657   5.378 -0.3309  0.5347  0.1092
14309TIP3    H164342   4.715   0.592   5.404 -0.1249  0.0479 -0.5722
14309TIP3    H264343   4.742   0.699   5.301  1.0898 -1.2988 -1.6948
14310TIP3   OH264344   2.032   4.569  12.636 -0.1764  0.2435  0.2410
14310TIP3    H164345   1.964   4.503  12.622  0.8335 -0.3829 -2.2746
14310TIP3    H264346   2.024   4.592  12.729 -3.9017  0.3878  0.0363
14311TIP3   OH264347   1.996   1.110  14.455 -0.2078 -0.3444  0.2455
14311TIP3    H164348   1.978   1.163  14.533 -0.2293  1.6295 -1.0244
14311TIP3    H264349   2.087   1.082  14.466  0.2757  1.1471  0.3541
14312TIP3   OH264350   3.580   3.228  14.024  0.7047 -0.6911 -0.0421
14312TIP3    H164351   3.611   3.154  13.972 -0.9600 -1.8094  0.4794
14312TIP3    H264352   3.492   3.203  14.051  1.4512 -0.1953  3.3042
14313TIP3   OH264353   2.109   3.794  11.959  0.0178  0.6188  0.2052
14313TIP3    H164354   2.033   3.742  11.932  0.6551 -0.1531 -0.1815
14313TIP3    H264355   2.132   3.760  12.045  0.8092 -0.2127 -0.3064
14314TIP3   OH264356   6.416   5.994   4.823 -0.1182 -0.2450 -0.3397
14314TIP3    H164357   6.422   6.089   4.831 -0.8462 -0.3119  1.2088
14314TIP3    H264358   6.324   5.977   4.804  0.0516 -0.6345 -0.8361
14315TIP3   OH264359   4.950   2.267   5.879  0.2912 -0.5164  0.4688
14315TIP3    H164360   4.915   2.234   5.962 -0.1830  1.4157  1.0836
14315TIP3    H264361   4.877   2.316   5.840  0.3999 -1.6506 -1.2888
14316TIP3   OH264362   0.627   6.278   3.102 -0.1926 -0.3675  0.3267
14316TIP3    H164363   0.595   6.349   3.157 -1.0171 -1.1625  0.8994
14316TIP3    H264364   0.720   6.297   3.089 -0.6085  1.3311 -0.3408
14317TIP3   OH264365   5.399   1.675   0.808  0.0161 -0.0312  0.0227
14317TIP3    H164366   5.336   1.604   0.820 -0.3467 -0.0241 -1.6738
14317TIP3    H264367   5.408   1.713   0.896 -0.9223 -1.2041  0.6615
14318TIP3   OH264368   6.314   3.982  16.054  0.3092 -0.1500  0.6745
14318TIP3    H164369   6.410   3.979  16.053  0.3844 -0.6441  3.1400
14318TIP3    H264370   6.293   4.073  16.031  1.2702 -0.3446 -1.1574
14319TIP3   OH264371   0.200   4.400   5.771 -0.3626  0.7099  0.0907
14319TIP3    H164372   0.184   4.482   5.817 -1.2303  0.2964  0.5551
14319TIP3    H264373   0.113   4.362   5.759 -0.1197  0.6386 -1.6008
14320TIP3   OH264374   3.147   6.470   2.439 -0.0723 -0.2697  0.2867
14320TIP3    H164375   3.162   6.511   2.524  0.8127  0.1445 -0.0648
14320TIP3    H264376   3.054   6.446   2.440  0.0071 -0.5960  1.5089
14321TIP3   OH264377   2.684   4.207  14.860 -0.7851 -0.4923  0.3178
14321TIP3    H164378   2.638   4.220  14.777  0.1269 -0.3624 -0.1822
14321TIP3    H264379   2.650   4.276  14.917  0.1483  0.8233 -0.6464
14322TIP3   OH264380   5.636   1.773  15.243 -0.4379 -0.0391 -0.3729
14322TIP3    H164381   5.626   1.736  15.331 -0.0826  0.3000 -0.1873
14322TIP3    H264382   5.721   1.818  15.245  0.7684 -2.0752 -1.6119
14323TIP3   OH264383   0.576   0.743   4.792 -0.3419  0.1415  0.2716
14323TIP3    H164384   0.611   0.745   4.881 -0.9613 -1.8902  0.5973
14323TIP3    H264385   0.643   0.698   4.740  0.0047  1.2884 -0.3085
14324TIP3   OH264386   4.780   0.378  12.513 -0.6982 -0.6718  0.2327
14324TIP3    H164387   4.833   0.439  12.563  1.6704 -1.6004 -0.9873
14324TIP3    H264388   4.728   0.434  12.455 -1.1822  0.2759  1.5392
14325TIP3   OH264389   2.700   0.719  15.192  0.1160 -0.5745  0.1224
14325TIP3    H164390   2.704   0.630  15.159 -0.4356 -0.6046  0.1268
14325TIP3    H264391   2.792   0.747  15.198  0.2473 -0.4799 -1.6951
14326TIP3   OH264392   2.336   0.882  10.508  0.5824  0.2117  0.2232
14326TIP3    H164393   2.242   0.894  10.522  0.6546  0.0613  0.8647
14326TIP3    H264394   2.354   0.794  10.539  1.0812  0.5381  0.8976
14327TIP3   OH264395   1.543   3.355   0.404 -0.1014 -0.2948  0.3015
14327TIP3    H164396   1.572   3.433   0.451 -0.9124 -0.3459  0.9115
14327TIP3    H264397   1.514   3.295   0.473 -2.9748  0.2897 -0.2480
14328TIP3   OH264398   5.278   4.232   2.259  0.1740  0.0490  0.0784
14328TIP3    H164399   5.335   4.175   2.310 -2.8044 -2.2434  1.1509
14328TIP3    H264400   5.244   4.295   2.323 -0.1869 -0.0054 -0.0583
14329TIP3   OH264401   4.174   4.734   1.368  0.1648  0.2068 -0.3368
14329TIP3    H164402   4.243   4.709   1.430 -0.6433  1.4035  1.1181
14329TIP3    H264403   4.212   4.719   1.282  1.5659 -0.9098  0.4369
14330TIP3   OH264404   0.320   0.521   1.802 -0.2055  0.4823 -0.7606
14330TIP3    H164405   0.361   0.604   1.782 -2.0733  1.4200 -0.9300
14330TIP3    H264406   0.227   0.541   1.812 -0.4086 -1.1139  1.8432
14331TIP3   OH264407   0.261   1.019  14.797  0.3417 -0.3690 -0.0612
14331TIP3    H164408   0.264   0.998  14.890  0.2103  1.2187  0.3300
14331TIP3    H264409   0.168   1.014  14.774  0.4944 -2.0219 -0.4492
14332TIP3   OH264410   2.326   1.407   0.070  0.4652  0.2952  0.6353
14332TIP3    H164411   2.244   1.440   0.033 -0.2331 -1.0047  0.9622
14332TIP3    H264412   2.381   1.485   0.080 -0.1307  0.9872 -1.0666
14333TIP3   OH264413   1.447   1.395  11.712 -0.8100  0.4858  0.0391
14333TIP3    H164414   1.493   1.377  11.630  2.8790  0.6877  1.8539
14333TIP3    H264415   1.491   1.472  11.747 -2.1116  0.2522  2.3289
14334TIP3   OH264416   1.520   0.324   4.435 -0.2567 -0.0607 -0.5550
14334TIP3    H164417   1.496   0.413   4.410 -0.9063  0.0337  0.3662
14334TIP3    H264418   1.546   0.331   4.527 -0.9944 -0.9284 -0.2606
14335TIP3   OH264419   0.811   5.404   4.930  0.2468  0.1460 -0.2766
14335TIP3    H164420   0.781   5.370   5.015 -1.7036  0.0019 -0.9634
14335TIP3    H264421   0.857   5.331   4.890  0.0225 -0.2194  0.1211
14336TIP3   OH264422   3.170   2.141  12.345 -0.5982 -0.3361 -0.3167
14336TIP3    H164423   3.242   2.185  12.391 -0.2950 -0.4832 -0.6451
14336TIP3    H264424   3.129   2.087  12.412  0.8027 -1.7640 -0.5289
14337TIP3   OH264425   0.164   3.449   3.983 -0.3582  0.2063  0.3214
14337TIP3    H164426   0.092   3.386   3.973 -0.0553 -0.1579  0.4285
14337TIP3    H264427   0.130   3.530   3.944 -1.2266  0.3412  1.3098
14338TIP3   OH264428   6.531   3.557  15.619  0.3177 -0.1954 -0.2359
14338TIP3    H164429   6.559   3.579  15.530  0.2125  2.5444  0.3308
14338TIP3    H264430   6.608   3.515  15.658  1.0273  0.3423 -1.0298
14339TIP3   OH264431   1.904   2.671  16.456  0.7623  0.2027  0.2331
14339TIP3    H164432   1.838   2.616  16.416  1.8430  0.5417 -2.1608
14339TIP3    H264433   1.874   2.760  16.441  0.7588  0.3287  0.9590
14340TIP3   OH264434   6.113   4.270  13.806 -0.6234  0.2167  0.5182
14340TIP3    H164435   6.162   4.224  13.738  1.0651  1.0129  1.1498
14340TIP3    H264436   6.164   4.258  13.886 -1.7886  0.5587  1.3406
14341TIP3   OH264437   5.375   5.113   2.720 -0.1329 -0.7323  0.2696
14341TIP3    H164438   5.409   5.164   2.793  0.9134 -2.3560  0.9847
14341TIP3    H264439   5.341   5.033   2.760 -2.0576 -0.4846 -0.7620
14342TIP3   OH264440   0.505   1.458  11.535  0.2889 -0.2036 -0.3149
14342TIP3    H164441   0.431   1.430  11.481 -1.2959  1.1287  1.0863
14342TIP3    H264442   0.542   1.533  11.488 -1.0438  0.9088  0.3460
14343TIP3   OH264443   0.832   1.598   3.335 -0.5320 -0.6591  0.0785
14343TIP3    H164444   0.908   1.656   3.329 -0.0581 -1.1356  1.1214
14343TIP3    H264445   0.757   1.657   3.342 -0.0184 -0.1322  1.6251
14344TIP3   OH264446   1.507   5.924   2.810 -0.0045 -0.5221  0.8204
14344TIP3    H164447   1.510   5.958   2.721  0.2516 -0.0305  1.0096
14344TIP3    H264448   1.498   5.830   2.800  5.0021 -1.2192  0.1292
14345TIP3   OH264449   4.101   6.663   5.778 -0.1062  0.1289  0.2255
14345TIP3    H164450   4.062   6.745   5.746 -1.2678 -1.1198 -1.7327
14345TIP3    H264451   4.047   6.639   5.854  0.2292  1.1356  0.8040
14346TIP3   OH264452   1.616   4.022  13.305 -0.3620  0.0686 -0.3837
14346TIP3    H164453   1.614   4.114  13.334  1.2933 -0.3489  1.2079
14346TIP3    H264454   1.545   3.981  13.355 -0.9631  0.4008 -0.9360
14347TIP3   OH264455   0.213   5.830   3.874  0.5843  0.2540 -0.1728
14347TIP3    H164456   0.269   5.757   3.899 -0.3793 -0.2987  0.3949
14347TIP3    H264457   0.156   5.795   3.806  0.9165  0.8257 -0.7717
14348TIP3   OH264458   4.137   3.496   1.357  0.1529  0.5518  0.0191
14348TIP3    H164459   4.093   3.566   1.308 -0.2122 -0.1577 -0.6960
14348TIP3    H264460   4.228   3.526   1.367 -0.5332  2.2195  1.8651
14349TIP3   OH264461   3.176   6.334  10.563 -0.2306  0.0739  0.2979
14349TIP3    H164462   3.161   6.413  10.616 -1.3964  0.4027 -0.4603
14349TIP3    H264463   3.247   6.288  10.607  0.1116  1.2870  1.0601
14350TIP3   OH264464   6.606   3.915   1.540  0.3702 -0.3138  0.3658
14350TIP3    H164465   6.665   3.843   1.563  0.0999  0.0178  2.2858
14350TIP3    H264466   6.521   3.874   1.529  0.2848 -0.3647  1.1219
14351TIP3   OH264467   6.034   1.677   3.282  0.7262 -0.0435 -0.0931
14351TIP3    H164468   6.058   1.596   3.237  2.1435  1.0392 -1.3719
14351TIP3    H264469   5.939   1.685   3.269  0.8097 -0.7426 -1.2359
14352TIP3   OH264470   2.268   6.567   5.594 -0.0755  0.1892 -0.0104
14352TIP3    H164471   2.199   6.581   5.658  0.3665  2.4141  0.0617
14352TIP3    H264472   2.231   6.596   5.511 -0.7266 -2.8917 -0.9052
14353TIP3   OH264473   0.057   0.491  16.761 -0.3254  0.1442  0.0394
14353TIP3    H164474  -0.007   0.424  16.787  1.1739 -0.9480  1.0463
14353TIP3    H264475   0.079   0.469  16.671 -0.5504 -0.1175  0.0457
14354TIP3   OH264476   1.642   5.398   2.474 -0.3882 -0.3097  0.4284
14354TIP3    H164477   1.707   5.452   2.519 -0.1401 -1.5250  1.5999
14354TIP3    H264478   1.689   5.318   2.451 -1.1852 -0.7598  0.3208
14355TIP3   OH264479   5.148   1.450  16.272 -0.1027  0.5242 -0.4668
14355TIP3    H164480   5.132   1.515  16.340  1.2231  0.1631  0.2254
14355TIP3    H264481   5.244   1.449  16.262 -0.1544 -0.7833 -0.9852
14356TIP3   OH264482   0.010   2.271  15.901  0.1061  0.0425 -0.0797
14356TIP3    H164483   0.055   2.337  15.954 -0.7719  0.5972  0.0009
14356TIP3    H264484   0.066   2.260  15.824  2.4382 -2.1932  1.7524
14357TIP3   OH264485   5.019   4.586  14.687  0.1026 -0.1216  0.2430
14357TIP3    H164486   4.994   4.591  14.779  1.6326 -0.4522  0.6899
14357TIP3    H264487   4.945   4.625  14.640  0.0832  1.7014  1.7114
14358TIP3   OH264488   2.601   2.712   4.533 -0.5207 -0.5390 -0.2784
14358TIP3    H164489   2.588   2.617   4.540  1.0971 -0.6962  1.2184
14358TIP3    H264490   2.515   2.746   4.507 -1.5710 -2.2523  0.7670
14359TIP3   OH264491   5.170   3.266   3.488  0.5728 -0.2409  0.2782
14359TIP3    H164492   5.261   3.238   3.481 -0.1351 -2.5775 -0.4784
14359TIP3    H264493   5.140   3.229   3.571  0.7601  2.0490  1.4201
14360TIP3   OH264494   2.975   2.045   6.353  0.3760 -0.6603  0.1206
14360TIP3    H164495   3.002   2.137   6.352 -0.2821 -0.4717 -1.0152
14360TIP3    H264496   2.900   2.043   6.412 -0.6908 -0.1303 -1.1655
14361TIP3   OH264497   0.665   6.288  14.936  0.2584  0.2276  0.0087
14361TIP3    H164498   0.691   6.377  14.911  1.5480 -0.1248  0.0252
14361TIP3    H264499   0.740   6.254  14.985 -0.1564 -0.9319 -0.1306
14362TIP3   OH264500   2.402   3.236   6.101  0.1838  0.4053 -0.0618
14362TIP3    H164501   2.489   3.272   6.117  0.4388  1.1131 -2.5838
14362TIP3    H264502   2.349   3.267   6.175  1.6383  1.5390  0.5499
14363TIP3   OH264503   3.425   2.876   0.287  0.2160  0.3271 -0.2649
14363TIP3    H164504   3.466   2.945   0.340  0.8866 -1.3585  1.5581
14363TIP3    H264505   3.334   2.903   0.279  0.1021  0.7233  1.7423
14364TIP3   OH264506   1.512   3.615   1.859 -0.4158  0.1450  0.8375
14364TIP3    H164507   1.577   3.552   1.827  0.1092  1.7447 -1.4719
14364TIP3    H264508   1.440   3.611   1.796 -1.5938 -0.0090  2.1423
14365TIP3   OH264509   5.046   2.773  12.936  0.5864  0.0820 -0.1315
14365TIP3    H164510   4.988   2.719  12.989 -0.1544 -1.5232 -2.4194
14365TIP3    H264511   4.993   2.799  12.861  2.7092 -1.5065 -2.3685
14366TIP3   OH264512   4.517   5.947   5.407 -0.1565  0.1725 -0.1228
14366TIP3    H164513   4.590   5.887   5.392 -0.1718 -0.4290  1.8874
14366TIP3    H264514   4.466   5.907   5.477 -0.4549  2.2499  0.9437
14367TIP3   OH264515   5.612   1.918   1.127  0.0036 -0.2964  0.0187
14367TIP3    H164516   5.699   1.907   1.166  0.9464  0.7066 -1.6893
14367TIP3    H264517   5.611   2.008   1.096 -1.2817 -0.5962 -0.8709
14368TIP3   OH264518   3.230   2.741  16.321 -0.3273 -0.3393  0.1513
14368TIP3    H164519   3.254   2.648  16.312  0.7754 -0.0141 -0.3965
14368TIP3    H264520   3.260   2.765  16.408  0.2879 -0.2501 -0.0794
14369TIP3   OH264521   2.858   1.860   5.545  0.7254 -0.7705 -0.1157
14369TIP3    H164522   2.915   1.794   5.505  1.7625 -0.2694  0.4750
14369TIP3    H264523   2.886   1.942   5.506 -0.5273 -0.6626 -0.8106
14370TIP3   OH264524   6.044   0.416  11.805 -0.1387  0.3486 -0.2079
14370TIP3    H164525   6.082   0.399  11.891 -1.3815 -0.2099  0.2468
14370TIP3    H264526   6.117   0.402  11.744  0.1435 -1.8845  0.5293
14371TIP3   OH264527   1.716   5.888  15.103 -0.5506 -0.0112  0.0336
14371TIP3    H164528   1.789   5.942  15.133 -1.1584 -0.6495  2.9485
14371TIP3    H264529   1.758   5.817  15.054  0.5848  0.7746 -0.1761
14372TIP3   OH264530   6.039   0.355  15.125  0.0508  0.7508 -0.3258
14372TIP3    H164531   6.045   0.331  15.217 -1.3945  0.7728 -0.1973
14372TIP3    H264532   6.128   0.382  15.101  0.4722  0.6331  1.0201
14373TIP3   OH264533   2.505   3.721   6.136  0.0055  0.0228 -0.0527
14373TIP3    H164534   2.582   3.730   6.080 -0.1683  0.3038 -0.2530
14373TIP3    H264535   2.540   3.712   6.224  0.2667  0.2246 -0.1342
14374TIP3   OH264536   3.464   4.596  11.457  0.3137  0.5644  0.5090
14374TIP3    H164537   3.466   4.676  11.510  1.1380 -0.2227  1.7461
14374TIP3    H264538   3.428   4.623  11.373 -1.0879  1.8809  1.4731
14375TIP3   OH264539   5.723   2.962  11.370 -0.3903 -0.4464 -0.0233
14375TIP3    H164540   5.753   3.028  11.308 -0.6526 -1.1215 -0.8899
14375TIP3    H264541   5.730   2.879  11.322  0.6471 -1.1459  1.2903
14376TIP3   OH264542   2.755   2.960   3.129  0.2547  0.2361  0.2561
14376TIP3    H164543   2.846   2.989   3.133  0.9496 -1.7173 -0.6101
14376TIP3    H264544   2.721   2.998   3.047  0.0377  1.5638  0.9372
14377TIP3   OH264545   2.374   3.829   2.045 -0.6849 -0.3847 -0.1619
14377TIP3    H164546   2.332   3.830   2.132  1.2632 -0.3190  0.8235
14377TIP3    H264547   2.452   3.774   2.057 -0.3184 -0.2705 -1.8580
14378TIP3   OH264548   2.682   0.710  16.128 -0.0721 -0.0484  0.3025
14378TIP3    H164549   2.617   0.741  16.191  1.2241 -0.5620  1.9787
14378TIP3    H264550   2.636   0.709  16.044 -1.9469  0.4358  1.2685
14379TIP3   OH264551   2.653   6.243  12.872  0.2208  0.0629  0.5674
14379TIP3    H164552   2.669   6.151  12.892  1.4421 -0.1573 -1.1384
14379TIP3    H264553   2.670   6.250  12.778  0.4586  2.0942  0.7175
14380TIP3   OH264554   2.533   0.778  14.125  0.6776  0.6431  0.4867
14380TIP3    H164555   2.583   0.854  14.097 -0.2364  1.1295  0.1291
14380TIP3    H264556   2.447   0.812  14.147  0.2961 -0.2668  0.4686
14381TIP3   OH264557   6.590   1.250  14.108  0.2087 -0.1652 -0.2730
14381TIP3    H164558   6.655   1.252  14.038 -0.3143  0.8301 -0.7524
14381TIP3    H264559   6.583   1.341  14.136 -0.5813 -0.3487  0.1384
14382TIP3   OH264560   0.482   4.074  13.773 -0.1983  0.1979  0.4893
14382TIP3    H164561   0.522   4.160  13.766 -0.4940  0.3283  0.3894
14382TIP3    H264562   0.516   4.025  13.698  1.1889 -0.2791  1.3963
14383TIP3   OH264563   6.454   4.315   4.307 -0.3111 -0.4167  0.3736
14383TIP3    H164564   6.418   4.291   4.222  1.0287 -1.2140  0.0045
14383TIP3    H264565   6.470   4.409   4.301 -0.4769 -0.4209 -0.1531
14384TIP3   OH264566   2.560   0.186  14.302 -0.1479 -0.0261 -0.3050
14384TIP3    H164567   2.499   0.241  14.254 -1.8816 -0.1234  1.6680
14384TIP3    H264568   2.589   0.240  14.376 -0.1887 -0.9830  0.4399
14385TIP3   OH264569   5.054   1.967   4.173 -0.0604 -0.0055  0.0517
14385TIP3    H164570   4.966   1.965   4.211 -0.5086  2.4421 -0.6824
14385TIP3    H264571   5.102   1.898   4.219 -2.0219 -0.6098  1.3067
14386TIP3   OH264572   4.928   1.293  16.339  0.0320  0.4945  0.3160
14386TIP3    H164573   5.003   1.345  16.370 -0.3803  1.6992 -0.6035
14386TIP3    H264574   4.964   1.238  16.270  0.2417  0.4315  0.4741
14387TIP3   OH264575   3.733   3.494  15.826  0.0205  0.1563 -0.1937
14387TIP3    H164576   3.758   3.406  15.800 -0.0217  0.7780 -2.5383
14387TIP3    H264577   3.641   3.501  15.801 -0.8726 -0.0246  2.6310
14388TIP3   OH264578   2.612   0.039   3.137  0.6364 -0.4683  0.7641
14388TIP3    H164579   2.700   0.015   3.165  0.4872  0.6628  2.3888
14388TIP3    H264580   2.617   0.043   3.042  1.9421 -1.8194  0.7389
14389TIP3   OH264581   6.182   6.782  11.756  0.2518 -0.6019 -0.3004
14389TIP3    H164582   6.218   6.810  11.840 -0.1561 -0.7841 -0.0609
14389TIP3    H264583   6.145   6.861  11.718  2.2334 -0.0852 -1.2489
14390TIP3   OH264584   2.644   4.434  10.958 -0.6577 -0.2786  0.1099
14390TIP3    H164585   2.607   4.511  11.001 -1.1986 -0.8177  0.6251
14390TIP3    H264586   2.641   4.456  10.864  1.0881  1.1490  0.3261
14391TIP3   OH264587   2.146   5.161  14.811 -0.4332  0.1641 -0.1739
14391TIP3    H164588   2.210   5.193  14.748 -0.0411 -0.2354  0.0192
14391TIP3    H264589   2.095   5.096  14.764 -1.9732  1.8127 -0.9180
14392TIP3   OH264590   2.336   1.504   1.601  0.0219  0.1658 -0.0754
14392TIP3    H164591   2.335   1.512   1.696 -0.7092 -0.2128 -0.0446
14392TIP3    H264592   2.244   1.497   1.576  0.2128  0.1471 -0.7998
14393TIP3   OH264593   4.379   1.320  11.593 -0.5965 -0.3726  0.8509
14393TIP3    H164594   4.395   1.382  11.663  2.2492 -1.0003  0.8994
14393TIP3    H264595   4.386   1.372  11.512 -1.4440 -0.0799  0.9623
14394TIP3   OH264596   3.626   6.309   1.604 -0.1966  0.3660  0.4736
14394TIP3    H164597   3.722   6.306   1.607 -0.2216  0.0107  1.7816
14394TIP3    H264598   3.606   6.382   1.546  0.8590  0.0445 -0.3239
14395TIP3   OH264599   4.406   5.651   1.965  0.3028  0.1033  0.3221
14395TIP3    H164600   4.336   5.588   1.948  1.4319 -1.3369  0.7820
14395TIP3    H264601   4.370   5.711   2.030 -0.2040 -1.1756  1.2540
14396TIP3   OH264602   0.232   0.899  11.827  0.3370  0.2025 -0.5293
14396TIP3    H164603   0.166   0.960  11.860  0.3477 -0.1987  0.2445
14396TIP3    H264604   0.304   0.905  11.889  1.4781  1.3472 -1.8788
14397TIP3   OH264605   4.827   4.782   3.589 -0.3209  0.2491  0.1284
14397TIP3    H164606   4.795   4.772   3.679  0.0398  0.0910  0.2419
14397TIP3    H264607   4.846   4.693   3.560  1.1744  0.4116  0.4993
14398TIP3   OH264608   0.557   6.069  15.807  0.0210  0.0029  0.1123
14398TIP3    H164609   0.652   6.072  15.822  0.0204 -0.2752  0.1744
14398TIP3    H264610   0.522   6.028  15.886 -0.2959  1.3691  0.7099
14399TIP3   OH264611   5.776   0.667   3.783  0.1908  0.0953  0.3721
14399TIP3    H164612   5.697   0.718   3.768  0.7455  0.7078 -0.6713
14399TIP3    H264613   5.834   0.726   3.832  0.4810  0.1383 -0.0140
14400TIP3   OH264614   4.420   1.839  15.282  0.3868  0.7127 -0.2538
14400TIP3    H164615   4.335   1.833  15.325  0.2159  2.9273 -0.1686
14400TIP3    H264616   4.427   1.759  15.230 -1.5666  0.2988  0.0681
14401TIP3   OH264617   0.649   6.061  13.742 -0.0875  0.2624 -0.3585
14401TIP3    H164618   0.581   6.129  13.734 -0.4168 -0.1497 -1.2014
14401TIP3    H264619   0.628   5.998  13.673  1.4013  0.3314 -0.9077
14402TIP3   OH264620   3.794   1.570  11.319 -0.9694 -0.0427 -0.4516
14402TIP3    H164621   3.729   1.530  11.261 -0.4779 -1.7791  0.1400
14402TIP3    H264622   3.742   1.617  11.384 -1.6784 -1.4793  0.0601
14403TIP3   OH264623   1.631   5.986  16.785 -0.3725 -0.3202 -0.2516
14403TIP3    H164624   1.585   6.070  16.784 -0.4604 -0.3494  0.7765
14403TIP3    H264625   1.673   5.982  16.871  1.7970 -0.1824 -1.2497
14404TIP3   OH264626   5.098   0.595   0.515  0.1461  0.5561 -0.2649
14404TIP3    H164627   5.042   0.517   0.514  0.1550  0.5463 -0.0994
14404TIP3    H264628   5.040   0.665   0.545  0.2234  0.5450 -0.0874
14405TIP3   OH264629   1.074   4.914  17.024 -0.1296  0.9563  0.3133
14405TIP3    H164630   1.093   4.833  17.071 -0.4225 -0.5794 -2.0228
14405TIP3    H264631   1.154   4.965  17.030  1.6894 -1.4121 -1.6943
14406TIP3   OH264632   5.691   3.290   2.122 -0.0803 -0.2948 -0.1104
14406TIP3    H164633   5.686   3.276   2.027  3.4170  3.2413 -1.1354
14406TIP3    H264634   5.644   3.372   2.136 -0.6539 -0.8391  1.2827
14407TIP3   OH264635   0.275   1.142  14.390  0.2152 -0.5076  0.1820
14407TIP3    H164636   0.183   1.154  14.416  0.1985 -0.7924  0.2632
14407TIP3    H264637   0.311   1.231  14.387 -0.0260 -0.4041  0.2881
14408TIP3   OH264638   1.092   6.153  15.934 -0.3113  0.4542  0.1287
14408TIP3    H164639   1.125   6.229  15.980 -0.2106  1.1610 -1.0662
14408TIP3    H264640   1.038   6.189  15.863 -0.3051 -0.5808 -0.4293
14409TIP3   OH264641   3.636   4.114   2.077  0.8722 -0.1671  0.1105
14409TIP3    H164642   3.578   4.046   2.113  0.7910  0.6529  1.6277
14409TIP3    H264643   3.724   4.080   2.094  0.8778  0.8915  2.6874
14410TIP3   OH264644   0.985   4.871  15.286  0.2052 -0.0900 -0.7177
14410TIP3    H164645   1.062   4.868  15.342 -0.6827 -0.1262  0.5627
14410TIP3    H264646   0.980   4.783  15.248 -0.1657 -0.6679  0.5908
14411TIP3   OH264647   2.042   0.387  15.344 -0.1136 -0.0352  0.6524
14411TIP3    H164648   2.044   0.464  15.400 -0.8342  2.0585 -2.0205
14411TIP3    H264649   2.097   0.323  15.390  0.4148  1.9688  3.0369
14412TIP3   OH264650   6.604   4.051   5.852  0.0556 -0.3260  0.3757
14412TIP3    H164651   6.548   4.070   5.777  0.0696  0.5930  0.5897
14412TIP3    H264652   6.556   4.086   5.927  0.4149 -0.5077  0.6895
14413TIP3   OH264653   5.439   4.470   5.733 -0.1603  0.2330 -0.3137
14413TIP3    H164654   5.462   4.531   5.663 -0.2379  0.2179 -0.3516
14413TIP3    H264655   5.499   4.396   5.721 -1.4609 -0.6618 -1.5595
14414TIP3   OH264656   4.758   3.177  11.632 -0.6421 -0.6805  0.5814
14414TIP3    H164657   4.738   3.129  11.713 -0.3661 -0.9002  0.5205
14414TIP3    H264658   4.758   3.269  11.659  0.3684 -0.8026  1.0320
14415TIP3   OH264659   0.146   5.220  13.041  0.5006  0.0177  0.4986
14415TIP3    H164660   0.209   5.223  12.969 -0.8399  1.7738 -0.6871
14415TIP3    H264661   0.200   5.218  13.120  2.0550  0.8295 -0.4881
14416TIP3   OH264662   4.467   2.765  16.183  0.0231 -0.8218 -0.2818
14416TIP3    H164663   4.531   2.705  16.223  1.2372 -0.2762 -1.3568
14416TIP3    H264664   4.512   2.800  16.106 -0.9946  0.7863 -0.1776
14417TIP3   OH264665   6.624   5.465   1.843 -0.1142  0.4446 -1.0091
14417TIP3    H164666   6.713   5.463   1.877 -1.1443 -0.9199  2.0610
14417TIP3    H264667   6.596   5.556   1.851  0.5703  0.6320 -0.7198
14418TIP3   OH264668   4.156   3.220  17.176  0.5361  0.0883 -0.5176
14418TIP3    H164669   4.074   3.211  17.128 -0.2642  1.3974  0.5327
14418TIP3    H264670   4.224   3.203  17.110 -0.5498 -1.9828 -1.1699
14419TIP3   OH264671   3.065   2.647  14.233  0.1014 -0.5362  0.6538
14419TIP3    H164672   3.124   2.686  14.297  0.0382 -0.4824  0.6794
14419TIP3    H264673   3.004   2.594  14.285  0.7828 -1.4596  0.5492
14420TIP3   OH264674   3.149   5.732   6.266  0.4617  0.2866  0.2790
14420TIP3    H164675   3.073   5.778   6.302  0.7261  2.0048 -1.2531
14420TIP3    H264676   3.224   5.771   6.312  0.4930 -1.1222  1.4956
14421TIP3   OH264677   4.764   6.597   5.436 -0.3723 -0.3937  0.2527
14421TIP3    H164678   4.821   6.557   5.502 -1.1659 -0.6341  0.8156
14421TIP3    H264679   4.680   6.607   5.481 -0.9696 -0.6956 -0.7733
14422TIP3   OH264680   5.530   6.279  11.493  0.0635 -0.7698 -0.1089
14422TIP3    H164681   5.618   6.301  11.523 -0.1732 -0.0903  0.1051
14422TIP3    H264682   5.483   6.362  11.493 -1.0103 -1.3238  1.2007
14423TIP3   OH264683   6.397   1.007  15.479  0.4892  0.5768 -0.1446
14423TIP3    H164684   6.417   1.094  15.511 -0.5184  0.8201 -0.1445
14423TIP3    H264685   6.319   1.018  15.425 -1.1281 -0.6819  1.8013
14424TIP3   OH264686   4.125   6.595  16.901 -0.2118 -0.3952 -0.3690
14424TIP3    H164687   4.220   6.608  16.892 -0.4126  2.7638  0.6423
14424TIP3    H264688   4.116   6.507  16.938  2.3578 -0.5757  0.0101
14425TIP3   OH264689   1.991   0.496  14.139 -0.1562  0.3022  0.4167
14425TIP3    H164690   1.948   0.411  14.145  0.9997 -0.2981  0.3703
14425TIP3    H264691   1.920   0.560  14.151 -1.6305 -0.5609 -2.6976
14426TIP3   OH264692   2.985   6.535  13.253 -0.1416 -1.0465 -0.0849
14426TIP3    H164693   2.921   6.481  13.208 -0.6557 -1.0212  0.5995
14426TIP3    H264694   3.068   6.488  13.243  0.2456  0.0334 -2.9594
14427TIP3   OH264695   1.779   1.286  15.114 -0.3686  0.0270 -0.3152
14427TIP3    H164696   1.797   1.369  15.159  1.2071 -0.2875 -0.3064
14427TIP3    H264697   1.842   1.225  15.151 -1.9645 -1.3785  0.1738
14428TIP3   OH264698   6.219   5.895   6.074 -0.4518 -0.2058  0.2527
14428TIP3    H164699   6.310   5.923   6.088 -0.0379 -1.5802  0.4100
14428TIP3    H264700   6.204   5.908   5.981  0.6887 -2.0953 -0.2508
14429TIP3   OH264701   4.333   2.197  14.858  0.3796 -0.2031 -0.0220
14429TIP3    H164702   4.373   2.138  14.923 -0.2378 -1.1760 -0.4864
14429TIP3    H264703   4.400   2.211  14.792  0.5655 -0.3116  0.1449
14430TIP3   OH264704   0.908   4.409   2.947  0.2646 -0.1359 -0.6581
14430TIP3    H164705   0.950   4.449   3.023 -1.1196  0.3737 -0.1301
14430TIP3    H264706   0.956   4.327   2.934  0.6616 -0.1382  0.6374
14431TIP3   OH264707   4.578   3.982  14.816  0.4571  0.3833 -0.2380
14431TIP3    H164708   4.596   3.906  14.761  0.0167 -0.2317  0.4480
14431TIP3    H264709   4.559   3.946  14.902 -2.8732  1.0011 -0.5805
14432TIP3   OH264710   1.627   4.431  15.040  0.2615 -0.1704  0.7444
14432TIP3    H164711   1.592   4.470  14.960  0.3706  3.3465  2.2488
14432TIP3    H264712   1.556   4.374  15.072 -1.2353  1.2072 -0.0027
14433TIP3   OH264713   4.937   3.872   1.331 -0.3852  0.2355 -0.2267
14433TIP3    H164714   4.848   3.906   1.341 -1.1800 -1.8169  0.1581
14433TIP3    H264715   4.991   3.928   1.386 -1.2083  2.2475 -1.3814
14434TIP3   OH264716   0.347   4.685  10.772  0.2107 -0.0438 -0.3193
14434TIP3    H164717   0.294   4.761  10.794  1.0812  0.4501  0.1428
14434TIP3    H264718   0.390   4.709  10.690  3.2734  1.5287  1.5573
14435TIP3   OH264719   2.002   0.273  16.683 -0.0423 -0.1439  0.3697
14435TIP3    H164720   2.015   0.178  16.684  0.4184 -0.0811  0.8700
14435TIP3    H264721   2.086   0.308  16.655  0.4168  0.1880  2.0219
14436TIP3   OH264722   0.029   0.636  15.118 -0.0314  0.2998  0.2778
14436TIP3    H164723   0.105   0.580  15.135  0.0826 -0.1218 -1.4265
14436TIP3    H264724  -0.027   0.625  15.195  0.9181 -0.6118  0.8620
14437TIP3   OH264725   3.506   0.178   3.504  0.0496  0.0516  0.4697
14437TIP3    H164726   3.588   0.219   3.476  1.5855 -3.1115 -0.2102
14437TIP3    H264727   3.442   0.204   3.438  0.8114  1.5090  0.2661
14438TIP3   OH264728   0.388   3.262   2.525 -0.2732  0.0286  0.8739
14438TIP3    H164729   0.336   3.276   2.446  0.6338  1.2150  0.4503
14438TIP3    H264730   0.330   3.214   2.584 -1.0238 -0.7249 -0.4344
14439TIP3   OH264731   4.184   2.010  12.332  0.1267  0.1210 -0.0714
14439TIP3    H164732   4.129   1.937  12.303 -0.1148  0.6250 -0.9483
14439TIP3    H264733   4.145   2.087  12.289  0.1276  0.8279  1.1593
14440TIP3   OH264734   0.074   4.578   0.221  0.1734 -0.4698 -0.1680
14440TIP3    H164735   0.083   4.617   0.308  0.3151  1.6518 -1.0776
14440TIP3    H264736   0.056   4.486   0.238  1.1736 -0.3141  2.0943
14441TIP3   OH264737   2.228   5.239   4.061 -0.2938 -0.0457  0.3588
14441TIP3    H164738   2.241   5.329   4.092 -0.5328 -0.0995  0.6228
14441TIP3    H264739   2.225   5.247   3.966 -1.7417  0.4397  0.4153
14442TIP3   OH264740   4.605   4.500   1.954  0.1996  0.1113  0.0679
14442TIP3    H164741   4.526   4.554   1.950 -0.1453 -0.0056  2.9680
14442TIP3    H264742   4.677   4.562   1.954  0.0712  0.2830 -1.3655
14443TIP3   OH264743   1.439   5.168  14.143  0.9777 -0.1704 -0.0360
14443TIP3    H164744   1.369   5.164  14.208  2.5117 -0.2159  1.6827
14443TIP3    H264745   1.435   5.084  14.098  1.0683 -0.8982  1.2852
14444TIP3   OH264746   5.194   5.621   0.278  0.5899 -0.5052  0.6818
14444TIP3    H164747   5.138   5.551   0.244  0.3397 -0.0393  0.1100
14444TIP3    H264748   5.191   5.611   0.373 -2.0887  0.7102  0.8022
14445TIP3   OH264749   1.277   2.386   5.460  0.8102  0.4103  0.1389
14445TIP3    H164750   1.291   2.410   5.551 -0.1286  1.2432  0.0777
14445TIP3    H264751   1.340   2.439   5.411  2.5862 -1.3366  0.3918
14446TIP3   OH264752   1.892   4.698   3.362 -0.8160 -0.1988  0.1154
14446TIP3    H164753   1.839   4.778   3.359  0.3055  0.6017  0.9131
14446TIP3    H264754   1.894   4.668   3.271 -2.5020 -0.1848  0.0430
14447TIP3   OH264755   2.627   3.837   4.670 -0.1522 -0.1274  0.2533
14447TIP3    H164756   2.615   3.871   4.759  2.0088  0.7282  0.2963
14447TIP3    H264757   2.712   3.872   4.643 -0.1398 -1.4782 -1.6545
14448TIP3   OH264758   3.432   4.524  16.107  0.0132 -0.4932 -0.1956
14448TIP3    H164759   3.431   4.493  16.198 -2.7568 -2.2078 -0.7170
14448TIP3    H264760   3.340   4.535  16.084  0.6158 -0.5111 -2.9369
14449TIP3   OH264761   3.614   5.026   4.664 -0.5420 -0.2623 -0.9407
14449TIP3    H164762   3.704   5.012   4.634  0.7440  1.1531  1.8212
14449TIP3    H264763   3.561   4.970   4.608  1.9856 -0.7612 -3.0402
14450TIP3   OH264764   5.140   2.902  13.182 -0.3723 -0.7181 -0.2588
14450TIP3    H164765   5.146   2.867  13.093 -0.2440  0.9339 -0.9232
14450TIP3    H264766   5.049   2.930  13.191 -0.5363 -1.4081  0.3595
14451TIP3   OH264767   5.613   5.812  12.312  0.2693  0.4360 -0.7433
14451TIP3    H164768   5.537   5.860  12.278  0.6509  0.8162 -1.0701
14451TIP3    H264769   5.650   5.767  12.236 -0.8378 -1.4723 -0.2318
14452TIP3   OH264770   4.635   4.644   6.428 -0.2055  0.6418  0.1208
14452TIP3    H164771   4.678   4.722   6.464  0.5392  0.0612  0.5160
14452TIP3    H264772   4.705   4.579   6.422 -0.3481  0.6185 -2.1073
14453TIP3   OH264773   1.651   5.261  11.927 -0.1669  0.4143 -0.0641
14453TIP3    H164774   1.636   5.260  12.021  0.3782  1.7401  0.0662
14453TIP3    H264775   1.571   5.298  11.890 -0.3552 -0.0439 -0.1104
14454TIP3   OH264776   1.495   3.205  14.378 -0.6020  0.5213 -0.0346
14454TIP3    H164777   1.501   3.254  14.296  0.8322 -0.6099 -0.6682
14454TIP3    H264778   1.423   3.246  14.426 -1.4494  1.2467 -1.8353
14455TIP3   OH264779   0.652   0.253  11.132 -0.7138  0.3524 -0.0813
14455TIP3    H164780   0.711   0.324  11.157  2.1650 -2.0829  0.8178
14455TIP3    H264781   0.663   0.245  11.037 -1.0070  1.0623 -0.1782
14456TIP3   OH264782   5.933   3.696  14.840  0.1569 -0.0700  0.0972
14456TIP3    H164783   5.947   3.756  14.767  0.6431 -1.0519 -0.6389
14456TIP3    H264784   5.889   3.620  14.801 -0.3883 -0.2335  0.9994
14457TIP3   OH264785   5.447   4.062   4.839 -0.2866 -0.1337  0.7282
14457TIP3    H164786   5.390   4.044   4.914 -2.0178  1.8827  0.0175
14457TIP3    H264787   5.481   4.150   4.855  0.0656 -0.0487 -0.3893
14458TIP3   OH264788   0.344   6.312   5.947  0.2737  0.3426 -0.1079
14458TIP3    H164789   0.321   6.256   6.021  2.4989 -0.5688 -0.0234
14458TIP3    H264790   0.312   6.398   5.971  1.6833  0.2657  2.3670
14459TIP3   OH264791   1.333   6.553  13.622 -0.1896  0.0155 -0.0983
14459TIP3    H164792   1.283   6.494  13.564  1.5744 -0.2912 -1.4023
14459TIP3    H264793   1.278   6.562  13.700 -1.6366 -1.3798 -0.8838
14460TIP3   OH264794   1.514   4.393   4.516 -0.1725 -0.3769  0.0502
14460TIP3    H164795   1.600   4.429   4.492 -0.2001 -0.1992  0.2084
14460TIP3    H264796   1.530   4.300   4.531  0.2633 -0.1143  1.3450
14461TIP3   OH264797   3.945   5.509   0.222  0.1115  0.1690 -0.2587
14461TIP3    H164798   4.006   5.484   0.291 -0.9984  0.7086  0.9663
14461TIP3    H264799   3.988   5.482   0.141  3.0837  2.6012  0.2865
14462TIP3   OH264800   3.455   2.603  13.138 -0.0811  0.1788  0.1539
14462TIP3    H164801   3.461   2.694  13.108 -0.4383 -0.4489 -1.9231
14462TIP3    H264802   3.361   2.584  13.138  0.0137 -0.3012  0.2843
14463TIP3   OH264803   0.995   5.375  11.897  0.2553  0.2642  0.0101
14463TIP3    H164804   0.912   5.381  11.850 -0.3555 -0.8580  0.8985
14463TIP3    H264805   1.028   5.287  11.878  1.0429  0.5520  0.0034
14464TIP3   OH264806   0.156   3.542  12.703 -0.1031 -0.0405 -0.1893
14464TIP3    H164807   0.250   3.527  12.692  0.0712  0.6988  0.2329
14464TIP3    H264808   0.148   3.582  12.790 -0.6131  1.5694 -0.9492
14465TIP3   OH264809   2.000   5.144   5.499 -0.5117 -0.1862 -0.3419
14465TIP3    H164810   1.923   5.191   5.469 -0.3703  0.8379  0.8213
14465TIP3    H264811   1.974   5.105   5.582 -0.1412 -0.8689 -0.5340
14466TIP3   OH264812   6.213   6.192   2.843  0.3381 -0.1837  0.2964
14466TIP3    H164813   6.295   6.242   2.843  0.0603  0.2927  1.0508
14466TIP3    H264814   6.147   6.254   2.812  0.3233 -0.6933 -0.7385
14467TIP3   OH264815   2.953   3.855  15.705 -0.0746  0.4650 -0.6185
14467TIP3    H164816   2.933   3.762  15.695  0.2338  0.4456 -1.0805
14467TIP3    H264817   2.881   3.889  15.758 -0.5059  0.0853 -0.9506
14468TIP3   OH264818   5.082   5.516  14.208  0.1872 -0.1406 -0.1381
14468TIP3    H164819   5.166   5.515  14.253  0.5699 -1.8677 -0.8034
14468TIP3    H264820   5.037   5.593  14.242  1.5030  0.0726  1.2086
14469TIP3   OH264821   6.125   5.835   4.184  0.3895  0.2894 -0.4254
14469TIP3    H164822   6.085   5.829   4.271  0.2083  1.2727 -0.4375
14469TIP3    H264823   6.107   5.924   4.154  0.5073 -0.0115 -1.4500
14470TIP3   OH264824   5.295   3.930   1.778 -0.0821  0.1119  0.1217
14470TIP3    H164825   5.303   4.023   1.757  0.3806  0.1830  0.5872
14470TIP3    H264826   5.230   3.926   1.848  0.7059  0.2163  0.8883
14471TIP3   OH264827   3.392   3.953  15.768 -0.5431 -0.6862 -0.3926
14471TIP3    H164828   3.484   3.968  15.789 -0.2937 -1.3201 -1.0248
14471TIP3    H264829   3.347   4.028  15.807 -0.0916 -1.7308  2.3485
14472TIP3   OH264830   1.481   5.620   0.815  0.7128 -0.1682  0.1490
14472TIP3    H164831   1.468   5.604   0.721  1.3482 -1.0660  0.1963
14472TIP3    H264832   1.503   5.713   0.821  1.5424 -0.2955 -0.6925
14473TIP3   OH264833   5.189   4.491  15.516  0.2009  0.3277  0.0992
14473TIP3    H164834   5.225   4.460  15.433 -1.2381  0.1548 -0.4796
14473TIP3    H264835   5.125   4.557  15.491  0.6308  1.1634  1.1484
14474TIP3   OH264836   3.553   1.295   6.703 -0.3325  0.1279 -0.0232
14474TIP3    H164837   3.547   1.390   6.691 -0.8227  0.0853 -0.1354
14474TIP3    H264838   3.531   1.281   6.795 -1.6405  0.0067 -0.3387
14475TIP3   OH264839   5.163   5.930  12.308 -0.0563  0.4522  0.4137
14475TIP3    H164840   5.203   5.964  12.389  0.3060 -0.6856  0.7242
14475TIP3    H264841   5.093   5.872  12.339  0.8833 -0.9744 -0.0445
14476TIP3   OH264842   5.671   3.922  16.290  0.0288  0.0326 -0.4077
14476TIP3    H164843   5.721   3.993  16.331  0.2073 -0.2357 -0.1626
14476TIP3    H264844   5.724   3.844  16.303 -1.5993 -0.7728  2.2226
14477TIP3   OH264845   4.957   3.746   1.698 -0.3643  0.3833 -0.0939
14477TIP3    H164846   4.865   3.720   1.704 -1.1598  2.6872 -1.1485
14477TIP3    H264847   4.967   3.777   1.608  0.5706  3.1303  0.8778
14478TIP3   OH264848   1.958   5.876   4.036 -0.3164  0.2493 -0.0061
14478TIP3    H164849   1.868   5.852   4.057 -0.0229  0.4728  1.6685
14478TIP3    H264850   1.996   5.796   4.000 -1.6744  0.6750 -2.5916
14479TIP3   OH264851   0.424   5.965   1.944  0.1790  0.2123 -0.0224
14479TIP3    H164852   0.345   5.952   1.997  0.6270 -0.5023  0.4943
14479TIP3    H264853   0.421   6.057   1.917 -0.6091  0.2981  0.3536
14480TIP3   OH264854   0.854   3.313   3.701 -0.2527 -0.1242 -0.3680
14480TIP3    H164855   0.912   3.351   3.767  1.9315 -0.6714 -1.8484
14480TIP3    H264856   0.840   3.383   3.638  0.2149 -0.4729 -0.8718
14481TIP3   OH264857   2.244   1.741   0.794  0.0781 -0.0672 -0.1883
14481TIP3    H164858   2.177   1.809   0.789 -0.1794 -0.2653  0.4246
14481TIP3    H264859   2.321   1.785   0.831  0.1421  0.0566 -0.4697
14482TIP3   OH264860   1.994   3.488   4.870 -0.1942 -0.0040  0.0324
14482TIP3    H164861   1.900   3.502   4.877 -0.0681  0.7452  0.3404
14482TIP3    H264862   2.014   3.424   4.938 -0.5238 -0.3998 -0.2365
14483TIP3   OH264863   1.590   5.485  10.796 -0.0157  0.0664 -0.1312
14483TIP3    H164864   1.683   5.509  10.791  0.1840 -0.4647  0.7296
14483TIP3    H264865   1.591   5.393  10.823 -0.7926  0.1219  0.1006
14484TIP3   OH264866   5.887   4.006  13.043  0.4831  0.4369  0.2835
14484TIP3    H164867   5.976   4.008  13.007 -0.5737 -0.3730 -2.7461
14484TIP3    H264868   5.835   3.966  12.973 -2.6997  3.0361  0.9528
14485TIP3   OH264869   4.304   0.348   1.718  0.5960 -0.3062  1.1994
14485TIP3    H164870   4.374   0.298   1.760  0.3038 -2.0341 -0.2303
14485TIP3    H264871   4.249   0.282   1.676  0.8618  1.2071 -1.8454
14486TIP3   OH264872   1.879   3.640  13.510  0.0225 -0.1957  0.1180
14486TIP3    H164873   1.896   3.724  13.552 -1.3472 -0.0906  0.5252
14486TIP3    H264874   1.793   3.614  13.544 -1.6007  0.2953 -3.2182
14487TIP3   OH264875   6.509   3.996  14.351 -0.9757 -0.2282 -0.5089
14487TIP3    H164876   6.592   3.984  14.306  0.1578 -0.3522  1.4953
14487TIP3    H264877   6.509   4.088  14.377 -0.7169 -0.5955  0.8475
14488TIP3   OH264878   6.141   0.123  16.263  0.0575  0.4702  0.0502
14488TIP3    H164879   6.136   0.045  16.318  0.9223 -0.7201 -1.4399
14488TIP3    H264880   6.054   0.161  16.266  0.0604  0.4129  2.1245
14489TIP3   OH264881   1.075   0.872   3.978  0.0987 -0.4391 -0.2571
14489TIP3    H164882   1.094   0.785   4.011  1.6658  0.1505  0.4883
14489TIP3    H264883   0.981   0.871   3.960  0.0500 -2.1867 -0.0403
14490TIP3   OH264884   5.049   6.333  16.247  0.1208  0.2871 -0.5791
14490TIP3    H164885   5.126   6.391  16.251  1.0668 -0.9610  0.0004
14490TIP3    H264886   5.058   6.287  16.164 -0.1371  0.3254 -0.6268
14491TIP3   OH264887   6.751   3.420   0.138  0.5587 -0.4471 -0.5415
14491TIP3    H164888   6.715   3.460   0.217 -2.1275 -2.3524 -0.6879
14491TIP3    H264889   6.793   3.340   0.168  1.9936  0.1950 -0.7642
14492TIP3   OH264890   4.864   1.259  16.702 -0.2972 -0.4779  0.1093
14492TIP3    H164891   4.951   1.299  16.696 -1.3077  1.8710 -0.1568
14492TIP3    H264892   4.850   1.247  16.796  0.3119 -0.9303  0.1519
14493TIP3   OH264893   5.318   6.404  14.277  0.0016 -0.0345  0.0173
14493TIP3    H164894   5.312   6.315  14.242  0.3919 -0.0973  0.1110
14493TIP3    H264895   5.251   6.453  14.229 -0.8051 -0.5741  0.5747
14494TIP3   OH264896   3.512   1.094  13.212  0.1058 -0.8571 -0.1706
14494TIP3    H164897   3.468   1.016  13.178 -0.1025 -0.7850 -0.0692
14494TIP3    H264898   3.564   1.062  13.285  1.5215 -1.2230 -1.3032
14495TIP3   OH264899   4.385   0.045  13.968  0.0897  0.3226  0.6820
14495TIP3    H164900   4.415   0.038  14.059 -0.9529 -1.8574  0.9244
14495TIP3    H264901   4.297   0.008  13.969 -1.1260  2.9248 -0.7334
14496TIP3   OH264902   0.575   2.246   2.669  0.4551  0.1560  0.0212
14496TIP3    H164903   0.661   2.207   2.683  1.7359  2.0254 -1.9399
14496TIP3    H264904   0.582   2.333   2.709 -0.9664 -0.0708  0.8402
14497TIP3   OH264905   1.192   1.122  11.114 -0.1732 -0.5850 -0.0130
14497TIP3    H164906   1.225   1.120  11.024 -0.6471 -0.5366 -0.1923
14497TIP3    H264907   1.101   1.148  11.105 -1.1997 -3.6605  0.1542
14498TIP3   OH264908   5.300   3.038  12.937  0.1034 -0.0382  0.1695
14498TIP3    H164909   5.218   3.078  12.909  0.0322 -0.4794 -0.2638
14498TIP3    H264910   5.317   3.075  13.024 -0.1869  0.5845 -0.0385
14499TIP3   OH264911   2.367   5.865   5.870 -0.8209 -0.2399 -0.1902
14499TIP3    H164912   2.280   5.880   5.909  0.3694  1.3972  2.1288
14499TIP3    H264913   2.388   5.774   5.893 -1.8793 -0.6347 -0.7306
14500TIP3   OH264914   1.518   3.263   4.181 -0.0371  0.4573 -0.0644
14500TIP3    H164915   1.544   3.277   4.272  2.9637  0.0969 -0.7660
14500TIP3    H264916   1.583   3.202   4.147 -1.8848 -0.4743 -2.1246
14501TIP3   OH264917   2.661   1.656   5.585  0.0528  0.1162 -0.0324
14501TIP3    H164918   2.573   1.686   5.607  0.0618 -0.3654  0.7042
14501TIP3    H264919   2.711   1.736   5.570 -0.4898  0.3963 -0.4015
14502TIP3   OH264920   1.494   2.169  13.167  0.2028  0.0190 -0.0733
14502TIP3    H164921   1.584   2.143  13.183  0.1730  0.3436  0.6878
14502TIP3    H264922   1.498   2.230  13.093  0.6710  0.4298  0.2870
14503TIP3   OH264923   1.098   1.486  11.520  0.3337  1.1293  0.3411
14503TIP3    H164924   1.148   1.475  11.440  0.3430 -0.5177  0.5432
14503TIP3    H264925   1.007   1.474  11.494  0.3060  0.9669  0.5090
14504TIP3   OH264926   6.165   2.417   3.716 -0.0174 -0.2038  0.1521
14504TIP3    H164927   6.174   2.368   3.798  2.1958  0.7438  0.5799
14504TIP3    H264928   6.254   2.447   3.697 -0.8924  1.7252 -1.2634
14505TIP3   OH264929   2.014   1.251   5.275 -0.3468 -0.0766 -0.0998
14505TIP3    H164930   2.057   1.260   5.360 -1.7834 -0.3016  0.6847
14505TIP3    H264931   1.988   1.341   5.252  0.3148  0.0276 -0.4644
14506TIP3   OH264932   3.478   5.787   0.170 -0.1364  0.1923  0.2688
14506TIP3    H164933   3.399   5.797   0.117  0.4830 -0.4916 -0.8050
14506TIP3    H264934   3.548   5.827   0.118  0.5593 -0.8542  0.3550
14507TIP3   OH264935   3.331   4.305   0.962  0.3592 -0.4050  0.5185
14507TIP3    H164936   3.388   4.284   0.888  0.0699  0.4911  0.0313
14507TIP3    H264937   3.344   4.232   1.023  0.4527 -1.2647 -0.4971
14508TIP3   OH264938   0.980   4.493   3.964  0.2485  0.0889 -0.3360
14508TIP3    H164939   1.013   4.463   3.879 -0.9223 -1.3728 -0.3313
14508TIP3    H264940   1.058   4.503   4.019  0.8576 -1.0773 -0.9564
14509TIP3   OH264941   5.201   0.460   0.209 -0.1189 -0.2741  0.3694
14509TIP3    H164942   5.176   0.507   0.130  1.9546 -1.0895 -0.8386
14509TIP3    H264943   5.236   0.527   0.267 -0.3639  0.1392  0.0416
14510TIP3   OH264944   0.207   4.200  16.584 -0.0337 -0.3230  0.2987
14510TIP3    H164945   0.155   4.244  16.650 -0.6956 -2.0118  0.9636
14510TIP3    H264946   0.298   4.219  16.608 -0.2754 -0.6215  1.4892
14511TIP3   OH264947   0.787   0.070  16.952  0.2836 -0.0641 -0.3429
14511TIP3    H164948   0.748   0.120  17.024  0.5947 -1.2255  0.6640
14511TIP3    H264949   0.762  -0.020  16.970  0.0940 -0.3514 -1.8934
14512TIP3   OH264950   2.587   2.072   1.831  0.2415 -0.7418 -0.2247
14512TIP3    H164951   2.529   2.011   1.786  0.6853 -0.9829 -0.4807
14512TIP3    H264952   2.623   2.022   1.904 -0.7843 -0.2316  0.6513
14513TIP3   OH264953   0.085   3.324  15.397  0.1694 -0.1603  0.3426
14513TIP3    H164954   0.132   3.332  15.480 -0.0291 -1.1074  0.5600
14513TIP3    H264955   0.110   3.402  15.348  2.9544 -1.1835 -0.0567
14514TIP3   OH264956   0.052   3.245  14.007  0.0475 -0.4023 -0.1744
14514TIP3    H164957  -0.023   3.290  14.046  0.0583 -1.6911  1.4583
14514TIP3    H264958   0.128   3.292  14.042  0.0357 -0.9196  0.5736
14515TIP3   OH264959   2.174   1.549  16.057 -0.0468 -0.9747 -0.0998
14515TIP3    H164960   2.195   1.634  16.094  4.0266 -1.6868 -0.3069
14515TIP3    H264961   2.158   1.493  16.133 -1.0635 -0.4406  0.0988
14516TIP3   OH264962   6.156   4.287  16.391 -0.7235 -0.0080  0.2052
14516TIP3    H164963   6.220   4.259  16.456  0.0709  1.1175 -0.0648
14516TIP3    H264964   6.111   4.362  16.433  1.4961  2.3826 -1.3867
14517TIP3   OH264965   4.297   0.536   1.983  0.1724  0.3197 -0.6033
14517TIP3    H164966   4.304   0.441   1.969  1.1635  0.3688 -0.5109
14517TIP3    H264967   4.287   0.546   2.077 -1.3106  0.2509 -0.7331
14518TIP3   OH264968   2.143   1.927  14.363  0.0010  0.0966  0.1034
14518TIP3    H164969   2.139   1.904  14.270 -0.5170  1.2719 -0.1847
14518TIP3    H264970   2.108   2.016  14.367 -1.2930 -0.4305  1.6070
14519TIP3   OH264971   0.793   2.609   5.538 -0.4755 -0.1734 -0.5162
14519TIP3    H164972   0.887   2.618   5.524 -0.4619  2.3065  0.6520
14519TIP3    H264973   0.755   2.630   5.453 -0.0070 -0.6537 -0.8537
14520TIP3   OH264974   6.102   2.160   1.766  0.2883 -0.0914 -0.2317
14520TIP3    H164975   6.133   2.076   1.733  1.1044 -0.4374  1.3419
14520TIP3    H264976   6.055   2.139   1.846  1.2963  1.0168  0.6886
14521TIP3   OH264977   2.159   2.517  12.740 -0.1556 -0.2299 -0.3366
14521TIP3    H164978   2.188   2.606  12.757 -1.5975  0.0706  0.8315
14521TIP3    H264979   2.067   2.526  12.713  0.0624 -1.2807 -1.5327
14522TIP3   OH264980   6.259   6.078   0.567 -0.0626 -0.2468  0.5987
14522TIP3    H164981   6.289   6.009   0.508 -0.0971  1.1202 -1.0949
14522TIP3    H264982   6.236   6.151   0.509  0.2114  1.2889  2.3312
14523TIP3   OH264983   5.065   0.806  14.287 -0.5424 -0.0026  0.1949
14523TIP3    H164984   4.995   0.865  14.313  0.9858  1.3379  1.5069
14523TIP3    H264985   5.085   0.830  14.196 -0.8262  0.5927  0.2907
14524TIP3   OH264986   0.158   3.984  16.124 -0.2053  0.1276  0.0606
14524TIP3    H164987   0.154   3.993  16.220  1.2330 -0.4216  0.2003
14524TIP3    H264988   0.226   4.047  16.097  0.9500 -1.2345 -0.3266
14525TIP3   OH264989   0.876   5.066   1.689  0.0561 -0.1609 -0.3316
14525TIP3    H164990   0.967   5.054   1.662  0.4587  2.2785 -0.2640
14525TIP3    H264991   0.847   4.979   1.716  2.5459 -0.8900  0.2103
14526TIP3   OH264992   3.866   5.845   3.326  0.2380  0.2526  0.2301
14526TIP3    H164993   3.823   5.814   3.246 -0.0191  1.0685  0.0437
14526TIP3    H264994   3.911   5.768   3.360  0.4774 -0.0797 -0.7894
14527TIP3   OH264995   6.763   2.622   2.532 -0.2962  0.1294  0.7409
14527TIP3    H164996   6.751   2.715   2.513  0.4873  0.3294  1.1622
14527TIP3    H264997   6.833   2.620   2.597 -0.5730 -0.7354  1.0290
14528TIP3   OH264998   6.274   3.679  11.440  0.4197 -0.0853  0.1204
14528TIP3    H164999   6.215   3.604  11.452  2.2134 -1.4850  0.5841
14528TIP3    H265000   6.293   3.708  11.529  0.7791  0.0853 -0.0144
14529TIP3   OH265001   0.236   3.171   1.255 -0.4284  0.5616 -0.0227
14529TIP3    H165002   0.227   3.134   1.167 -2.0526 -1.5219  0.9421
14529TIP3    H265003   0.219   3.265   1.243 -0.0270  0.4263 -1.9980
14530TIP3   OH265004   5.316   6.505  11.350 -0.0245 -0.6662  0.3465
14530TIP3    H165005   5.360   6.438  11.297 -2.1669 -1.8857 -0.0134
14530TIP3    H265006   5.226   6.506  11.316 -0.6222  0.8168  1.8648
14531TIP3   OH265007   6.070   5.139  11.381 -0.6190  0.1187 -0.0172
14531TIP3    H165008   6.010   5.190  11.435 -0.5921 -0.9969  1.1260
14531TIP3    H265009   6.097   5.198  11.312 -1.0553  1.4487  0.9168
14532TIP3   OH265010   1.327   4.867   1.716  0.4501 -0.5989  0.6596
14532TIP3    H165011   1.235   4.877   1.741 -0.0633 -2.7444 -0.1377
14532TIP3    H265012   1.354   4.784   1.757  1.0230 -1.6897 -1.7715
14533TIP3   OH265013   4.756   5.272   3.347 -0.2852 -0.1937 -0.1559
14533TIP3    H165014   4.739   5.269   3.441 -3.6209 -0.7083 -0.6505
14533TIP3    H265015   4.685   5.219   3.308  1.8931 -1.3928 -2.8830
14534TIP3   OH265016   2.779   0.581  12.414  0.9325 -0.5008  0.1357
14534TIP3    H165017   2.721   0.591  12.490  1.7698  0.3015  0.6972
14534TIP3    H265018   2.763   0.658  12.361  0.5389 -0.9326 -0.3724
14535TIP3   OH265019   0.281   1.360  11.435 -0.1093  0.0227  0.5214
14535TIP3    H165020   0.223   1.336  11.363  0.2467  0.4896  0.0731
14535TIP3    H265021   0.228   1.417  11.491 -0.3595 -0.2719  0.5818
14536TIP3   OH265022   0.141   4.782   3.783 -0.1664  0.2254  0.0478
14536TIP3    H165023   0.069   4.829   3.740  0.2804  1.0062  0.1246
14536TIP3    H265024   0.159   4.832   3.862 -0.7142 -0.9847  0.9682
14537TIP3   OH265025   2.496   3.948  16.566  0.0801 -0.5605  0.1449
14537TIP3    H165026   2.565   3.911  16.511 -0.2359  1.4075 -1.7251
14537TIP3    H265027   2.538   3.963  16.651  2.2520  1.2799 -1.1379
14538TIP3   OH265028   5.242   1.962  16.911  0.0392  0.1217 -0.3492
14538TIP3    H165029   5.332   1.960  16.877 -0.2959  2.7693 -1.6794
14538TIP3    H265030   5.189   1.985  16.834 -1.3251  1.9912  1.0778
14539TIP3   OH265031   2.943   6.343   6.424 -0.5134  0.2446 -0.2415
14539TIP3    H165032   2.957   6.435   6.403 -1.0607  0.6360  1.0204
14539TIP3    H265033   2.868   6.318   6.370  0.7098  0.0212 -1.9008
14540TIP3   OH265034   1.451   5.996   1.102  0.1879 -0.3592 -0.3967
14540TIP3    H165035   1.407   6.057   1.043  1.0928  1.3393  0.6173
14540TIP3    H265036   1.417   6.018   1.189  1.6431 -0.2538  0.1773
14541TIP3   OH265037   0.069   2.640  12.552 -0.2048  0.4149  0.0672
14541TIP3    H165038   0.082   2.552  12.516 -1.0017  0.1677  0.3684
14541TIP3    H265039   0.046   2.693  12.476 -0.9351  0.0991  0.0623
14542TIP3   OH265040   6.176   2.203  14.879  0.4859 -0.2498 -0.3461
14542TIP3    H165041   6.206   2.243  14.961 -1.5909 -0.9631  0.8299
14542TIP3    H265042   6.099   2.152  14.903 -0.4405 -0.1919 -2.8068
14543TIP3   OH265043   2.355   4.370   1.791  0.5044  0.4881 -0.5285
14543TIP3    H165044   2.379   4.284   1.825 -0.0932  1.3435  2.2963
14543TIP3    H265045   2.366   4.429   1.865 -0.2537  2.6735 -2.0487
14544TIP3   OH265046   3.969   2.079   4.381 -0.3070  0.0195 -0.0959
14544TIP3    H165047   3.878   2.052   4.394  0.2900 -1.7483  0.7164
14544TIP3    H265048   3.965   2.175   4.381 -2.3853  0.0183 -1.9210
14545TIP3   OH265049   5.232   2.907   6.622  0.1530  0.1918 -0.4092
14545TIP3    H165050   5.209   2.994   6.654 -1.1951 -0.6399  0.9907
14545TIP3    H265051   5.189   2.901   6.536 -0.5232  0.5558 -0.1013
14546TIP3   OH265052   0.969   1.507   4.381  0.2674 -0.2933  0.2494
14546TIP3    H165053   0.902   1.443   4.402  0.1329 -0.0345  0.6137
14546TIP3    H265054   0.996   1.543   4.466  0.5303 -0.0572  0.0695
14547TIP3   OH265055   0.321   4.507  12.450 -0.4764  0.4993  0.6170
14547TIP3    H165056   0.303   4.460  12.369 -0.6919 -0.9150  1.4402
14547TIP3    H265057   0.415   4.497  12.464 -0.2402  1.7047 -0.0099
14548TIP3   OH265058   0.839   2.320   1.534  0.0393  0.3851 -0.6732
14548TIP3    H165059   0.929   2.304   1.563  0.3618  1.3080 -1.1148
14548TIP3    H265060   0.797   2.234   1.535  0.7420  0.0413  0.1614
14549TIP3   OH265061   4.620   5.949  14.934 -0.0365  0.3315 -0.5488
14549TIP3    H165062   4.602   5.871  14.882 -0.1717  0.5044 -0.7611
14549TIP3    H265063   4.669   5.916  15.009 -2.0400 -0.3251  0.5664
14550TIP3   OH265064   5.413   4.552   1.259  0.3786  0.2514 -0.0708
14550TIP3    H165065   5.332   4.599   1.241 -0.6711 -1.2350  0.5007
14550TIP3    H265066   5.462   4.609   1.318 -0.4003  1.0408 -0.1757
14551TIP3   OH265067   1.209   5.963  16.648 -0.0681 -0.0757 -0.0512
14551TIP3    H165068   1.215   5.930  16.738 -1.7446  0.7146  0.3946
14551TIP3    H265069   1.198   6.058  16.658 -1.2546 -0.0764 -1.0219
14552TIP3   OH265070   0.919   4.777  16.173  0.3036  0.0925 -0.1228
14552TIP3    H165071   0.916   4.782  16.078 -2.0757 -1.7655 -0.2208
14552TIP3    H265072   0.843   4.827  16.203  1.4324  1.3029  0.9265
14553TIP3   OH265073   6.606   5.391   4.824  0.3719  0.1887  0.1737
14553TIP3    H165074   6.617   5.485   4.841  0.3127  0.3495 -0.6167
14553TIP3    H265075   6.643   5.348   4.901 -1.0097  0.8764  1.2602
14554TIP3   OH265076   1.586   5.133   2.303  0.0296 -0.3701 -0.6590
14554TIP3    H165077   1.563   5.066   2.238 -0.9795 -1.2007  0.5231
14554TIP3    H265078   1.607   5.083   2.382 -0.6642  0.7066  0.2239
14555TIP3   OH265079   1.084   5.551  17.010  0.0022 -0.2894  0.4178
14555TIP3    H165080   1.105   5.599  17.090 -0.4174  1.3333 -0.3936
14555TIP3    H265081   1.004   5.593  16.977 -1.3682 -2.6402  0.4984
14556TIP3   OH265082   4.143   3.608  15.053 -0.1526 -0.3859  0.4879
14556TIP3    H165083   4.085   3.629  14.980  1.3834  0.7165 -0.4771
14556TIP3    H265084   4.123   3.517  15.074 -1.5388 -0.3237 -0.4451
14557TIP3   OH265085   5.763   3.124   2.319 -0.5469  0.6523 -0.2563
14557TIP3    H165086   5.682   3.133   2.371 -0.7666  1.2137 -0.6853
14557TIP3    H265087   5.755   3.191   2.251  0.7789  1.4455  0.3385
14558TIP3   OH265088   6.163   5.290  16.112  0.2963  0.2311 -0.0186
14558TIP3    H165089   6.158   5.328  16.200 -0.7907 -2.0424  0.9835
14558TIP3    H265090   6.072   5.281  16.084  0.5490 -0.7729 -0.5740
14559TIP3   OH265091   1.819   0.093   3.852 -0.1262  0.3127  0.0440
14559TIP3    H165092   1.800   0.057   3.939 -0.9057 -0.3345 -0.3795
14559TIP3    H265093   1.785   0.182   3.854  1.5822  0.9900  1.0197
14560TIP3   OH265094   3.384   0.627   2.171  0.6160 -0.4505 -0.4632
14560TIP3    H165095   3.407   0.607   2.080 -1.3198  0.2186 -1.1593
14560TIP3    H265096   3.313   0.565   2.191  1.8279 -1.4115  1.0404
14561TIP3   OH265097   2.694   4.759  12.212  0.0683 -0.4614 -0.6348
14561TIP3    H165098   2.781   4.768  12.172 -0.3605 -4.1359 -2.8968
14561TIP3    H265099   2.635   4.804  12.151  0.1620  0.4521 -0.0654
14562TIP3   OH265100   6.086   3.918  11.773  0.5604 -0.6993 -0.3054
14562TIP3    H165101   6.062   3.868  11.695  1.4136  0.1512 -1.1468
14562TIP3    H265102   6.120   4.000  11.738  3.2621 -1.2416  0.8445
14563TIP3   OH265103   6.123   1.493   1.113 -0.8508  0.0072 -0.2724
14563TIP3    H165104   6.102   1.421   1.172 -0.8352  1.1998  1.2603
14563TIP3    H265105   6.132   1.569   1.171  0.2071  1.0282 -1.7050
14564TIP3   OH265106   3.045   0.063  11.093 -0.3600 -0.3083  0.3048
14564TIP3    H165107   3.045   0.043  10.999 -1.2846 -0.6745  0.3762
14564TIP3    H265108   3.074  -0.018  11.135 -0.2884 -0.2526  0.3650
14565TIP3   OH265109   5.150   1.407  16.692 -0.5284  0.1712 -0.7053
14565TIP3    H165110   5.227   1.365  16.730 -1.6277 -1.7128 -0.4322
14565TIP3    H265111   5.136   1.485  16.745  1.6663  1.0612 -1.3162
14566TIP3   OH265112   0.374   0.907   3.247  0.3859  0.3757  0.1282
14566TIP3    H165113   0.389   0.997   3.275  0.7602  0.2351  0.3873
14566TIP3    H265114   0.287   0.908   3.207  1.2765  1.3520 -1.9903
14567TIP3   OH265115   1.908   2.082   4.782  0.0371 -0.0478  0.1384
14567TIP3    H165116   1.888   2.166   4.824  1.0678  0.7428 -0.8738
14567TIP3    H265117   1.997   2.093   4.749  0.8697 -2.2059  1.5123
14568TIP3   OH265118   1.817   0.343   5.735  0.0249  0.2128  0.0254
14568TIP3    H165119   1.868   0.356   5.655 -1.0865  1.6531 -0.4836
14568TIP3    H265120   1.867   0.389   5.802  0.8447 -0.8114  0.1451
14569TIP3   OH265121   1.231   0.489   1.555  0.0845 -0.1666 -0.2877
14569TIP3    H165122   1.155   0.548   1.549  0.6528  0.5322 -0.7798
14569TIP3    H265123   1.286   0.514   1.482  1.2392 -0.0261  0.6068
14570TIP3   OH265124   1.148   5.280  13.360  0.2827 -0.5148  0.1456
14570TIP3    H165125   1.199   5.211  13.317 -1.9870 -3.3302  1.6027
14570TIP3    H265126   1.142   5.252  13.451 -1.0735  1.4492  0.7244
14571TIP3   OH265127   2.005   6.561  15.779 -0.6257 -0.3122  0.5390
14571TIP3    H165128   2.013   6.508  15.858  0.8148 -1.2234 -0.1753
14571TIP3    H265129   1.950   6.509  15.721  1.5436 -1.5759 -0.5202
14572TIP3   OH265130   3.652   0.534   2.387 -0.7601 -0.1976  0.3798
14572TIP3    H165131   3.666   0.534   2.293 -1.1518 -1.0612  0.3104
14572TIP3    H265132   3.736   0.509   2.425 -0.1877  1.5292  0.3603
14573TIP3   OH265133   1.411   1.110  14.653  0.7186 -0.3761 -0.3202
14573TIP3    H165134   1.456   1.191  14.629  1.7545 -0.6563  0.5671
14573TIP3    H265135   1.339   1.103  14.591  0.3652  1.4260 -0.1518
14574TIP3   OH265136   3.313   5.060   4.389  0.2141  0.2388 -0.0719
14574TIP3    H165137   3.364   4.987   4.423  1.5639  1.1815 -0.0149
14574TIP3    H265138   3.247   5.019   4.332  0.4406 -1.0549  0.5768
14575TIP3   OH265139   3.664   3.623   0.304  0.1377  0.1567 -0.2472
14575TIP3    H165140   3.742   3.672   0.329 -0.9025  0.7115  2.2581
14575TIP3    H265141   3.645   3.652   0.215  2.0400  0.9667 -0.4375
14576TIP3   OH265142   2.530   1.435  12.830  0.0804 -0.6561  0.3403
14576TIP3    H165143   2.455   1.381  12.852  0.3846 -1.2227  0.0312
14576TIP3    H265144   2.604   1.374  12.830  0.7266  0.0962  1.7298
14577TIP3   OH265145   0.213   4.293   3.466  0.7733  0.1247 -0.6917
14577TIP3    H165146   0.244   4.380   3.490 -1.3041  0.0516  3.0834
14577TIP3    H265147   0.119   4.303   3.452  0.3051 -1.5335  0.7692
14578TIP3   OH265148   4.008   6.585   4.229  0.5746 -0.7215  0.1882
14578TIP3    H165149   3.920   6.553   4.248  1.4732 -1.5026  3.8973
14578TIP3    H265150   4.065   6.511   4.250  2.2542  0.5739  0.4276
14579TIP3   OH265151   4.746   4.590   5.019 -0.0641 -0.0493  0.5568
14579TIP3    H165152   4.720   4.665   5.072 -1.1991 -0.4282  0.5628
14579TIP3    H265153   4.670   4.533   5.019  0.0729 -0.2881 -1.1029
14580TIP3   OH265154   3.463   2.328  12.233 -0.3679 -0.0597  0.4463
14580TIP3    H165155   3.436   2.351  12.321 -0.7551 -0.1218  0.3454
14580TIP3    H265156   3.454   2.232  12.229 -0.4134 -0.0515  0.3226
14581TIP3   OH265157   5.388   1.686  15.953 -0.0177 -0.2337  0.1529
14581TIP3    H165158   5.314   1.734  15.914 -0.2887 -0.4564  0.3865
14581TIP3    H265159   5.361   1.594  15.949  0.0052 -0.2663  0.7644
14582TIP3   OH265160   4.126   1.160   4.858 -0.0190  0.5837  0.2302
14582TIP3    H165161   4.094   1.115   4.780  0.1073  0.0764  0.4659
14582TIP3    H265162   4.099   1.251   4.846 -0.5932  0.3779 -0.0804
14583TIP3   OH265163   0.922   6.524   1.002 -0.0493 -0.1101  0.1023
14583TIP3    H165164   0.888   6.444   1.041  1.4288 -1.1672 -0.6659
14583TIP3    H265165   1.017   6.513   1.005  0.1958  1.7190  0.1590
14584TIP3   OH265166   4.920   2.331   2.826 -0.0304 -0.3461  0.1622
14584TIP3    H165167   4.963   2.272   2.888  0.6789  1.2234  1.2536
14584TIP3    H265168   4.826   2.317   2.840  0.1214 -0.2272  1.4112
14585TIP3   OH265169   6.078   3.728   5.680  0.0276  0.3091  0.3740
14585TIP3    H165170   6.140   3.800   5.672  0.1048  0.1409 -0.6689
14585TIP3    H265171   6.131   3.655   5.712  0.5407 -0.0164 -1.1299
14586TIP3   OH265172   4.411   2.187  16.169 -0.0304  0.8270  0.8478
14586TIP3    H165173   4.368   2.271  16.185 -0.0069  0.8331  0.8790
14586TIP3    H265174   4.341   2.122  16.177 -0.4099  0.9657 -0.7960
14587TIP3   OH265175   3.832   4.160   1.284 -0.5471  0.1679  0.7513
14587TIP3    H165176   3.861   4.161   1.376  1.6576 -0.6576  0.1450
14587TIP3    H265177   3.891   4.221   1.240 -0.6966 -0.4405 -0.3275
14588TIP3   OH265178   6.602   3.369   0.751 -0.6276 -0.6039  0.3864
14588TIP3    H165179   6.527   3.428   0.745 -0.1936 -0.1213 -0.4174
14588TIP3    H265180   6.608   3.328   0.664  0.3698 -0.2188  0.2618
14589TIP3   OH265181   4.294   4.580   4.294 -0.2697  0.0071 -0.1082
14589TIP3    H165182   4.374   4.530   4.310  1.1687  2.2087 -0.0173
14589TIP3    H265183   4.290   4.588   4.198  0.9743  1.8571 -0.0550
14590TIP3   OH265184   6.183   1.082  12.300 -0.0843  0.5189 -0.8427
14590TIP3    H165185   6.126   1.146  12.257 -0.6955 -0.5125 -1.6483
14590TIP3    H265186   6.146   0.997  12.274  0.9292 -0.1599 -0.1330
14591TIP3   OH265187   1.085   6.070   2.857  0.1078  0.3929 -0.1445
14591TIP3    H165188   1.007   6.015   2.858  0.1342  0.3619  0.6281
14591TIP3    H265189   1.122   6.062   2.945  0.8510  0.5941 -0.4264
14592TIP3   OH265190   0.721   2.093   2.993  0.0708  0.5963 -0.5374
14592TIP3    H165191   0.732   2.188   3.001  0.5192  0.4319  1.2083
14592TIP3    H265192   0.750   2.058   3.077 -1.2228 -1.0041 -0.7045
14593TIP3   OH265193   6.105   4.098   0.284  0.2172  0.1162 -0.3140
14593TIP3    H165194   6.123   4.128   0.195 -0.4726  1.3006 -0.0894
14593TIP3    H265195   6.104   4.179   0.336 -0.9165 -0.3784  0.4818
14594TIP3   OH265196   4.312   6.406   0.850 -0.0066  0.3559 -0.2127
14594TIP3    H165197   4.254   6.413   0.927  0.3047 -0.0932  0.0644
14594TIP3    H265198   4.349   6.319   0.856 -1.0898 -0.2365 -1.6925
14595TIP3   OH265199   3.421   5.273   3.853  0.6117 -0.2853 -0.3125
14595TIP3    H165200   3.358   5.224   3.905  0.4188  0.8537  0.5719
14595TIP3    H265201   3.505   5.262   3.897  0.6624 -0.2195 -0.3904
14596TIP3   OH265202   2.615   3.568   4.608 -0.1339  0.6700  0.2788
14596TIP3    H165203   2.686   3.561   4.544 -1.0152  1.8110 -0.8741
14596TIP3    H265204   2.623   3.657   4.642 -2.6017  1.8550 -1.8991
14597TIP3   OH265205   3.275   5.501   6.054 -0.2945  0.1675 -0.1861
14597TIP3    H165206   3.220   5.474   6.128  0.6747 -1.2212  0.0763
14597TIP3    H265207   3.358   5.526   6.094 -1.0341  3.4306 -0.4532
14598TIP3   OH265208   1.783   3.127   1.862 -0.0112  0.6447  0.8209
14598TIP3    H165209   1.695   3.165   1.861  0.7311  2.5075  1.2402
14598TIP3    H265210   1.832   3.180   1.799  0.9214 -0.0735  0.9246
14599TIP3   OH265211   2.754   3.620   3.202 -0.3541  0.0374 -0.6501
14599TIP3    H165212   2.774   3.573   3.283 -1.7309 -0.2392 -0.4343
14599TIP3    H265213   2.772   3.712   3.223  0.8782 -0.2065 -0.5742
14600TIP3   OH265214   5.097   0.420   6.163 -0.3864 -0.5421 -0.3485
14600TIP3    H165215   5.007   0.388   6.171 -0.8239  0.7482  0.1658
14600TIP3    H265216   5.090   0.515   6.175  0.9972 -0.3728 -0.7033
14601TIP3   OH265217   5.629   0.474   1.399  0.1847  0.1586 -0.7726
14601TIP3    H165218   5.613   0.380   1.400  0.1158  0.1730  0.0960
14601TIP3    H265219   5.569   0.508   1.333  1.0563 -0.5446 -1.9738
14602TIP3   OH265220   2.369   5.123   3.171  0.1190  0.1388  0.1629
14602TIP3    H165221   2.343   5.050   3.115 -1.1385  0.7514 -0.1032
14602TIP3    H265222   2.380   5.084   3.258  0.2200 -0.4942 -0.1268
14603TIP3   OH265223   5.569   1.863  13.930  0.2735  0.1625 -0.0409
14603TIP3    H165224   5.610   1.881  14.015 -0.3101  0.3719  0.2019
14603TIP3    H265225   5.613   1.784  13.898 -0.7707 -1.0364  1.3273
14604TIP3   OH265226   0.230   1.136  13.037  0.4853 -0.4975  0.2331
14604TIP3    H165227   0.283   1.066  13.000  0.8067 -0.0915 -0.0837
14604TIP3    H265228   0.139   1.110  13.021  0.6161 -0.5575 -0.4030
14605TIP3   OH265229   0.367   4.215   4.998  0.3697 -0.2576 -0.5887
14605TIP3    H165230   0.409   4.246   5.079 -0.2880 -3.3074  1.0756
14605TIP3    H265231   0.370   4.290   4.939  1.6948  1.8420  1.9483
14606TIP3   OH265232   1.721   6.599  13.935  0.0249  0.5999 -0.3711
14606TIP3    H165233   1.644   6.542  13.927  2.4001 -3.1667  1.1349
14606TIP3    H265234   1.703   6.651  14.013 -1.3800  0.4993 -0.5931
14607TIP3   OH265235   0.655   6.341   5.330  0.1668 -0.1980  0.3548
14607TIP3    H165236   0.607   6.381   5.402  1.2612 -0.4509  1.2584
14607TIP3    H265237   0.629   6.391   5.253 -1.1175  0.0034  0.8968
14608TIP3   OH265238   3.413   3.931  13.379  0.2046  0.2185  0.9467
14608TIP3    H165239   3.469   4.000  13.415  1.6996 -0.7351  0.5547
14608TIP3    H265240   3.457   3.906  13.298  1.0196 -2.7612  2.1920
14609TIP3   OH265241   4.742   0.275   4.038  0.3095  0.1924  0.3046
14609TIP3    H165242   4.726   0.182   4.054  0.6241  0.3481  1.6615
14609TIP3    H265243   4.831   0.290   4.068  0.0513  1.0571  0.6766
14610TIP3   OH265244   3.894   1.995  11.270  0.0887 -0.1877  0.2446
14610TIP3    H165245   3.850   1.998  11.355  0.0729  0.1679  0.2250
14610TIP3    H265246   3.920   2.085  11.253  1.9613 -0.5806  0.8401
14611TIP3   OH265247   4.733   2.167   1.034 -0.2140  0.6584 -0.1403
14611TIP3    H165248   4.779   2.119   0.966  0.4874  1.5926 -0.3448
14611TIP3    H265249   4.643   2.134   1.030 -0.3904  1.2340 -2.0662
14612TIP3   OH265250   1.458   4.775   4.699 -0.2304 -0.3687  0.4706
14612TIP3    H165251   1.553   4.776   4.711 -0.4062  0.6696  1.9775
14612TIP3    H265252   1.443   4.834   4.625  0.2806 -0.5449  0.2188
14613TIP3   OH265253   4.560   5.270   2.177  0.6516  0.2040  0.1534
14613TIP3    H165254   4.481   5.260   2.231  0.3358  1.4650 -0.0378
14613TIP3    H265255   4.621   5.205   2.213  0.3200  0.7334  1.7967
14614TIP3   OH265256   0.209   4.907  10.806 -0.9571 -0.2875  0.0931
14614TIP3    H165257   0.228   4.930  10.897  0.5313 -0.1403 -0.2336
14614TIP3    H265258   0.215   4.990  10.759 -1.3850 -0.4214 -0.1980
14615TIP3   OH265259   4.819   3.748   3.283 -0.5891 -0.5830  0.3230
14615TIP3    H165260   4.777   3.791   3.357  0.8077  1.1325  0.1893
14615TIP3    H265261   4.830   3.817   3.218  1.2120 -1.2555 -0.1488
14616TIP3   OH265262   5.170   6.318  12.077  0.0568 -0.4624  0.3572
14616TIP3    H165263   5.263   6.296  12.086 -0.1497 -0.7971  1.8914
14616TIP3    H265264   5.150   6.372  12.153 -0.6722  0.8845 -0.7381
14617TIP3   OH265265   0.492   5.026  15.091 -0.4640 -0.4844 -0.4497
14617TIP3    H165266   0.582   5.057  15.101 -0.2335 -0.8923 -1.1630
14617TIP3    H265267   0.482   4.958  15.157 -0.7621  0.6266  0.6791
14618TIP3   OH265268   3.387   1.122   2.351 -0.2521 -0.2882 -0.0563
14618TIP3    H165269   3.462   1.085   2.396  0.4026  0.8541 -0.1722
14618TIP3    H265270   3.393   1.216   2.367 -0.4407  0.0691 -1.8251
14619TIP3   OH265271   4.397   6.690   1.151 -0.4867  0.6075 -0.0672
14619TIP3    H165272   4.302   6.691   1.135 -0.5866 -0.1721  0.4585
14619TIP3    H265273   4.414   6.606   1.192  0.0767  1.6627  2.0061
14620TIP3   OH265274   1.502   2.126  13.513 -0.2792 -0.3384 -0.1949
14620TIP3    H165275   1.549   2.085  13.440 -1.1620  3.1221 -2.9964
14620TIP3    H265276   1.569   2.175  13.560 -0.2236  0.4105 -1.0232
14621TIP3   OH265277   6.250   4.732   5.076 -0.3273 -0.1924 -0.0283
14621TIP3    H165278   6.210   4.758   4.993  0.9533  0.4311 -0.4738
14621TIP3    H265279   6.234   4.638   5.082 -0.4055 -0.2498 -0.9989
14622TIP3   OH265280   1.865   1.784   3.445 -0.4774  0.3153  0.0866
14622TIP3    H165281   1.800   1.851   3.466  0.6784  1.9352 -1.2396
14622TIP3    H265282   1.859   1.774   3.350  0.9715  0.2229 -0.0037
14623TIP3   OH265283   4.563   1.247  10.331 -0.3719 -0.1305 -0.3957
14623TIP3    H165284   4.564   1.305  10.407  1.3869 -1.1390  0.4225
14623TIP3    H265285   4.655   1.242  10.304 -0.5962 -1.7881 -0.9824
14624TIP3   OH265286   1.170   6.381   0.958  0.1891 -0.1737 -0.2583
14624TIP3    H165287   1.167   6.286   0.958 -1.2923 -0.1639 -1.2986
14624TIP3    H265288   1.146   6.406   0.869 -1.9064  1.1831  0.5992
14625TIP3   OH265289   0.098   0.968   3.273 -0.4232  0.1392  0.4341
14625TIP3    H165290   0.150   1.033   3.320 -1.7771  1.9237 -0.4252
14625TIP3    H265291   0.035   0.936   3.337 -0.3768  0.3909  0.6046
14626TIP3   OH265292   4.246   0.501   1.494  0.0651  0.0774 -0.0432
14626TIP3    H165293   4.294   0.461   1.567  0.3159  1.1809  0.4312
14626TIP3    H265294   4.299   0.483   1.417 -0.3526 -1.3650 -0.0170
14627TIP3   OH265295   4.337   1.501   3.272 -0.2665  0.2683  0.3587
14627TIP3    H165296   4.321   1.408   3.284  0.6403  0.1909  1.0915
14627TIP3    H265297   4.404   1.523   3.337  1.4166  0.8633 -1.4469
14628TIP3   OH265298   6.523   3.651   2.907  0.3847  0.4866  0.6690
14628TIP3    H165299   6.474   3.709   2.966  0.7239  0.8538  0.5916
14628TIP3    H265300   6.606   3.636   2.952  0.4672  0.4075  0.4897
14629TIP3   OH265301   0.697   0.564   3.243 -0.4830  0.1174 -0.1673
14629TIP3    H165302   0.663   0.616   3.316  0.1340 -1.8279  1.6153
14629TIP3    H265303   0.630   0.497   3.228 -0.3807  0.2074 -1.0736
14630TIP3   OH265304   0.558   0.267  12.068  0.0443 -0.1609  0.3796
14630TIP3    H165305   0.630   0.216  12.104 -0.3496 -0.2856  1.0152
14630TIP3    H265306   0.576   0.272  11.974  0.9372 -0.0839  0.5524
14631TIP3   OH265307   2.231   1.272  14.512  0.1451 -0.3050  0.4239
14631TIP3    H165308   2.226   1.179  14.534  1.7974 -0.3930  0.5597
14631TIP3    H265309   2.314   1.301  14.550 -0.7347  1.4413  1.1006
14632TIP3   OH265310   5.060   6.020   3.588  0.3785  0.2055 -0.4085
14632TIP3    H165311   4.988   6.054   3.534  1.3595  0.4435 -1.6356
14632TIP3    H265312   5.116   6.097   3.603  0.7731 -0.1346 -0.1311
14633TIP3   OH265313   0.688   5.365   0.883  0.3080 -0.4237 -0.0822
14633TIP3    H165314   0.758   5.331   0.940  1.0731 -0.0823 -0.7915
14633TIP3    H265315   0.620   5.298   0.887  0.8901 -1.0174  0.2357
14634TIP3   OH265316   0.557   4.730   3.176  0.5875  0.0367 -0.1288
14634TIP3    H165317   0.605   4.712   3.257  1.4479  1.7419 -0.2009
14634TIP3    H265318   0.555   4.646   3.129  0.0197 -0.9906  1.6526
14635TIP3   OH265319   3.774   1.566   1.064  0.3308  0.4015 -0.2359
14635TIP3    H165320   3.781   1.515   1.145 -1.2123  0.4094 -0.0613
14635TIP3    H265321   3.765   1.499   0.995 -2.0362  0.3426  0.0278
14636TIP3   OH265322   6.316   5.910   1.683  0.4837 -0.2197 -0.0874
14636TIP3    H165323   6.342   5.820   1.661  1.5839  0.2156 -0.6139
14636TIP3    H265324   6.361   5.929   1.765 -0.3700 -0.4084  0.4368
14637TIP3   OH265325   1.566   1.761  14.137 -0.0907 -0.1543 -0.2761
14637TIP3    H165326   1.599   1.742  14.224 -1.0783  0.1017  0.1726
14637TIP3    H265327   1.589   1.684  14.085  0.3998 -0.3606  0.2413
14638TIP3   OH265328   0.247   2.262  14.301  0.1931  0.2325  0.8637
14638TIP3    H165329   0.216   2.216  14.379 -0.5165 -0.7228  0.0496
14638TIP3    H265330   0.206   2.348  14.306 -2.8609 -1.0162 -0.2389
14639TIP3   OH265331   3.485   0.712   2.550 -0.3512  0.5302  0.1354
14639TIP3    H165332   3.409   0.753   2.507 -0.2832  0.2113 -0.2949
14639TIP3    H265333   3.540   0.683   2.477 -0.2038  0.0395  0.4434
14640TIP3   OH265334   5.919   3.110  16.581 -0.0027 -0.0007  0.3807
14640TIP3    H165335   5.848   3.111  16.517 -0.1878 -0.3977  0.5762
14640TIP3    H265336   5.961   3.024  16.570 -0.5020 -0.3744  1.2832
14641TIP3   OH265337   5.203   5.081   5.474  0.0222  0.3888  0.1233
14641TIP3    H165338   5.245   5.106   5.392 -1.9345  1.1827 -0.7166
14641TIP3    H265339   5.111   5.104   5.461 -0.6552 -1.0776  1.9100
14642TIP3   OH265340   0.835   5.220   4.522 -0.2490 -0.0517 -0.4578
14642TIP3    H165341   0.869   5.210   4.611 -0.8435 -0.8013 -0.3126
14642TIP3    H265342   0.740   5.220   4.532 -0.3761 -1.8689 -1.2516
14643TIP3   OH265343   1.129   1.089   1.391  0.3819  0.2403  0.1931
14643TIP3    H165344   1.111   1.134   1.309 -0.1023 -0.8857 -0.3515
14643TIP3    H265345   1.060   1.120   1.451  1.0976  1.5211  0.3826
14644TIP3   OH265346   4.522   5.833  15.374 -0.2403 -0.2540 -0.0056
14644TIP3    H165347   4.583   5.894  15.417  1.4341 -1.5553 -0.4623
14644TIP3    H265348   4.466   5.890  15.321  0.9305  0.9461 -0.0137
14645TIP3   OH265349   4.558   4.034  16.010  0.3017 -0.4844  0.0201
14645TIP3    H165350   4.618   4.047  15.937 -1.3127 -0.2887 -1.3245
14645TIP3    H265351   4.589   4.093  16.078  0.9473  0.4862 -1.0813
14646TIP3   OH265352   6.769   0.376  16.440 -0.3044 -0.5120 -0.0444
14646TIP3    H165353   6.697   0.336  16.488 -0.7132  1.1208  0.7757
14646TIP3    H265354   6.846   0.325  16.465 -1.0392 -1.8457 -0.4018
14647TIP3   OH265355   4.189   1.869  14.238  0.3144 -0.5209  0.1173
14647TIP3    H165356   4.164   1.944  14.292  0.1453  0.2424 -0.9884
14647TIP3    H265357   4.150   1.887  14.153  1.2901 -1.2716 -0.5083
14648TIP3   OH265358   0.686   2.527  12.539  0.2424 -0.2768  0.2011
14648TIP3    H165359   0.642   2.455  12.584 -1.0348  0.1902 -0.2460
14648TIP3    H265360   0.772   2.491  12.516 -1.2180 -2.6037 -2.2605
14649TIP3   OH265361   6.014   5.634   4.408  0.0644 -0.3350  0.9831
14649TIP3    H165362   6.089   5.618   4.350  1.5558  0.0875  2.7122
14649TIP3    H265363   5.953   5.563   4.388  1.3811 -1.3216  0.2688
14650TIP3   OH265364   0.997   4.636   2.396 -0.5832  0.0363  0.3864
14650TIP3    H165365   0.974   4.712   2.342  0.7532 -0.0023 -0.2548
14650TIP3    H265366   0.931   4.570   2.373  0.0123 -0.0223 -1.3052
14651TIP3   OH265367   5.336   2.209  14.026 -0.2194  0.1233  0.0766
14651TIP3    H165368   5.399   2.165  13.970  0.1205 -0.1438  0.6617
14651TIP3    H265369   5.274   2.249  13.965  0.7905  0.8193 -0.5221
14652TIP3   OH265370   1.401   1.928   5.353  0.2358 -0.2024 -0.2104
14652TIP3    H165371   1.380   1.978   5.431  2.8968  0.3121  0.2702
14652TIP3    H265372   1.413   1.994   5.284  0.7346 -0.4083 -0.3277
14653TIP3   OH265373   3.506   4.589   2.359 -0.0553 -0.5920  0.3409
14653TIP3    H165374   3.467   4.517   2.410 -0.6457 -1.1460 -0.8558
14653TIP3    H265375   3.514   4.554   2.270 -0.1194  0.7450 -0.2142
14654TIP3   OH265376   4.506   0.549  12.880 -0.0110  0.1016  0.4188
14654TIP3    H165377   4.418   0.568  12.847 -0.2929  1.0347  1.6572
14654TIP3    H265378   4.530   0.467  12.836 -0.8799  0.6005 -1.0657
14655TIP3   OH265379   4.430   6.622   4.213 -0.0207 -0.3125  0.1467
14655TIP3    H165380   4.349   6.620   4.162 -0.5504 -0.9951  1.0001
14655TIP3    H265381   4.492   6.570   4.161 -0.0333  0.4222 -0.6326
14656TIP3   OH265382   3.446   5.795   2.048  0.0576 -0.7861  0.7298
14656TIP3    H165383   3.386   5.803   1.974  0.3992 -0.5281  0.4801
14656TIP3    H265384   3.399   5.835   2.121 -0.6785 -1.9002  0.8943
14657TIP3   OH265385   5.693   4.402  14.278 -0.0919 -0.3138 -0.6338
14657TIP3    H165386   5.685   4.323  14.225 -0.5963 -1.0924  0.5303
14657TIP3    H265387   5.657   4.472  14.224  0.1845 -0.9228 -1.6159
14658TIP3   OH265388   6.423   2.519  16.943  0.8724 -0.1047 -0.2162
14658TIP3    H165389   6.394   2.592  16.998  0.7282 -1.2720  1.3139
14658TIP3    H265390   6.389   2.441  16.986 -1.2705 -1.0096 -3.2488
14659TIP3   OH265391   3.148   3.348   4.850  0.3676  0.1364  0.3602
14659TIP3    H165392   3.102   3.306   4.923 -2.2793  0.1320 -1.1787
14659TIP3    H265393   3.199   3.278   4.810 -0.1434 -0.4623  0.7353
14660TIP3   OH265394   0.530   3.267  14.491 -0.0968  0.1317 -0.3275
14660TIP3    H165395   0.524   3.360  14.468 -0.5473 -0.0698 -1.0753
14660TIP3    H265396   0.457   3.252  14.551  1.0726  0.6586  1.2825
14661TIP3   OH265397   4.182   3.831  13.358 -0.4982  0.8877 -0.4933
14661TIP3    H165398   4.260   3.827  13.414 -1.2185  0.5458  0.5046
14661TIP3    H265399   4.144   3.744  13.363 -1.1478  1.1552 -0.6737
14662TIP3   OH265400   4.380   3.850   0.943 -0.2800  0.1874 -0.4964
14662TIP3    H165401   4.364   3.768   0.897 -2.3063  1.0868 -1.5406
14662TIP3    H265402   4.293   3.883   0.965  0.4468  2.1464 -0.2883
14663TIP3   OH265403   4.306   5.692   3.840  0.0551  0.0110  0.1256
14663TIP3    H165404   4.235   5.754   3.824  0.3306  0.0843 -0.9108
14663TIP3    H265405   4.288   5.657   3.927 -0.4659  1.0587  0.4535
14664TIP3   OH265406   4.391   1.145   4.042 -0.7413  0.7078  0.3152
14664TIP3    H165407   4.319   1.085   4.024 -0.6391  0.9494 -0.9953
14664TIP3    H265408   4.456   1.125   3.974 -0.6661  2.2217 -0.0880
14665TIP3   OH265409   2.953   3.594   0.640 -0.3666  0.2300  0.0059
14665TIP3    H165410   2.989   3.528   0.700  0.5606  2.5965  2.2281
14665TIP3    H265411   2.972   3.560   0.553  3.5510 -0.6821  1.0471
14666TIP3   OH265412   0.794   3.071   5.211 -0.3233  0.4551 -0.7007
14666TIP3    H165413   0.847   3.083   5.290  0.2943 -0.8866 -0.8877
14666TIP3    H265414   0.778   3.160   5.180 -0.9806  1.0452  1.1767
14667TIP3   OH265415   4.457   2.281  13.136  0.7394 -0.2510 -0.2801
14667TIP3    H165416   4.503   2.209  13.093  0.8410 -0.8342  0.7530
14667TIP3    H265417   4.472   2.266  13.229  0.0187  0.6134 -0.0087
14668TIP3   OH265418   3.734   3.202  15.797  0.2687 -0.2771  0.7535
14668TIP3    H165419   3.672   3.218  15.726  0.2708 -1.1768  0.5470
14668TIP3    H265420   3.681   3.168  15.868  0.3760 -0.0403  0.9514
14669TIP3   OH265421   3.132   4.021   3.579  0.0091 -0.1586 -0.0287
14669TIP3    H165422   3.090   3.935   3.591  1.4792 -0.8236  0.6718
14669TIP3    H265423   3.121   4.064   3.664  1.1420 -0.5455  0.3301
14670TIP3   OH265424   1.232   0.830  14.641 -0.2944 -0.2104  0.1055
14670TIP3    H165425   1.283   0.769  14.695 -1.7009 -1.1684  0.4097
14670TIP3    H265426   1.216   0.904  14.698  0.1701 -0.1988  0.2301
14671TIP3   OH265427   3.005   5.011   4.099 -0.2689  0.2010  0.0499
14671TIP3    H165428   2.931   4.987   4.044  0.5452 -0.8283 -0.6305
14671TIP3    H265429   2.972   5.000   4.189 -0.8629 -0.5231 -0.2443
14672TIP3   OH265430   4.219   0.676   0.213 -0.1749 -0.2054  0.6408
14672TIP3    H165431   4.151   0.653   0.276 -1.0223  1.4509  0.3880
14672TIP3    H265432   4.301   0.656   0.258 -0.7927 -1.2833  1.3379
14673TIP3   OH265433   4.380   6.679  11.826  0.1133 -0.1208 -1.1512
14673TIP3    H165434   4.395   6.770  11.801 -0.7723  1.1051  2.3023
14673TIP3    H265435   4.284   6.669  11.823  0.0896 -0.3866  0.0625
14674TIP3   OH265436   6.401   1.920  16.165  0.1119 -0.1951  0.0763
14674TIP3    H165437   6.418   1.926  16.259  0.7190  0.3896 -0.0614
14674TIP3    H265438   6.483   1.888  16.127 -0.8889 -2.9369 -0.0109
14675TIP3   OH265439   2.939   1.821  13.530 -0.2724 -0.0156  0.7524
14675TIP3    H165440   3.006   1.832  13.463  1.4182 -0.2101  2.3529
14675TIP3    H265441   2.895   1.739  13.507  1.0778 -0.6974  0.5421
14676TIP3   OH265442   5.331   0.969  11.191  0.2352 -0.1950 -0.3538
14676TIP3    H165443   5.335   0.996  11.283 -0.0596 -1.6908  0.1348
14676TIP3    H265444   5.267   0.897  11.191 -0.3373  0.2810 -1.8705
14677TIP3   OH265445   1.942   5.542   4.246  0.7318 -0.0489  0.6672
14677TIP3    H165446   1.924   5.628   4.285 -0.4658  0.9067 -1.7990
14677TIP3    H265447   1.982   5.562   4.161 -1.3120 -1.8336 -0.8103
14678TIP3   OH265448   0.232   3.810   1.351  0.6642 -0.3520 -0.0335
14678TIP3    H165449   0.153   3.813   1.299  0.9670  0.3182 -0.4660
14678TIP3    H265450   0.300   3.778   1.291  1.3108  1.7217 -0.4852
14679TIP3   OH265451   0.478   0.628  10.756 -0.1952 -0.2847  0.2606
14679TIP3    H165452   0.495   0.647  10.664 -0.2893  1.2477  0.5289
14679TIP3    H265453   0.487   0.533  10.763  1.5388 -0.2682 -0.9751
14680TIP3   OH265454   4.547   4.168   5.090  0.3273 -0.1952  0.0300
14680TIP3    H165455   4.531   4.148   5.182 -0.0431 -0.8245 -0.1662
14680TIP3    H265456   4.524   4.088   5.043  1.1427 -0.1093 -0.5542
14681TIP3   OH265457   3.267   4.430  15.769 -0.6058  0.0047  0.0698
14681TIP3    H165458   3.348   4.419  15.721  0.1293  1.1322  0.9755
14681TIP3    H265459   3.223   4.503  15.726 -0.3429  0.4671  0.5676
14682TIP3   OH265460   3.946   6.499   3.726  0.9120  0.1565  0.0991
14682TIP3    H165461   3.923   6.479   3.636  0.6446  1.6570 -0.2043
14682TIP3    H265462   3.921   6.421   3.776 -2.2171  0.5669 -0.6252
14683TIP3   OH265463   4.083   0.561   4.172  0.5148 -0.4439 -0.0587
14683TIP3    H165464   4.113   0.500   4.105 -0.4631 -0.9512 -0.0644
14683TIP3    H265465   4.061   0.505   4.247 -1.7297 -0.3067 -0.5389
14684TIP3   OH265466   4.709   1.496  13.581  1.0810 -0.2145  0.5687
14684TIP3    H165467   4.640   1.533  13.636  0.7834  0.4860 -0.2449
14684TIP3    H265468   4.678   1.510  13.491  0.7661 -2.8142  0.1921
14685TIP3   OH265469   3.358   3.610  16.247 -0.2510 -0.1056  0.1509
14685TIP3    H165470   3.367   3.699  16.279 -1.2377  0.0871 -0.0638
14685TIP3    H265471   3.391   3.613  16.157 -1.7940  0.4527 -0.4375
14686TIP3   OH265472   1.113   1.309   3.292 -0.2475  0.2586  0.5537
14686TIP3    H165473   1.051   1.340   3.226 -1.6650  1.8211  2.4889
14686TIP3    H265474   1.093   1.216   3.303  0.5909 -0.2664 -1.7096
14687TIP3   OH265475   3.496   2.294   2.507  0.1956 -0.1001  0.2363
14687TIP3    H165476   3.410   2.259   2.482 -0.5295  1.0251  1.0370
14687TIP3    H265477   3.559   2.232   2.470 -0.8811 -0.0018 -1.9083
14688TIP3   OH265478   2.270   1.210   0.899 -0.3141 -0.1203 -0.7089
14688TIP3    H165479   2.322   1.286   0.924  0.0937 -0.5081 -0.3691
14688TIP3    H265480   2.312   1.136   0.944 -2.7380 -0.1021  1.9237
14689TIP3   OH265481   4.748   5.740  14.600 -0.0500 -0.1118 -0.0991
14689TIP3    H165482   4.709   5.689  14.671 -0.1675 -1.2368 -0.9285
14689TIP3    H265483   4.769   5.825  14.639  0.0899 -0.7715  1.3174
14690TIP3   OH265484   1.494   0.373   1.634  0.2054 -0.1815  0.0755
14690TIP3    H165485   1.546   0.391   1.712 -0.1892 -1.9609  0.7836
14690TIP3    H265486   1.408   0.347   1.667  0.1713 -1.4202 -0.8955
14691TIP3   OH265487   0.652   0.924   4.121 -0.6888 -0.1210 -0.1646
14691TIP3    H165488   0.635   0.873   4.200 -3.6963  0.8262 -0.0929
14691TIP3    H265489   0.663   0.858   4.052 -4.2848 -1.0679 -0.0338
14692TIP3   OH265490   6.703   1.132   2.408  0.4401  0.4720  0.0637
14692TIP3    H165491   6.656   1.096   2.483  1.0360 -0.8223 -0.1543
14692TIP3    H265492   6.771   1.188   2.447  0.8311 -0.2922  0.5090
14693TIP3   OH265493   4.701   5.458  15.675  0.3810  0.2806  0.0001
14693TIP3    H165494   4.789   5.495  15.682 -0.0450  1.6233 -1.1848
14693TIP3    H265495   4.715   5.368  15.647  1.3724  0.7475 -1.1075
14694TIP3   OH265496   1.357   0.837  15.894 -0.1986  0.2455 -0.0037
14694TIP3    H165497   1.400   0.916  15.862  0.7180  0.3807  1.4651
14694TIP3    H265498   1.267   0.863  15.910 -0.6001  0.2627 -2.0290
14695TIP3   OH265499   5.697   0.818   1.778 -0.2365 -0.6118  0.2805
14695TIP3    H165500   5.775   0.824   1.723 -0.1857 -2.8612  0.0302
14695TIP3    H265501   5.625   0.812   1.715 -0.4895  0.0389  0.5032
14696TIP3   OH265502   4.369   2.702  10.914 -0.2028  0.1496  0.0150
14696TIP3    H165503   4.286   2.660  10.937 -0.0499  0.3444  0.9857
14696TIP3    H265504   4.350   2.795  10.908 -0.3077  0.0734 -1.0295
14697TIP3   OH265505   5.374   2.933  16.694  0.1186 -0.0138 -1.3828
14697TIP3    H165506   5.285   2.907  16.718  0.8860 -0.0979  1.8148
14697TIP3    H265507   5.373   3.029  16.697  0.7354 -0.0225  1.6168
14698TIP3   OH265508   3.208   6.448  14.102 -0.1610  0.0172  0.0820
14698TIP3    H165509   3.234   6.521  14.158  0.3440  1.2948 -1.7209
14698TIP3    H265510   3.164   6.490  14.028  1.1298 -1.3791 -1.5566
14699TIP3   OH265511   1.890   6.324  11.752  0.1988  0.1047  0.4070
14699TIP3    H165512   1.882   6.367  11.667 -1.1312  0.7860  0.8701
14699TIP3    H265513   1.821   6.362  11.806 -0.1295 -1.6010  1.2549
14700TIP3   OH265514   0.094   2.529   5.714  0.1417  0.4468 -0.3885
14700TIP3    H165515   0.029   2.460   5.705  2.2620 -1.4837 -2.1217
14700TIP3    H265516   0.102   2.542   5.809  1.4440 -3.6469  0.2576
14701TIP3   OH265517   4.774   2.891  16.845 -0.0417  0.3035 -0.3173
14701TIP3    H165518   4.763   2.891  16.750 -0.8821  0.4240 -0.2237
14701TIP3    H265519   4.694   2.852  16.879 -0.7198  2.2422  0.4285
14702TIP3   OH265520   6.206   1.326   5.548  0.0950  0.2237  0.0825
14702TIP3    H165521   6.174   1.241   5.517  1.6420 -0.0294 -0.9459
14702TIP3    H265522   6.176   1.332   5.639  0.3124 -1.5970  0.2948
14703TIP3   OH265523   4.156   5.811   2.709  0.4254  0.2043  0.3860
14703TIP3    H165524   4.238   5.841   2.670  0.5016 -0.9572 -0.4068
14703TIP3    H265525   4.108   5.891   2.728  0.6242  0.8399 -1.6091
14704TIP3   OH265526   0.984   2.083  12.008  0.2255  0.1012  0.1360
14704TIP3    H165527   1.049   2.122  11.950 -0.0863  1.2703  0.5368
14704TIP3    H265528   0.907   2.139  11.999 -0.4620 -0.7881  0.2789
14705TIP3   OH265529   2.982   3.874   0.499  0.4952  0.1424 -0.5066
14705TIP3    H165530   3.077   3.880   0.484  0.5634  0.9382  0.1424
14705TIP3    H265531   2.961   3.955   0.546 -0.5650  0.1202 -0.9251
14706TIP3   OH265532   6.146   1.057   5.437  0.2364  0.0281  0.5185
14706TIP3    H165533   6.144   0.964   5.416 -1.9800 -0.4085  2.2978
14706TIP3    H265534   6.104   1.100   5.362  0.7265 -0.4621 -0.0394
14707TIP3   OH265535   3.487   3.066  15.123 -0.4660 -0.5774 -0.6892
14707TIP3    H165536   3.580   3.063  15.102 -0.2922  0.7641 -0.1667
14707TIP3    H265537   3.471   3.156  15.151 -1.2540 -1.5040  2.1727
14708TIP3   OH265538   6.155   1.590  11.852 -0.7154 -0.1365  0.3722
14708TIP3    H165539   6.112   1.662  11.898 -2.3006 -0.9390  0.2396
14708TIP3    H265540   6.248   1.610  11.857 -1.0790  1.6170  0.8264
14709TIP3   OH265541   5.404   3.000  11.028  0.1019 -0.3183 -0.7659
14709TIP3    H165542   5.412   2.935  11.098  1.0164 -0.0115 -0.5796
14709TIP3    H265543   5.487   3.047  11.028 -0.5618  0.8937 -0.8746
14710TIP3   OH265544   4.302   5.984  15.776 -0.1903  0.4362  0.3875
14710TIP3    H165545   4.212   5.963  15.802  0.2069 -0.3966  1.1546
14710TIP3    H265546   4.318   5.930  15.699  0.5194 -1.4820  1.8164
14711TIP3   OH265547   6.205   0.504   5.708  0.2931 -0.0396 -0.1229
14711TIP3    H165548   6.252   0.422   5.723  2.8941  1.3297 -0.2805
14711TIP3    H265549   6.153   0.517   5.787  4.4379  1.0209  2.7518
14712TIP3   OH265550   0.957   3.669  13.759 -0.0369 -0.2836 -0.5074
14712TIP3    H165551   1.041   3.635  13.790  0.4205  1.8321  0.8081
14712TIP3    H265552   0.904   3.591  13.741  1.3810 -1.6692  1.0005
14713TIP3   OH265553   1.576   4.309  13.244 -0.1329  0.3288  0.1665
14713TIP3    H165554   1.660   4.342  13.276 -0.0954  0.6204 -0.2307
14713TIP3    H265555   1.527   4.287  13.324 -0.8775  3.1051  0.5657
14714TIP3   OH265556   2.660   5.899  16.898  0.4744 -0.5293  0.2512
14714TIP3    H165557   2.693   5.811  16.917  1.6932  0.2163  1.8559
14714TIP3    H265558   2.565   5.890  16.899  0.5711 -2.0792 -1.0272
14715TIP3   OH265559   1.194   2.065   4.669  0.0704  0.0514 -0.0377
14715TIP3    H165560   1.135   2.014   4.725 -0.2202  0.8694  0.4132
14715TIP3    H265561   1.155   2.152   4.665  1.0849  0.5269  0.0263
14716TIP3   OH265562   0.950   5.710   1.255  0.2496 -0.4100  0.3577
14716TIP3    H165563   0.898   5.632   1.234 -0.6551  0.6008 -1.4648
14716TIP3    H265564   1.000   5.727   1.175 -0.1914  1.3207  0.4167
14717TIP3   OH265565   4.418   3.012   1.684  0.0765  0.2166 -0.0609
14717TIP3    H165566   4.363   3.031   1.760  1.2976 -0.6960  1.1043
14717TIP3    H265567   4.405   2.918   1.668 -0.3293  0.4456 -1.1259
14718TIP3   OH265568   0.141   5.922  15.772 -0.4910  0.6858 -0.8314
14718TIP3    H165569   0.142   5.993  15.837 -0.9664  1.3080 -1.4826
14718TIP3    H265570   0.218   5.938  15.718  0.0585  0.0070 -0.2716
14719TIP3   OH265571   1.562   6.601   5.940 -0.4914  0.0432  0.0237
14719TIP3    H165572   1.570   6.696   5.931  0.9273 -0.0366  0.2635
14719TIP3    H265573   1.647   6.567   5.912 -0.6843 -1.1040  0.7650
14720TIP3   OH265574   3.680   2.831   5.965 -0.2602  0.1041  0.0849
14720TIP3    H165575   3.707   2.833   6.057 -0.8369 -1.3956  0.3235
14720TIP3    H265576   3.731   2.759   5.927  0.2186  0.9184 -0.8779
14721TIP3   OH265577   1.704   4.559  12.849  0.2291 -0.1977 -0.0509
14721TIP3    H165578   1.634   4.501  12.879 -1.5258  1.4682 -0.6648
14721TIP3    H265579   1.694   4.562  12.754  1.5716 -0.4313 -0.2127
14722TIP3   OH265580   2.938   0.003  16.042 -0.3157 -0.2364  0.3109
14722TIP3    H165581   3.006  -0.043  16.092 -0.8083 -0.2464  1.0002
14722TIP3    H265582   2.882   0.041  16.110  0.4594  1.9943 -0.2308
14723TIP3   OH265583   4.453   2.911  13.404 -0.3579  0.1261 -0.2382
14723TIP3    H165584   4.395   2.867  13.465 -1.0323  1.8366  0.4207
14723TIP3    H265585   4.418   2.891  13.317 -1.5836  0.6218  0.1239
14724TIP3   OH265586   2.691   3.683  12.117 -0.2490  0.0683 -0.2788
14724TIP3    H165587   2.682   3.761  12.172 -0.7819  1.5692 -2.3591
14724TIP3    H265588   2.651   3.709  12.033 -1.7668 -2.9473 -0.6074
14725TIP3   OH265589   1.982   1.979   1.700  0.4357 -0.7356  0.2199
14725TIP3    H165590   1.920   2.051   1.708  0.7251 -0.5793  1.1556
14725TIP3    H265591   1.934   1.902   1.731  0.9189 -0.4889  1.6252
14726TIP3   OH265592   2.767   1.723  13.102  0.0539  0.1369  0.2312
14726TIP3    H165593   2.706   1.780  13.147 -1.1343  0.0493 -1.1950
14726TIP3    H265594   2.825   1.783  13.054 -0.3384  0.1784 -0.1938
14727TIP3   OH265595   0.755   4.450   1.647 -0.3439  0.6062  0.1765
14727TIP3    H165596   0.676   4.482   1.692 -0.7108  0.1346 -0.1202
14727TIP3    H265597   0.766   4.361   1.681 -2.0809 -0.7378 -2.4465
14728TIP3   OH265598   2.933   3.052  13.066  0.1820  0.3912 -0.5809
14728TIP3    H165599   2.876   3.105  13.123 -1.2176 -0.7018 -0.9083
14728TIP3    H265600   2.907   3.077  12.977 -1.4552 -1.7227 -0.7693
14729TIP3   OH265601   4.599   1.326  11.915 -0.7825  0.6573 -0.4659
14729TIP3    H165602   4.582   1.233  11.926 -2.4934  1.1879  2.4258
14729TIP3    H265603   4.690   1.338  11.942 -1.4237  0.1640  2.1078
14730TIP3   OH265604   1.196   3.241   2.197  0.1372  0.0803 -0.7301
14730TIP3    H165605   1.170   3.158   2.158  1.0135  0.0567 -1.3062
14730TIP3    H265606   1.251   3.216   2.271 -3.1792  0.0585  1.9559
14731TIP3   OH265607   5.763   2.635  15.345  0.1770 -0.0635 -0.8991
14731TIP3    H165608   5.736   2.658  15.256 -1.3787  0.4039 -0.3338
14731TIP3    H265609   5.801   2.716  15.380  0.6312 -0.1998 -1.0661
14732TIP3   OH265610   3.473   1.225  14.822  0.3219  0.0357 -0.0279
14732TIP3    H165611   3.564   1.238  14.794  1.0303 -0.3708  1.9248
14732TIP3    H265612   3.480   1.168  14.899 -1.4419  1.3631  1.1939
14733TIP3   OH265613   6.332   3.983  13.758  0.4692  0.0742 -0.0558
14733TIP3    H165614   6.287   4.005  13.677 -1.3079 -0.8627  0.6131
14733TIP3    H265615   6.376   4.063  13.784 -0.6193  0.9751 -0.8907
14734TIP3   OH265616   4.795   0.938  13.809  0.4438 -0.5922  0.1297
14734TIP3    H165617   4.762   0.867  13.755  0.3164 -1.5558  1.4274
14734TIP3    H265618   4.797   1.014  13.750 -1.0547 -1.2455 -0.8379
14735TIP3   OH265619   0.021   1.087  11.846 -0.3990 -0.7896 -0.0626
14735TIP3    H165620  -0.039   1.078  11.920 -0.6319 -2.1981 -0.3940
14735TIP3    H265621  -0.035   1.077  11.769  0.0030 -0.3760 -0.4128
14736TIP3   OH265622   3.701   2.887   4.387  0.1485 -0.6513  0.3223
14736TIP3    H165623   3.747   2.952   4.440  1.6652 -1.3575 -0.0728
14736TIP3    H265624   3.661   2.827   4.450 -1.7528  0.9130  0.7110
14737TIP3   OH265625   4.770   1.312   0.915  0.2143  0.0874  0.0307
14737TIP3    H165626   4.700   1.313   0.980 -0.1398 -0.1606 -0.3407
14737TIP3    H265627   4.850   1.328   0.965 -0.1079  0.3792  0.4566
14738TIP3   OH265628   0.464   2.565   5.437 -0.3309  0.8053 -0.0170
14738TIP3    H165629   0.476   2.624   5.511  0.6889 -0.4046  0.8243
14738TIP3    H265630   0.370   2.547   5.435 -0.2658  0.1343  1.5761
14739TIP3   OH265631   0.567   4.508   6.120 -0.5265  0.6379 -0.3889
14739TIP3    H165632   0.583   4.444   6.190  0.8142  0.4803 -0.8136
14739TIP3    H265633   0.634   4.575   6.134 -2.5977  2.5742  0.7322
14740TIP3   OH265634   2.647   1.383   3.156  0.0938 -0.4971  0.2320
14740TIP3    H165635   2.685   1.450   3.100  1.2453 -1.1683  0.1812
14740TIP3    H265636   2.682   1.300   3.122  0.4065 -0.9607  1.6117
14741TIP3   OH265637   3.441   0.174   0.506  0.3788  0.6125 -0.0572
14741TIP3    H165638   3.514   0.125   0.470  0.5961  1.0252 -0.1893
14741TIP3    H265639   3.433   0.144   0.597 -1.7770 -2.2909 -1.0743
14742TIP3   OH265640   4.717   0.079  14.594 -0.2016 -0.2913  0.5422
14742TIP3    H165641   4.802   0.121  14.590  1.0675 -2.7438 -0.3915
14742TIP3    H265642   4.732  -0.001  14.645 -1.5215 -1.5534 -0.9354
14743TIP3   OH265643   4.925   5.895  10.980  0.3414  0.2077 -0.8664
14743TIP3    H165644   4.943   5.984  11.013 -0.9672 -0.5647  2.3533
14743TIP3    H265645   4.836   5.900  10.946 -0.4538 -0.2079  1.0408
14744TIP3   OH265646   3.148   4.130   5.222 -0.1504 -0.6364  0.8023
14744TIP3    H165647   3.065   4.159   5.262 -0.1243 -1.2680  1.3370
14744TIP3    H265648   3.210   4.131   5.295  0.1258 -0.9090  0.5672
14745TIP3   OH265649   1.479   6.755  16.787 -0.3095  0.1108  0.0461
14745TIP3    H165650   1.488   6.844  16.752 -1.1377  0.0018 -0.4597
14745TIP3    H265651   1.457   6.701  16.711 -0.5587 -0.4030  0.4760
14746TIP3   OH265652   1.368   4.389   5.813  0.1290 -0.1445  0.5181
14746TIP3    H165653   1.373   4.387   5.908 -2.3932  0.6733  0.7398
14746TIP3    H265654   1.276   4.406   5.794  0.9242  2.0515 -2.0183
14747TIP3   OH265655   0.229   3.164   4.061 -0.4356  0.4558 -0.3138
14747TIP3    H165656   0.220   3.225   4.135  0.0764 -0.9376  0.9560
14747TIP3    H265657   0.151   3.179   4.008 -1.2632  0.8968  0.9777
14748TIP3   OH265658   1.050   3.888  13.912 -0.0966  0.0881 -0.2441
14748TIP3    H165659   1.081   3.863  13.999 -0.0943 -0.4786 -0.4024
14748TIP3    H265660   0.997   3.814  13.883  1.2895 -0.5103 -1.4165
14749TIP3   OH265661   3.573   2.574  13.954 -0.4314 -0.2750 -0.3464
14749TIP3    H165662   3.609   2.566  14.043  0.2469 -1.6395 -0.7156
14749TIP3    H265663   3.524   2.493  13.940  0.7198 -0.7826 -1.7312
14750TIP3   OH265664   5.369   4.745   4.924 -0.7037 -0.0436 -0.1397
14750TIP3    H165665   5.313   4.726   4.849 -1.4101  0.3852  0.2664
14750TIP3    H265666   5.437   4.678   4.921 -0.8108 -0.1158 -1.0733
14751TIP3   OH265667   4.755   1.557  11.600 -0.2751 -0.0437  0.1601
14751TIP3    H165668   4.692   1.597  11.660 -0.9460  0.7565 -1.0420
14751TIP3    H265669   4.810   1.503  11.656  0.3112  2.0975  1.8002
14752TIP3   OH265670   4.369   3.488   3.916  0.0724  0.8380  0.2911
14752TIP3    H165671   4.435   3.434   3.959 -0.1944  0.9581  0.8575
14752TIP3    H265672   4.324   3.428   3.857  0.1371  0.5638  0.5199
14753TIP3   OH265673   4.416   6.313  10.716  0.4092  0.3237  0.8256
14753TIP3    H165674   4.452   6.227  10.695 -2.9138 -1.3010  1.1473
14753TIP3    H265675   4.389   6.306  10.808 -1.4508  1.0542  0.3753
14754TIP3   OH265676   4.091   2.674  11.939  0.1885 -0.4151 -0.3368
14754TIP3    H165677   3.996   2.668  11.929  0.0903 -1.1889  0.8455
14754TIP3    H265678   4.114   2.757  11.896 -0.6796 -1.3165 -2.7114
14755TIP3   OH265679   0.953   2.338  10.923  0.1777 -0.5650 -0.2136
14755TIP3    H165680   0.875   2.394  10.921  0.8727  0.4262 -0.0272
14755TIP3    H265681   0.921   2.252  10.895 -0.8389  0.0030 -0.8711
14756TIP3   OH265682   1.183   3.722  11.420  0.3536 -0.1060  0.3499
14756TIP3    H165683   1.252   3.691  11.477  1.1421  0.8150 -0.0733
14756TIP3    H265684   1.125   3.646  11.409  0.5294 -0.4825  1.8190
14757TIP3   OH265685   0.924   4.813   2.067  0.5111 -0.7394 -0.1303
14757TIP3    H165686   0.901   4.739   2.122  0.6747 -0.0190  0.9505
14757TIP3    H265687   0.898   4.890   2.117 -2.3243 -0.0393 -2.4198
14758TIP3   OH265688   1.284   1.089   0.427 -0.0483  0.0502 -0.2427
14758TIP3    H165689   1.371   1.064   0.459  0.3315 -0.1608 -1.3856
14758TIP3    H265690   1.237   1.006   0.419  0.1215  0.0154 -0.9466
14759TIP3   OH265691   1.881   5.401  15.574 -0.2289 -0.5554 -0.4764
14759TIP3    H165692   1.899   5.324  15.519 -0.8605 -1.5801  0.6996
14759TIP3    H265693   1.786   5.404  15.580 -0.1832 -0.0924  0.0594
14760TIP3   OH265694   4.173   3.794   3.768  0.6069 -0.6817 -0.0019
14760TIP3    H165695   4.107   3.851   3.808  1.0087 -0.5351  0.4556
14760TIP3    H265696   4.226   3.763   3.842  2.3565  0.8305 -0.5605
14761TIP3   OH265697   2.325   0.555   0.647  0.2686 -0.0335  0.5550
14761TIP3    H165698   2.302   0.614   0.719  0.7423 -0.0381  0.7144
14761TIP3    H265699   2.368   0.481   0.690 -1.0760 -0.9099  0.4446
14762TIP3   OH265700   3.176   4.871  14.012  0.3591  0.2039  0.1323
14762TIP3    H165701   3.193   4.881  13.918  1.3546  1.0874  0.3876
14762TIP3    H265702   3.261   4.848  14.049 -0.0243 -0.1166  0.8343
14763TIP3   OH265703   1.732   2.179  11.947 -0.5892 -0.3145  0.5512
14763TIP3    H165704   1.723   2.094  11.904 -1.8327 -0.5649  1.2553
14763TIP3    H265705   1.776   2.158  12.030  1.5431  0.1261 -0.4075
14764TIP3   OH265706   3.583   2.296   6.041  0.3535  0.5579  0.1757
14764TIP3    H165707   3.607   2.384   6.069 -2.3655  1.4520 -0.0406
14764TIP3    H265708   3.503   2.308   5.989 -0.3668 -2.0555  0.5386
14765TIP3   OH265709   2.322   6.514  15.774 -0.6454  0.4815  0.5424
14765TIP3    H165710   2.230   6.489  15.783 -0.2194 -1.0733  0.9091
14765TIP3    H265711   2.369   6.452  15.830  0.9022 -0.8503 -2.0262
14766TIP3   OH265712   4.925   1.609  13.352  0.2090 -0.2461 -0.3347
14766TIP3    H165713   4.987   1.616  13.424  1.2782 -3.8171 -0.6908
14766TIP3    H265714   4.843   1.644  13.387  1.4898  1.1882  1.4110
14767TIP3   OH265715   1.082   0.635  11.329  0.3705 -0.5906 -0.1611
14767TIP3    H165716   1.119   0.675  11.407  3.1529 -0.8536 -1.2409
14767TIP3    H265717   1.051   0.710  11.276  1.8455 -0.1247 -0.3989
14768TIP3   OH265718   0.225   6.004  12.576 -0.4567  0.2235 -0.7187
14768TIP3    H165719   0.188   5.983  12.662  0.5052  0.7793 -0.1554
14768TIP3    H265720   0.217   5.923  12.526 -2.7625  0.4155 -0.7569
14769TIP3   OH265721   2.615   0.908   4.754 -0.2246 -0.3564 -0.1013
14769TIP3    H165722   2.548   0.873   4.695  1.2786 -1.5179 -1.2275
14769TIP3    H265723   2.643   0.989   4.711 -0.2299 -0.3822 -0.1544
14770TIP3   OH265724   1.730   3.300  16.000 -0.1565  0.1210 -0.3477
14770TIP3    H165725   1.740   3.284  15.906 -1.1870 -2.1146 -0.1484
14770TIP3    H265726   1.815   3.276  16.037  0.0878  0.5222 -0.6376
14771TIP3   OH265727   6.628   5.002   1.316 -0.9779 -0.1754  0.5327
14771TIP3    H165728   6.543   4.958   1.319 -0.7736 -0.6616 -0.2846
14771TIP3    H265729   6.687   4.943   1.362 -0.9304 -0.2142  0.4230
14772TIP3   OH265730   5.439   3.080   5.955  0.1931 -0.3696 -0.0990
14772TIP3    H165731   5.358   3.091   6.005  0.2782 -2.4909  0.5733
14772TIP3    H265732   5.507   3.118   6.011 -0.2665  1.2724 -0.5968
14773TIP3   OH265733   1.199   4.787  14.765  0.5383  0.0212  0.2435
14773TIP3    H165734   1.292   4.801  14.747  0.6968 -1.9384 -0.6334
14773TIP3    H265735   1.191   4.804  14.859  1.5851  1.0608  0.1800
14774TIP3   OH265736   3.165   0.391   2.471  0.0839 -0.2948  0.1251
14774TIP3    H165737   3.160   0.296   2.460 -0.4860  0.0026 -3.3964
14774TIP3    H265738   3.258   0.409   2.483  0.0618 -1.3334  2.3850
14775TIP3   OH265739   2.713   2.580   4.217 -0.4508 -0.5150  0.5125
14775TIP3    H165740   2.684   2.660   4.172  0.5231 -1.1304 -1.3080
14775TIP3    H265741   2.787   2.608   4.271  1.1248 -0.4398 -1.5627
14776TIP3   OH265742   4.284   5.392   1.152 -0.1034 -0.1507 -0.4456
14776TIP3    H165743   4.251   5.303   1.146  0.3988 -0.2517 -2.0157
14776TIP3    H265744   4.369   5.384   1.195  0.6115 -0.6220 -1.9066
14777TIP3   OH265745   1.103   2.312  14.357  0.1786 -0.2197  0.1894
14777TIP3    H165746   1.059   2.383  14.311  0.9739 -1.1087 -2.0695
14777TIP3    H265747   1.193   2.314  14.323  0.7691 -1.0595  1.5998
14778TIP3   OH265748   6.321   2.805   1.928  0.2419  0.5296  0.0050
14778TIP3    H165749   6.325   2.782   1.835 -1.5882 -0.7532  0.1884
14778TIP3    H265750   6.323   2.721   1.973  1.3863  1.1481  1.1795
14779TIP3   OH265751   0.005   0.347   5.040  0.0406 -0.1033 -0.0947
14779TIP3    H165752  -0.037   0.367   5.124 -0.7606 -0.5774 -0.3729
14779TIP3    H265753   0.096   0.326   5.063  0.6238  2.5427  0.3471
14780TIP3   OH265754   1.289   3.687   4.261  0.0992 -0.1771  0.5013
14780TIP3    H165755   1.277   3.600   4.223 -0.2322 -0.0464  0.3050
14780TIP3    H265756   1.329   3.738   4.191 -0.1843 -0.0326  0.4427
14781TIP3   OH265757   0.199   1.766   4.662 -0.0298 -0.1881 -0.2195
14781TIP3    H165758   0.232   1.725   4.742  1.0541  0.0618 -0.5209
14781TIP3    H265759   0.104   1.752   4.665  0.0652 -0.7013  0.8074
14782TIP3   OH265760   3.614   2.255  11.468  0.2363  0.2544 -0.1902
14782TIP3    H165761   3.648   2.167  11.451 -0.7449 -0.2860  0.5254
14782TIP3    H265762   3.668   2.288  11.540  2.3360  1.3173 -2.1444
14783TIP3   OH265763   4.317   6.686   5.309 -0.6567  0.1908  0.2422
14783TIP3    H165764   4.334   6.611   5.366  1.1216  1.0455  0.9249
14783TIP3    H265765   4.344   6.762   5.361  1.8294  0.9799 -1.9388
14784TIP3   OH265766   4.628   0.414  13.212 -0.2791  0.2069 -0.0047
14784TIP3    H165767   4.652   0.325  13.189  1.1503  0.4575  0.4310
14784TIP3    H265768   4.593   0.407  13.301  0.1272  0.1177  0.1507
14785TIP3   OH265769   6.393   0.309   5.212  0.1176  0.0953  0.2858
14785TIP3    H165770   6.376   0.234   5.269  0.1205 -0.0024  0.1584
14785TIP3    H265771   6.410   0.381   5.273  0.3301 -0.0563  0.4097
14786TIP3   OH265772   4.856   6.713  15.086 -0.0838 -0.2951 -0.9822
14786TIP3    H165773   4.848   6.717  15.182  1.1358 -3.7067 -0.5836
14786TIP3    H265774   4.943   6.748  15.069  0.3782 -1.2054 -0.5949
14787TIP3   OH265775   5.311   5.849   0.203  0.6069  0.5222 -0.7319
14787TIP3    H165776   5.258   5.770   0.206 -1.4486  1.7788 -1.8532
14787TIP3    H265777   5.332   5.861   0.111  1.3797  0.9929 -0.5071
14788TIP3   OH265778   3.383   0.302   4.266 -0.3228  0.2682  0.3269
14788TIP3    H165779   3.343   0.216   4.277 -0.7826  0.5484  0.8502
14788TIP3    H265780   3.379   0.343   4.352 -1.0062  1.2013 -0.1193
14789TIP3   OH265781   4.725   1.343  15.927 -0.0514 -0.2791 -0.2216
14789TIP3    H165782   4.658   1.378  15.868 -1.4365 -0.9882  0.8654
14789TIP3    H265783   4.795   1.408  15.925 -1.3649  1.1879 -0.3642
14790TIP3   OH265784   5.171   5.281   2.628  0.1190  0.7086 -0.0027
14790TIP3    H165785   5.122   5.283   2.710 -2.3543  0.5518 -1.3904
14790TIP3    H265786   5.245   5.222   2.645  0.6141  1.9387  2.5501
14791TIP3   OH265787   2.461   2.801  14.816 -0.2136 -0.0690  0.1626
14791TIP3    H165788   2.515   2.784  14.894 -0.7383  1.4427  0.9096
14791TIP3    H265789   2.523   2.802  14.744  0.4618 -0.3603  0.7229
14792TIP3   OH265790   4.370   2.251  15.786  0.3851 -0.0681 -0.6271
14792TIP3    H165791   4.361   2.320  15.721 -0.9262  2.2012  1.8036
14792TIP3    H265792   4.300   2.190  15.766  0.1446  0.4624 -1.4560
14793TIP3   OH265793   3.182   5.989   4.223  0.0486  0.0128 -0.1484
14793TIP3    H165794   3.225   6.015   4.304  2.6028 -1.9801 -0.7008
14793TIP3    H265795   3.244   6.015   4.154  0.3846 -2.7609 -1.0185
14794TIP3   OH265796   4.127   1.902  16.959 -0.2163  0.3103 -0.1182
14794TIP3    H165797   4.071   1.855  16.897 -1.2126  1.7623 -0.3677
14794TIP3    H265798   4.080   1.894  17.043 -0.0736  0.3438 -0.0353
14795TIP3   OH265799   3.346   5.543   5.550  0.0078 -0.0632  0.5043
14795TIP3    H165800   3.382   5.620   5.594  0.9153 -0.4621  0.4723
14795TIP3    H265801   3.376   5.468   5.602  0.7304 -0.5098 -0.5315
14796TIP3   OH265802   6.346   6.235  11.703  0.2195 -0.1010 -0.4894
14796TIP3    H165803   6.401   6.186  11.642 -1.1138 -2.0326 -0.2361
14796TIP3    H265804   6.343   6.181  11.782  0.4161  1.4531  0.6450
14797TIP3   OH265805   6.732   0.723  17.010 -0.1732  0.3562  0.2264
14797TIP3    H165806   6.687   0.805  16.990 -0.4868  0.1380  0.0233
14797TIP3    H265807   6.663   0.666  17.044 -0.3631 -0.4645 -1.4325
14798TIP3   OH265808   5.109   1.811   4.405  0.1433 -0.5446 -0.6830
14798TIP3    H165809   5.104   1.800   4.500  0.7926 -1.8349 -0.7805
14798TIP3    H265810   5.020   1.834   4.379  0.2561  1.3422  0.3837
14799TIP3   OH265811   1.756   6.629   5.477 -0.7440 -0.3471 -0.1054
14799TIP3    H165812   1.739   6.722   5.492 -1.4171 -0.7285  1.8002
14799TIP3    H265813   1.695   6.584   5.535 -1.7334 -2.0566 -2.3190
14800TIP3   OH265814   5.964   3.634   3.307  0.6157  0.3192 -0.0124
14800TIP3    H165815   5.930   3.568   3.247 -1.7354  0.9939  0.5063
14800TIP3    H265816   5.912   3.712   3.290 -0.6544  0.3531  3.2835
14801TIP3   OH265817   2.858   0.942  12.023  0.1161  1.3932  0.2507
14801TIP3    H165818   2.848   0.990  11.941  0.4476 -1.4221 -1.5326
14801TIP3    H265819   2.936   0.981  12.064  2.1752  0.5076 -2.5671
14802TIP3   OH265820   2.515   0.850  11.998  0.0240  0.4008  0.2898
14802TIP3    H165821   2.549   0.821  11.914  0.6070  0.8446  0.3625
14802TIP3    H265822   2.424   0.875  11.980  0.4270  1.4296 -0.4375
14803TIP3   OH265823   0.627   1.503  10.720 -0.1240  0.1620 -0.1364
14803TIP3    H165824   0.645   1.579  10.665 -1.3813 -0.6063 -1.6689
14803TIP3    H265825   0.546   1.467  10.686 -0.3456 -1.0140  1.5291
14804TIP3   OH265826   2.574   1.091  13.466 -0.1937 -0.4969  0.3889
14804TIP3    H165827   2.531   1.020  13.512 -1.3246 -1.3473 -1.8289
14804TIP3    H265828   2.516   1.166  13.476 -0.8088 -0.8807 -0.2472
14805TIP3   OH265829   1.534   1.164   2.403 -0.8271  0.1093 -0.3051
14805TIP3    H165830   1.529   1.071   2.427 -1.5904  0.5227  1.2278
14805TIP3    H265831   1.601   1.167   2.334 -1.2003 -1.6533 -0.7958
14806TIP3   OH265832   3.953   3.784   4.940 -0.1130 -0.5495 -0.0279
14806TIP3    H165833   3.957   3.765   5.033  0.5932 -0.2844  0.0036
14806TIP3    H265834   4.044   3.779   4.910 -0.3769 -1.0449 -0.7870
14807TIP3   OH265835   0.544   4.427   3.824 -0.1661 -0.0814 -0.0037
14807TIP3    H165836   0.576   4.466   3.906 -0.8874  1.5619 -0.4614
14807TIP3    H265837   0.472   4.485   3.797 -0.4821 -1.0776 -1.3739
14808TIP3   OH265838   2.453   0.945  12.633 -0.1089  0.1998 -0.3259
14808TIP3    H165839   2.396   0.912  12.564 -1.9575 -2.4147  2.2021
14808TIP3    H265840   2.529   0.887  12.630 -0.0598  0.2662 -0.3546
14809TIP3   OH265841   2.640   2.513   3.759  0.7567 -0.4313 -0.2804
14809TIP3    H165842   2.678   2.446   3.815  1.1429 -0.7281 -0.8773
14809TIP3    H265843   2.595   2.464   3.690 -0.3309 -0.0759  0.1640
14810TIP3   OH265844   4.795   4.054  15.832 -0.3702 -0.2786  0.1023
14810TIP3    H165845   4.882   4.065  15.794 -1.0918  0.6832 -1.3926
14810TIP3    H265846   4.806   3.988  15.900  1.0649 -1.9200 -1.6165
14811TIP3   OH265847   2.534   2.673  12.524  0.7936  0.0752  0.0761
14811TIP3    H165848   2.501   2.667  12.435  0.6790 -1.3099  0.1901
14811TIP3    H265849   2.621   2.714  12.515 -0.4790  2.9607 -0.2992
14812TIP3   OH265850   1.412   4.226   3.777  0.4382 -0.6101  0.2284
14812TIP3    H165851   1.393   4.177   3.696  0.0836  1.9300 -1.3381
14812TIP3    H265852   1.491   4.276   3.757  0.3425  0.0783  1.4625
14813TIP3   OH265853   6.513   4.368   2.108  1.0451 -0.6259 -0.1182
14813TIP3    H165854   6.536   4.312   2.182  2.1037  0.2009  0.2028
14813TIP3    H265855   6.554   4.325   2.033  1.2953 -0.6307  0.0207
14814TIP3   OH265856   1.907   4.292   6.270  0.7033  0.8589  0.2596
14814TIP3    H165857   1.986   4.247   6.300 -0.2466 -1.2396 -0.1824
14814TIP3    H265858   1.918   4.298   6.175  0.0547 -0.0806  0.1116
14815TIP3   OH265859   3.776   2.129  10.941  0.4285  0.0708 -0.6717
14815TIP3    H165860   3.807   2.131  10.851 -0.0998  0.5828 -0.8465
14815TIP3    H265861   3.750   2.038  10.956  1.6694 -0.2964 -0.6283
14816TIP3   OH265862   4.081   6.007  13.936 -0.4568  0.2962 -0.4126
14816TIP3    H165863   4.049   6.087  13.979 -0.1307  0.9366 -1.3209
14816TIP3    H265864   4.101   6.035  13.846  0.2877 -0.6561 -0.5578
14817TIP3   OH265865   2.355   0.963   0.549 -0.5301  0.3778  0.1182
14817TIP3    H165866   2.279   0.969   0.607 -0.1814 -0.0605  0.6308
14817TIP3    H265867   2.364   0.869   0.531 -0.7322  0.5183 -0.7857
14818TIP3   OH265868   2.629   3.006  11.826 -0.4810  0.1054 -0.3036
14818TIP3    H165869   2.629   3.083  11.769  1.1866 -0.2071 -0.7584
14818TIP3    H265870   2.661   2.935  11.772 -1.5110 -0.8322  0.2698
14819TIP3   OH265871   4.498   5.612  15.742 -0.2519 -0.0098  0.1504
14819TIP3    H165872   4.490   5.603  15.837  0.6342 -0.0459  0.2316
14819TIP3    H265873   4.573   5.558  15.720 -0.8868 -0.5679 -0.6721
14820TIP3   OH265874   2.304   1.572  15.804 -0.1965 -0.6734 -0.6290
14820TIP3    H165875   2.390   1.612  15.810 -0.7545  0.7831 -1.6774
14820TIP3    H265876   2.284   1.544  15.894  1.9102 -2.3504 -0.6018
14821TIP3   OH265877   0.331   0.324   4.205  0.7892  0.1649  0.3850
14821TIP3    H165878   0.412   0.298   4.161  1.1584  1.1602  0.4492
14821TIP3    H265879   0.286   0.242   4.224  1.7781 -0.3985  0.3348
14822TIP3   OH265880   6.531   0.569  17.108  0.4507  0.1527 -1.1232
14822TIP3    H165881   6.456   0.534  17.155 -1.0798  2.2025 -1.8855
14822TIP3    H265882   6.604   0.513  17.133 -1.3231 -1.9529 -0.3910
14823TIP3   OH265883   4.544   1.061  11.907 -0.1166 -0.6290  0.1974
14823TIP3    H165884   4.486   1.077  11.833  1.5357 -1.3172 -1.3139
14823TIP3    H265885   4.528   0.970  11.931 -1.5746 -0.0616  1.6047
14824TIP3   OH265886   5.848   3.132  15.349  0.1737 -0.7055 -0.9170
14824TIP3    H165887   5.796   3.082  15.411 -0.9995  0.7344 -0.6690
14824TIP3    H265888   5.891   3.067  15.295 -0.9556 -1.9630 -0.3493
14825TIP3   OH265889   5.414   2.296   2.491 -0.7249 -0.1158 -0.6893
14825TIP3    H165890   5.423   2.370   2.551 -1.2916 -0.5117 -0.1115
14825TIP3    H265891   5.502   2.258   2.486 -0.8374 -0.5748  0.5323
14826TIP3   OH265892   4.973   5.212  13.417  0.2868 -0.1764  0.1588
14826TIP3    H165893   5.004   5.297  13.449 -1.1595  0.7511 -0.8076
14826TIP3    H265894   4.880   5.212  13.437 -0.8383  0.6057 -4.1831
14827TIP3   OH265895   2.213   0.773   0.087  0.4118 -0.2455  0.0633
14827TIP3    H165896   2.210   0.789  -0.008  1.9271 -1.0621 -0.1542
14827TIP3    H265897   2.158   0.695   0.099 -0.2974  0.2297 -0.0412
14828TIP3   OH265898   3.615   1.931   1.762  0.0894  0.3842  0.5603
14828TIP3    H165899   3.521   1.935   1.778 -0.5712  0.7521 -2.5897
14828TIP3    H265900   3.638   2.020   1.732  0.9216 -0.2327 -0.7622
14829TIP3   OH265901   2.912   6.036   1.427  0.2401 -0.6584  1.1162
14829TIP3    H165902   2.835   5.982   1.443 -1.4715  0.4830 -2.2532
14829TIP3    H265903   2.981   5.974   1.405 -0.8902 -1.6216  0.1332
14830TIP3   OH265904   6.666   6.436   1.471  0.4890 -0.3603 -0.1505
14830TIP3    H165905   6.711   6.509   1.428  0.8307 -0.4425  0.0636
14830TIP3    H265906   6.612   6.478   1.538  0.1292 -0.2500 -0.5069
14831TIP3   OH265907   1.159   1.801   5.199  0.0664  0.6731 -0.1951
14831TIP3    H165908   1.174   1.819   5.292  1.0099  0.8930 -0.3773
14831TIP3    H265909   1.225   1.854   5.154  0.6286 -0.5998 -0.9177
14832TIP3   OH265910   4.378   0.361   1.265  0.0140  0.5909  0.1885
14832TIP3    H165911   4.464   0.379   1.226  0.7394  0.8057  1.7963
14832TIP3    H265912   4.316   0.404   1.206  1.1969  2.5601  0.2666
14833TIP3   OH265913   5.973   5.958   6.350  0.1927  0.0212  0.3368
14833TIP3    H165914   6.052   6.012   6.353 -0.3840  0.8922  0.2771
14833TIP3    H265915   5.939   5.960   6.440 -0.6070  0.9679  0.0347
14834TIP3   OH265916   3.817   5.658   2.492  0.0190 -0.5413 -0.6089
14834TIP3    H165917   3.900   5.624   2.526 -0.6676 -0.9752  0.7450
14834TIP3    H265918   3.780   5.706   2.566  0.0801  1.5917 -1.8976
14835TIP3   OH265919   2.795   3.471   5.012 -0.1782 -0.1741 -0.0075
14835TIP3    H165920   2.730   3.470   4.942 -0.7209 -0.4654  0.4947
14835TIP3    H265921   2.748   3.504   5.088  0.2064 -0.5884  0.4166
14836TIP3   OH265922   3.028   5.985   0.497  0.3956 -0.9600 -0.0321
14836TIP3    H165923   3.094   6.048   0.468  1.3341 -1.4654  0.9267
14836TIP3    H265924   3.038   5.982   0.592 -2.1221  0.1644  0.3480
14837TIP3   OH265925   1.741   5.783   3.513  0.2087  0.1128 -0.1925
14837TIP3    H165926   1.807   5.771   3.445  1.9368  0.3701  1.3647
14837TIP3    H265927   1.790   5.783   3.595 -1.7121  0.5183  1.0337
14838TIP3   OH265928   2.256   2.826  13.120  0.0958 -0.2782  0.3466
14838TIP3    H165929   2.344   2.837  13.157  0.9127  1.2591 -1.8823
14838TIP3    H265930   2.198   2.834  13.196  1.8235 -0.8189  1.8050
14839TIP3   OH265931   3.659   6.732   2.194 -0.7088 -0.2302  1.0847
14839TIP3    H165932   3.737   6.678   2.206  0.1600  0.5861 -0.5174
14839TIP3    H265933   3.636   6.721   2.102  0.3599  3.1108  0.2855
14840TIP3   OH265934   0.342   6.079  16.805 -0.3740  0.6851 -0.1946
14840TIP3    H165935   0.335   5.988  16.776 -1.2642 -0.1931  2.4589
14840TIP3    H265936   0.407   6.077  16.875 -0.7453  2.0000  0.2249
14841TIP3   OH265937   1.583   3.467   2.448 -0.0483  0.2669 -1.0447
14841TIP3    H165938   1.603   3.399   2.383 -0.1238 -0.2388 -0.5433
14841TIP3    H265939   1.667   3.489   2.487 -0.1108 -0.0123 -0.7474
14842TIP3   OH265940   6.112   0.040   2.728 -0.4848 -0.2669  0.1302
14842TIP3    H165941   6.180   0.107   2.716  0.2480 -0.6538  1.8156
14842TIP3    H265942   6.066   0.037   2.644  1.8310 -0.2794 -1.2225
14843TIP3   OH265943   2.549   5.047  16.224 -0.0424  0.5437  0.3733
14843TIP3    H165944   2.464   5.028  16.184 -0.5672  0.8526  1.3158
14843TIP3    H265945   2.570   5.136  16.195 -0.4088  0.7571  0.7545
14844TIP3   OH265946   0.348   6.688  15.452 -0.5064  0.5282  0.6864
14844TIP3    H165947   0.365   6.595  15.463 -4.4146 -0.3141  1.2297
14844TIP3    H265948   0.260   6.691  15.413 -0.3447  3.9978  0.3014
14845TIP3   OH265949   0.427   3.742  14.451 -0.2687 -0.0685  0.0547
14845TIP3    H165950   0.432   3.820  14.396  1.1450  0.0450  0.2918
14845TIP3    H265951   0.477   3.676  14.404 -0.5924 -0.5207  0.3406
14846TIP3   OH265952   3.772   2.798  11.904 -0.0654  0.4691 -0.7662
14846TIP3    H165953   3.774   2.855  11.827 -1.8330  2.1573  0.3372
14846TIP3    H265954   3.683   2.807  11.937  0.1701 -1.5257  0.5539
14847TIP3   OH265955   5.430   6.510   2.772 -0.0187  0.3085  0.4293
14847TIP3    H165956   5.450   6.588   2.720  0.4900 -0.9828 -1.3701
14847TIP3    H265957   5.508   6.496   2.825  0.4627  0.1723 -0.3176
14848TIP3   OH265958   5.168   6.247  13.176 -0.0289 -0.2005  0.1828
14848TIP3    H165959   5.128   6.331  13.199 -0.0298  0.0791 -0.7829
14848TIP3    H265960   5.259   6.268  13.157  0.4942 -0.7680  1.9644
14849TIP3   OH265961   4.891   6.442  15.339 -0.1690 -0.4730 -0.2671
14849TIP3    H165962   4.935   6.468  15.419 -2.9733 -0.5178  1.4129
14849TIP3    H265963   4.869   6.350  15.352  0.1389 -0.7564 -1.5349
14850TIP3   OH265964   6.687   6.150  13.191 -0.4815 -0.5317  0.1117
14850TIP3    H165965   6.680   6.183  13.281  2.2353  0.2304  0.1376
14850TIP3    H265966   6.679   6.055  13.200  1.5841 -0.6423  1.4895
14851TIP3   OH265967   2.698   3.014  10.686 -0.0540  0.4377  0.1277
14851TIP3    H165968   2.682   2.952  10.614  0.3369  1.2542 -0.6794
14851TIP3    H265969   2.623   3.002  10.745  0.0721 -0.8806  0.0529
14852TIP3   OH265970   0.505   5.210  16.123 -0.8087 -0.1682 -0.1024
14852TIP3    H165971   0.592   5.218  16.161 -0.6409 -0.4232 -0.4356
14852TIP3    H265972   0.481   5.300  16.101  0.2105 -0.2871 -1.8750
14853TIP3   OH265973   6.111   2.519  15.519 -0.6439  0.1010 -0.4481
14853TIP3    H165974   6.151   2.513  15.432 -0.8612 -1.7134 -0.4428
14853TIP3    H265975   6.085   2.611  15.526  0.6883  0.6158 -1.7069
14854TIP3   OH265976   5.958   5.036  12.633  0.6739  0.4736  0.4462
14854TIP3    H165977   6.026   5.041  12.699  1.3076 -0.6845 -0.0966
14854TIP3    H265978   5.981   4.961  12.579  0.6715  1.8585 -1.6247
14855TIP3   OH265979   3.603   1.421  11.190  0.0120  0.3435  0.2606
14855TIP3    H165980   3.540   1.428  11.118 -0.6660  0.7043  0.8804
14855TIP3    H265981   3.593   1.332  11.222  0.0896  0.2834  0.1211
14856TIP3   OH265982   2.587   6.273  16.726  0.2681  0.5781  0.4063
14856TIP3    H165983   2.621   6.184  16.733  1.3401  1.0750  2.3459
14856TIP3    H265984   2.522   6.279  16.797 -1.7224  0.6008 -1.3147
14857TIP3   OH265985   2.900   4.536  16.067  0.3476  0.0058 -0.1436
14857TIP3    H165986   2.829   4.479  16.097  1.4059 -1.6801 -0.7242
14857TIP3    H265987   2.913   4.598  16.139 -2.0687  0.7681 -0.2532
14858TIP3   OH265988   4.330   1.693   1.068  0.1248  0.2130 -0.5069
14858TIP3    H165989   4.351   1.604   1.037 -3.8761 -0.8750 -0.5666
14858TIP3    H265990   4.239   1.689   1.095  0.2334  3.9814  1.0729
14859TIP3   OH265991   3.298   6.653   2.083  0.4631 -0.3045  0.1302
14859TIP3    H165992   3.249   6.620   2.007 -1.7845 -0.3945  1.5446
14859TIP3    H265993   3.372   6.700   2.044 -0.5750 -0.3834 -2.1141
14860TIP3   OH265994   6.570   1.695  15.491 -0.0267 -0.0369 -0.4110
14860TIP3    H165995   6.602   1.781  15.518  1.8976 -0.5127 -0.9790
14860TIP3    H265996   6.556   1.702  15.397  0.3877 -0.4018 -0.5057
14861TIP3   OH265997   5.710   1.710   5.387 -0.3615 -0.1100  0.2217
14861TIP3    H165998   5.724   1.797   5.349  1.4270 -0.8938 -1.0159
14861TIP3    H265999   5.670   1.659   5.317  1.2820 -1.0704 -0.0500
14862TIP3   OH266000   4.515   6.120   2.221  0.1906 -0.5400 -0.1803
14862TIP3    H166001   4.535   6.065   2.145  0.0318 -0.7858 -0.0425
14862TIP3    H266002   4.466   6.194   2.185 -0.6725 -1.1109 -0.1892
14863TIP3   OH266003   1.563   2.538  16.373 -0.2369 -0.3389 -0.2910
14863TIP3    H166004   1.553   2.554  16.279  0.3703 -0.3047 -0.3538
14863TIP3    H266005   1.515   2.456  16.389 -1.0163  0.0740 -0.4758
14864TIP3   OH266006   4.964   6.368  16.667  0.2377 -0.3860 -0.2547
14864TIP3    H166007   5.050   6.341  16.700  0.2229 -0.5098 -0.3167
14864TIP3    H266008   4.938   6.298  16.607  0.3813 -0.0446 -0.7213
14865TIP3   OH266009   6.525   2.686   4.971  0.0041 -0.0419  0.4483
14865TIP3    H166010   6.525   2.638   5.054 -0.8430 -1.8523 -0.5569
14865TIP3    H266011   6.468   2.635   4.913 -0.8849  2.1527 -0.7202
14866TIP3   OH266012   1.091   0.144   4.891  0.0071 -0.5212 -0.0947
14866TIP3    H166013   1.013   0.194   4.917  1.2136  0.2591  2.3157
14866TIP3    H266014   1.057   0.056   4.872 -1.5213 -0.1055  0.5227
14867TIP3   OH266015   0.152   5.469  13.660  0.1446  0.5164 -0.5651
14867TIP3    H166016   0.217   5.491  13.726  0.5464 -0.0974 -0.7392
14867TIP3    H266017   0.103   5.550  13.646  0.0142  0.6414  0.5157
14868TIP3   OH266018   4.262   0.605  12.753  0.3051  0.2843 -0.5010
14868TIP3    H166019   4.169   0.596  12.773  0.5756  0.6003  1.0139
14868TIP3    H266020   4.266   0.680  12.693 -0.5013 -0.3806 -1.4099
14869TIP3   OH266021   5.419   4.430  12.443  0.0328 -0.0327  0.0364
14869TIP3    H166022   5.348   4.376  12.408 -0.1142 -1.1261  1.9172
14869TIP3    H266023   5.383   4.470  12.522  0.3794  2.3101 -0.9235
14870TIP3   OH266024   1.524   3.613   0.942 -0.5976 -0.0972 -0.1880
14870TIP3    H166025   1.527   3.548   1.013  0.0294  0.9997  0.8258
14870TIP3    H266026   1.439   3.656   0.954 -0.8705 -0.4905 -0.6594
14871TIP3   OH266027   5.242   6.283  11.739 -0.3182 -0.4990  0.0619
14871TIP3    H166028   5.304   6.211  11.750 -0.4632 -0.5446  0.5974
14871TIP3    H266029   5.206   6.298  11.826  0.4898  0.9324  0.1863
14872TIP3   OH266030   6.151   2.069  14.387 -0.5734 -0.8830 -0.1892
14872TIP3    H166031   6.208   2.036  14.318 -0.1138 -2.0568  0.7139
14872TIP3    H266032   6.135   2.161  14.363 -0.2982 -1.2087 -1.7407
14873TIP3   OH266033   6.415   4.452  10.431  0.7154 -0.1091  0.1885
14873TIP3    H166034   6.381   4.507  10.501  0.3386 -2.2717  1.7929
14873TIP3    H266035   6.483   4.506  10.389  0.3497  1.5560  1.6223
14874TIP3   OH266036   6.511   3.383  15.098  0.3291 -0.7838  1.0898
14874TIP3    H166037   6.562   3.338  15.030  0.4054 -0.7562  1.1295
14874TIP3    H266038   6.568   3.454  15.127 -0.9892  1.4170 -1.2857
14875TIP3   OH266039   6.137   3.266   6.104 -0.1796 -0.5323 -0.6455
14875TIP3    H166040   6.231   3.274   6.119 -0.6378  2.0791  1.4651
14875TIP3    H266041   6.112   3.349   6.064 -1.8884 -0.3869  0.6577
14876TIP3   OH266042   4.104   2.137  13.739 -0.0656 -0.1815  0.0427
14876TIP3    H166043   4.022   2.118  13.786 -0.5256 -2.0647 -1.3932
14876TIP3    H266044   4.101   2.080  13.663  1.4460  1.5508 -1.4021
14877TIP3   OH266045   4.692   3.758   4.025 -0.8412  0.0291  0.5213
14877TIP3    H166046   4.777   3.777   3.985  0.1442 -0.9798  2.0390
14877TIP3    H266047   4.703   3.672   4.065 -2.2225  0.3606  1.6946
14878TIP3   OH266048   2.432   6.622  12.279 -0.4655 -0.3402 -0.3106
14878TIP3    H166049   2.496   6.619  12.208 -1.3077  0.9724 -1.1649
14878TIP3    H266050   2.485   6.628  12.359  0.4820 -1.4023 -0.8263
14879TIP3   OH266051   3.298   2.335  11.136  0.0628 -0.7235  0.6669
14879TIP3    H166052   3.253   2.410  11.097  0.8469 -0.4374  0.2843
14879TIP3    H266053   3.228   2.277  11.163 -0.5607  0.1342  0.9436
14880TIP3   OH266054   1.486   2.749   1.881 -0.4291  0.7099  0.0611
14880TIP3    H166055   1.573   2.780   1.907 -0.8698  1.1513  1.0678
14880TIP3    H266056   1.460   2.690   1.951 -1.1584  0.9904  0.0335
14881TIP3   OH266057   0.815   4.575  13.527 -0.4127 -0.1750  0.1061
14881TIP3    H166058   0.910   4.570  13.515 -0.4144 -0.0462  0.0404
14881TIP3    H266059   0.804   4.631  13.604 -0.3898 -1.2903  0.9410
14882TIP3   OH266060   1.559   5.495   3.226 -0.1729  0.0780 -0.5588
14882TIP3    H166061   1.538   5.583   3.257 -0.7687 -0.5858  1.0086
14882TIP3    H266062   1.475   5.456   3.203  0.1525  0.1463 -1.9819
14883TIP3   OH266063   4.834   3.233   4.042 -0.0370  0.0506  0.3109
14883TIP3    H166064   4.830   3.206   3.950 -0.1979  1.8141 -0.2260
14883TIP3    H266065   4.917   3.281   4.050 -0.3506  0.5096  0.9112
14884TIP3   OH266066   5.621   5.759   4.310 -0.5582  0.0722  0.2806
14884TIP3    H166067   5.574   5.817   4.370 -2.1755 -0.1825 -0.6776
14884TIP3    H266068   5.635   5.812   4.232  1.0862  0.2436  0.6649
14885TIP3   OH266069   5.243   2.831   3.494 -0.0588  0.0919 -0.0086
14885TIP3    H166070   5.192   2.862   3.569  0.7048  0.9267  0.1861
14885TIP3    H266071   5.312   2.896   3.483  2.0692 -1.8766  0.8457
14886TIP3   OH266072   4.609   2.163   6.016 -0.1847  0.0237 -0.3698
14886TIP3    H166073   4.701   2.159   6.044 -0.3848 -3.5487  0.2499
14886TIP3    H266074   4.565   2.211   6.086  0.8203 -0.5909  0.7273
14887TIP3   OH266075   3.447   1.444  10.951 -0.0424 -0.3418 -0.1899
14887TIP3    H166076   3.427   1.357  10.916  0.0370  0.2979 -1.8882
14887TIP3    H266077   3.372   1.498  10.926 -0.1575  0.0739  0.9691
14888TIP3   OH266078   3.944   0.171   2.484 -0.4060  0.3118  0.4002
14888TIP3    H166079   3.999   0.249   2.491 -0.8010  0.5108  1.3978
14888TIP3    H266080   3.908   0.175   2.395  0.3100  0.7575  0.1179
14889TIP3   OH266081   4.108   2.987  11.219  0.6184 -0.2504  0.4374
14889TIP3    H166082   4.027   3.038  11.212  1.4055  1.3409  2.2569
14889TIP3    H266083   4.142   2.985  11.129 -1.6432 -1.4237 -0.4938
14890TIP3   OH266084   3.258   0.304   5.088 -0.6641  0.2683 -0.2830
14890TIP3    H166085   3.176   0.322   5.135 -0.5310  1.4379 -0.4741
14890TIP3    H266086   3.234   0.311   4.996 -0.5613 -0.3955 -0.3634
14891TIP3   OH266087   0.556   3.749  15.934 -0.2625  0.3218  0.1896
14891TIP3    H166088   0.469   3.789  15.926 -0.4339 -0.0414  0.2418
14891TIP3    H266089   0.548   3.665  15.890  0.0494  0.2690  0.2356
14892TIP3   OH266090   3.095   2.023   5.753  0.6188 -0.6062  0.1624
14892TIP3    H166091   3.143   1.945   5.779 -0.3814 -0.6917  1.9371
14892TIP3    H266092   3.028   2.033   5.820 -0.0038  1.1375 -0.6555
14893TIP3   OH266093   6.165   5.587   5.288 -0.4700  0.4635 -0.0989
14893TIP3    H166094   6.238   5.538   5.326 -0.1148  1.0100 -0.0744
14893TIP3    H266095   6.195   5.678   5.287  0.6449  0.2175 -4.1932
14894TIP3   OH266096   0.689   1.632  12.776 -0.2137  0.5656  0.0149
14894TIP3    H166097   0.774   1.675  12.769  2.0011 -3.0645  1.8037
14894TIP3    H266098   0.677   1.588  12.692  0.8743 -0.7775  0.5324
14895TIP3   OH266099   2.862   0.118   1.079 -0.2634  0.1484  0.1022
14895TIP3    H166100   2.942   0.171   1.078 -0.6827  0.8542 -2.4314
14895TIP3    H266101   2.801   0.169   1.133  0.5261  0.2798  0.9086
14896TIP3   OH266102   1.773   1.308  15.662 -0.0902  0.3599  0.1620
14896TIP3    H166103   1.736   1.396  15.673 -1.1680  0.1734 -1.5739
14896TIP3    H266104   1.734   1.257  15.733  0.5379  1.2490  1.1794
14897TIP3   OH266105   3.248   5.339   2.416 -0.0345  0.2841  0.1545
14897TIP3    H166106   3.206   5.262   2.377  0.5095  1.0629 -2.1152
14897TIP3    H266107   3.313   5.303   2.476  0.0076 -1.0390 -0.6470
14898TIP3   OH266108   1.239   4.684   1.974  0.6628 -0.3883 -0.0121
14898TIP3    H166109   1.251   4.692   2.068 -0.1932  0.3014  0.0547
14898TIP3    H266110   1.327   4.666   1.940  0.8185 -1.6734  0.9962
14899TIP3   OH266111   4.686   5.610   4.782 -0.3937 -0.6168  0.0720
14899TIP3    H166112   4.775   5.609   4.819  0.1127 -0.0730 -1.0847
14899TIP3    H266113   4.629   5.621   4.858  0.5452 -0.6931  0.8106
14900TIP3   OH266114   6.200   1.446   4.269  0.5380 -0.1817  0.4784
14900TIP3    H166115   6.241   1.435   4.183 -0.4691 -0.8661  0.0626
14900TIP3    H266116   6.126   1.504   4.252  1.7167  1.6639  1.3547
14901TIP3   OH266117   0.145   5.998  15.309  0.1532 -0.0598 -0.6011
14901TIP3    H166118   0.104   6.025  15.391 -1.2733 -2.3312 -0.4654
14901TIP3    H266119   0.235   5.977  15.332 -0.6123 -2.1290  0.8002
14902TIP3   OH266120   1.375   2.832  15.776  0.2010 -0.4128 -0.2418
14902TIP3    H166121   1.340   2.846  15.864  1.1816  0.7237 -0.0022
14902TIP3    H266122   1.384   2.736  15.769 -3.1481 -0.8172 -0.4679
14903TIP3   OH266123   1.269   2.215  15.384  0.4707 -0.1569 -0.0485
14903TIP3    H166124   1.268   2.121  15.369 -2.1530 -0.0052 -1.4989
14903TIP3    H266125   1.352   2.245  15.348  0.4076 -1.6629 -1.5673
14904TIP3   OH266126   1.110   5.439  11.023  0.3750  0.0096  0.2146
14904TIP3    H166127   1.105   5.348  10.993 -2.4883  0.5358 -1.3122
14904TIP3    H266128   1.050   5.486  10.965 -0.0008  2.4625  2.4188
14905TIP3   OH266129   2.844   4.936   6.349 -0.1520 -0.1658  0.0693
14905TIP3    H166130   2.802   5.020   6.364 -0.0469  0.1176 -1.0910
14905TIP3    H266131   2.929   4.944   6.393  0.8852  1.2875 -2.0044
14906TIP3   OH266132   6.122   6.585   5.975  0.3141  0.9030  0.2722
14906TIP3    H166133   6.195   6.523   5.973  0.2663  0.8176  0.8910
14906TIP3    H266134   6.129   6.627   6.061 -1.7294 -0.7801  1.3302
14907TIP3   OH266135   4.884   4.074   0.232  0.5878 -0.2528 -0.3902
14907TIP3    H166136   4.804   4.083   0.283  0.8930 -2.0930  0.5038
14907TIP3    H266137   4.904   3.980   0.234  0.4806 -0.5338 -4.1787
14908TIP3   OH266138   4.384   5.718  13.153 -0.7012  0.0098  0.0082
14908TIP3    H166139   4.401   5.804  13.114 -1.5615  0.3621  0.3646
14908TIP3    H266140   4.461   5.666  13.132  0.3386  1.2023  0.7269
14909TIP3   OH266141   3.686   5.016  13.550 -0.0895  0.6064 -0.0766
14909TIP3    H166142   3.769   5.051  13.582 -0.6996 -0.0585  2.3792
14909TIP3    H266143   3.703   4.998  13.457  2.6664  0.0230  0.4347
14910TIP3   OH266144   2.035   6.692   3.110  0.4444  0.4421 -0.3370
14910TIP3    H166145   1.948   6.668   3.076  0.7286 -0.8017 -0.2461
14910TIP3    H266146   2.042   6.645   3.193  0.8210  1.3408  0.1528
14911TIP3   OH266147   0.328   5.840   3.478 -0.4484 -0.3767  0.1812
14911TIP3    H166148   0.246   5.808   3.440 -0.2873  0.1276 -0.6103
14911TIP3    H266149   0.311   5.932   3.495 -0.3196 -0.4649  0.8043
14912TIP3   OH266150   3.455   4.203  13.901  0.2543  0.3595  0.3818
14912TIP3    H166151   3.513   4.252  13.843  0.3413  0.0643  0.2171
14912TIP3    H266152   3.378   4.260  13.911 -0.1042  0.0891 -0.6550
14913TIP3   OH266153   0.444   0.254  14.759 -0.2479  0.0456  0.5524
14913TIP3    H166154   0.538   0.270  14.751  0.5483 -2.8665  2.3099
14913TIP3    H266155   0.408   0.274  14.673  1.8464  1.8591  0.0207
14914TIP3   OH266156   0.680   0.724   2.912 -0.1375  0.2574  0.2682
14914TIP3    H166157   0.644   0.637   2.929  0.6431  0.0823  1.0890
14914TIP3    H266158   0.643   0.780   2.980 -2.1283  1.0202 -1.3528
14915TIP3   OH266159   0.524   2.886  12.315 -0.0106  0.1398  0.9762
14915TIP3    H166160   0.433   2.880  12.344 -0.4032 -2.3133 -0.4905
14915TIP3    H266161   0.572   2.827  12.373  0.1766 -0.5099  0.1761
14916TIP3   OH266162   6.348   2.624   2.463 -0.0479  0.4498  0.2128
14916TIP3    H166163   6.366   2.591   2.552 -0.7769  1.5330  0.7750
14916TIP3    H266164   6.347   2.719   2.473  0.1566  0.5893 -1.0268
14917TIP3   OH266165   5.292   1.892  13.124 -0.4617 -0.0057 -0.1365
14917TIP3    H166166   5.345   1.965  13.157 -0.4236 -1.1635  2.6860
14917TIP3    H266167   5.317   1.884  13.032  1.9709  1.4646  0.2936
14918TIP3   OH266168   0.825   3.665   3.015  0.3243  0.3091 -0.5994
14918TIP3    H166169   0.762   3.721   2.970 -0.3477  1.1669  1.2854
14918TIP3    H266170   0.794   3.576   2.998 -0.8306  0.6801 -0.5357
14919TIP3   OH266171   1.507   4.010  11.969  0.1497  0.0413  0.0739
14919TIP3    H166172   1.544   4.072  11.906 -0.2101  0.3091  0.1290
14919TIP3    H266173   1.421   3.988  11.935 -0.5017  1.0238  1.0310
14920TIP3   OH266174   5.067   1.551  13.593  0.5264 -0.1283  0.3383
14920TIP3    H166175   5.078   1.465  13.634  1.4744  0.0632  0.5150
14920TIP3    H266176   5.155   1.590  13.595 -0.1263  1.3909  1.4793
14921TIP3   OH266177   1.252   5.345  16.070  0.1989 -0.4989  0.2366
14921TIP3    H166178   1.199   5.392  16.135  0.2159 -0.5937  0.3185
14921TIP3    H266179   1.331   5.398  16.059 -0.0847 -0.1512 -0.1717
14922TIP3   OH266180   6.437   0.999  12.363  0.6343 -0.6131  0.0942
14922TIP3    H166181   6.467   0.944  12.290  3.5704 -1.1415  1.5097
14922TIP3    H266182   6.356   1.039  12.332  0.5144 -2.6109 -2.5368
14923TIP3   OH266183   6.506   3.776  11.955 -0.9882 -0.0140  0.4755
14923TIP3    H166184   6.529   3.869  11.953 -1.1257  0.1091 -3.2704
14923TIP3    H266185   6.588   3.732  11.976 -0.0883  0.9000 -0.9109
14924TIP3   OH266186   5.045   5.785  15.258  0.2634 -0.2182 -0.2828
14924TIP3    H166187   5.112   5.841  15.218 -1.2723  1.2028 -0.9349
14924TIP3    H266188   5.009   5.838  15.330 -2.3487  0.3929 -1.9276
14925TIP3   OH266189   4.815   0.422  15.734 -0.6191  0.0593  0.1714
14925TIP3    H166190   4.889   0.449  15.789  0.0442 -0.2342 -0.5686
14925TIP3    H266191   4.744   0.482  15.759  0.0700  0.8055  0.3912
14926TIP3   OH266192   2.770   0.941  14.013 -0.3715  0.0274  0.1278
14926TIP3    H166193   2.854   0.897  14.029 -0.5741 -0.0235  1.1473
14926TIP3    H266194   2.791   1.034  14.015  0.3721  0.1026 -3.7357
14927TIP3   OH266195   2.307   6.182  13.970  0.0596  0.1091  0.1404
14927TIP3    H166196   2.296   6.123  14.045 -0.5324 -1.3821 -1.0550
14927TIP3    H266197   2.401   6.190  13.959  0.1483 -0.2629  0.5821
14928TIP3   OH266198   3.708   5.108   6.288 -0.1690 -0.8464 -0.5936
14928TIP3    H166199   3.759   5.154   6.221 -1.4529  0.0541 -1.0066
14928TIP3    H266200   3.745   5.139   6.371 -0.5754  0.4875 -0.8747
14929TIP3   OH266201   4.795   6.338  11.822 -0.2865 -0.3112 -0.6376
14929TIP3    H166202   4.850   6.408  11.859 -0.7159 -0.5386  0.4903
14929TIP3    H266203   4.708   6.354  11.859 -0.2632 -1.7651  0.1418
14930TIP3   OH266204   1.708   6.218  16.569 -0.5234 -0.0926  0.3468
14930TIP3    H166205   1.707   6.216  16.665  0.2516  1.4761  0.4123
14930TIP3    H266206   1.618   6.240  16.544  0.0754  3.7124  0.9295
14931TIP3   OH266207   4.773   3.996   2.376  0.1465  0.1900 -0.3341
14931TIP3    H166208   4.691   4.044   2.363 -0.6409 -1.2641 -0.9137
14931TIP3    H266209   4.791   3.955   2.291  1.5888  0.6219 -0.2759
14932TIP3   OH266210   1.675   0.804  15.938 -0.2128 -0.4953  0.2984
14932TIP3    H166211   1.626   0.872  15.892  1.5146  0.6590  0.0736
14932TIP3    H266212   1.759   0.801  15.894  1.0614 -0.2251  2.5545
14933TIP3   OH266213   5.105   1.746   0.737  0.0998 -0.3778 -0.1546
14933TIP3    H166214   5.130   1.812   0.802  1.2775 -2.3566  1.5528
14933TIP3    H266215   5.178   1.744   0.676 -0.5850  0.8474 -1.0354
14934TIP3   OH266216   1.168   0.213   5.623  0.3943  0.1043 -0.3302
14934TIP3    H166217   1.094   0.262   5.589 -0.4067 -1.4695 -0.9754
14934TIP3    H266218   1.131   0.157   5.691  1.0296 -0.4639 -0.4379
14935TIP3   OH266219   0.183   0.375  12.170 -0.3302  0.2257 -0.0126
14935TIP3    H166220   0.101   0.380  12.122 -0.2556 -0.4673 -0.2185
14935TIP3    H266221   0.234   0.450  12.139 -0.7715  0.4924 -0.0920
14936TIP3   OH266222   1.119   1.000  15.933  0.7380 -0.6248  0.3844
14936TIP3    H166223   1.026   0.976  15.938  0.8831 -1.4708 -0.5755
14936TIP3    H266224   1.137   1.044  16.016 -0.0421 -2.1869  1.4393
14937TIP3   OH266225   4.618   0.280   0.711 -0.1118 -0.0050  0.2347
14937TIP3    H166226   4.692   0.230   0.675  0.2253 -1.2830  2.5310
14937TIP3    H266227   4.545   0.218   0.710 -0.2765  0.1703  1.0681
14938TIP3   OH266228   0.447   1.887  12.157  0.3148  0.2923 -0.0535
14938TIP3    H166229   0.396   1.820  12.110  2.3044 -0.9530 -0.5533
14938TIP3    H266230   0.475   1.843  12.237  1.9697  0.3631 -0.5667
14939TIP3   OH266231   5.538   4.163  15.461 -0.2239 -0.7483  0.7534
14939TIP3    H166232   5.610   4.100  15.456  0.3442 -0.3545  2.8902
14939TIP3    H266233   5.465   4.113  15.498 -0.1433 -0.4769  1.2975
14940TIP3   OH266234   5.787   3.494   0.263 -0.4495 -0.5155 -0.2440
14940TIP3    H166235   5.790   3.529   0.352  3.6947 -1.2222  0.0747
14940TIP3    H266236   5.746   3.408   0.273  0.6975 -0.9415  1.2034
14941TIP3   OH266237   1.621   5.699   6.238  0.4781  0.4343 -0.3423
14941TIP3    H166238   1.653   5.719   6.326 -1.3369  1.3148  0.1521
14941TIP3    H266239   1.582   5.612   6.246  0.4933  0.4277 -0.3364
14942TIP3   OH266240   4.193   1.618  15.030 -0.3493 -0.2809 -0.5877
14942TIP3    H166241   4.183   1.523  15.030 -0.0085 -0.3284  0.3707
14942TIP3    H266242   4.126   1.649  15.091 -1.3749  0.2189 -1.9237
14943TIP3   OH266243   2.895   3.274   0.539  0.0981  0.0453 -0.1438
14943TIP3    H166244   2.975   3.271   0.591 -0.4242  1.2213  0.7692
14943TIP3    H266245   2.913   3.340   0.472 -0.5858  1.3892  0.9498
14944TIP3   OH266246   0.977   0.916  14.536  0.6578  0.6713  0.6444
14944TIP3    H166247   0.905   0.869  14.579 -0.1080  2.4633  1.4209
14944TIP3    H266248   1.056   0.882  14.576  0.6974 -3.7893 -2.4852
14945TIP3   OH266249   5.323   3.449  15.304  0.1769 -0.2531 -0.1563
14945TIP3    H166250   5.369   3.366  15.315 -0.2926 -0.3319  1.4091
14945TIP3    H266251   5.389   3.510  15.270  1.5446 -0.2952  2.2366
14946TIP3   OH266252   4.487   1.828  12.485 -0.6094  0.2325  0.2206
14946TIP3    H166253   4.461   1.912  12.448 -1.2168 -0.9181 -2.0993
14946TIP3    H266254   4.577   1.815  12.455 -0.4976  0.0498  0.6209
14947TIP3   OH266255   4.276   2.011  13.099 -0.1120  0.0510 -0.0242
14947TIP3    H166256   4.365   2.016  13.135  0.0725  1.4238 -0.6278
14947TIP3    H266257   4.289   1.983  13.009 -0.0379  2.6462 -0.8967
14948TIP3   OH266258   0.921   3.550  11.821  0.1186 -0.2049 -0.3110
14948TIP3    H166259   1.009   3.563  11.857 -0.2584  0.7946  0.2861
14948TIP3    H266260   0.865   3.608  11.873 -0.9226 -0.9429 -0.5824
14949TIP3   OH266261   0.732   1.209  12.149  0.2619 -0.2118 -0.4140
14949TIP3    H166262   0.766   1.298  12.142  0.6357 -0.4149 -1.3476
14949TIP3    H266263   0.720   1.195  12.243  0.5327  0.6922 -0.2330
14950TIP3   OH266264   5.289   6.177  14.920 -0.4429  0.3385  0.5698
14950TIP3    H166265   5.323   6.111  14.981  0.6367  0.1492 -0.1925
14950TIP3    H266266   5.310   6.261  14.962 -0.1318  0.2050  0.6887
14951TIP3   OH266267   3.120   1.982  14.104  0.0535  1.1342  0.2001
14951TIP3    H166268   3.057   1.944  14.043 -0.6846  0.9453  1.0488
14951TIP3    H266269   3.197   2.001  14.051 -1.0300  2.1941 -1.0439
14952TIP3   OH266270   2.146   3.714   5.345 -0.7217  0.0059  0.0892
14952TIP3    H166271   2.104   3.753   5.268 -0.6601  1.2812  0.6637
14952TIP3    H266272   2.132   3.779   5.414 -2.1050 -1.7473  1.5588
14953TIP3   OH266273   5.066   1.171   2.430  0.3753  0.1924  0.7545
14953TIP3    H166274   5.132   1.120   2.383  1.5881  0.7932  1.7235
14953TIP3    H266275   5.022   1.222   2.362  1.1975  0.0841  0.1197
14954TIP3   OH266276   1.027   6.079   1.988 -0.6559  0.1552 -0.3417
14954TIP3    H166277   0.994   6.150   1.933 -0.2484 -0.1342 -0.9663
14954TIP3    H266278   1.057   6.012   1.926  0.8208  0.2818  0.1918
14955TIP3   OH266279   5.430   0.598  16.444  0.6698 -0.3749 -0.3441
14955TIP3    H166280   5.375   0.561  16.375 -0.3233 -0.8910  0.7110
14955TIP3    H266281   5.519   0.592  16.408  0.1328 -0.1031 -1.8131
14956TIP3   OH266282   3.003   6.067  12.035 -0.2095 -0.5000 -0.7200
14956TIP3    H166283   2.959   6.053  11.950 -2.3421  1.1643  0.0045
14956TIP3    H266284   2.934   6.051  12.100  1.2137 -1.0960  0.7039
14957TIP3   OH266285   0.928   4.309   4.803  0.0395  0.0622  0.0519
14957TIP3    H166286   1.018   4.331   4.779 -0.2323  0.9895 -0.1720
14957TIP3    H266287   0.889   4.277   4.721  0.6459 -2.0894  0.5408
14958TIP3   OH266288   1.930   3.048  13.985 -0.0005  0.0026 -0.0756
14958TIP3    H166289   1.988   3.108  14.032 -1.1766  0.2679  1.0823
14958TIP3    H266290   1.988   2.978  13.955  1.7520  2.4172 -2.9404
14959TIP3   OH266291   6.569   1.928  16.422 -0.1326 -0.0894 -0.4250
14959TIP3    H166292   6.535   1.907  16.509 -0.2578  1.5186 -0.0626
14959TIP3    H266293   6.599   1.844  16.387 -0.0226 -0.7513  1.1865
14960TIP3   OH266294   0.542   5.762   1.443  0.8781  0.0316 -0.4614
14960TIP3    H166295   0.627   5.805   1.433  1.2182 -0.8917 -1.8927
14960TIP3    H266296   0.535   5.745   1.537  1.2225  2.1361 -0.0110
14961TIP3   OH266297   2.342   0.295  12.893  0.5242 -0.3813  0.1328
14961TIP3    H166298   2.326   0.219  12.837  1.0016 -1.7051  1.7299
14961TIP3    H266299   2.437   0.299  12.901  0.4946  0.3007  0.1854
14962TIP3   OH266300   2.326   0.929  16.098  0.0950 -0.4859 -0.5072
14962TIP3    H166301   2.264   0.998  16.120 -0.1961 -1.4929  2.2704
14962TIP3    H266302   2.412   0.965  16.123  0.2376 -0.2679 -1.3037
14963TIP3   OH266303   1.524   6.376   1.426  0.4989  0.1745  0.1724
14963TIP3    H166304   1.580   6.380   1.349  0.2758 -1.3858 -0.1072
14963TIP3    H266305   1.582   6.398   1.499  0.6551  1.9162 -0.4232
14964TIP3   OH266306   5.711   3.236  15.104 -0.0135  0.0485 -0.2176
14964TIP3    H166307   5.775   3.274  15.163  0.0709  0.7304 -0.7424
14964TIP3    H266308   5.705   3.298  15.031 -2.0854  0.5942  0.3489
14965TIP3   OH266309   4.306   5.903   2.075  0.3912  0.2311  0.0309
14965TIP3    H166310   4.279   5.902   2.167  1.9555  1.2719  0.5438
14965TIP3    H266311   4.394   5.942   2.076  0.1684  0.9279 -1.9773
14966TIP3   OH266312   4.442   4.952   4.075  0.1326 -0.2362  0.0002
14966TIP3    H166313   4.509   5.014   4.047  1.1119 -1.2817 -0.0809
14966TIP3    H266314   4.473   4.920   4.160 -1.5723  1.1091  1.1995
14967TIP3   OH266315   2.355   1.006   1.305 -0.0660 -0.1322 -0.4279
14967TIP3    H166316   2.366   1.089   1.352 -1.5143 -0.7655  1.1461
14967TIP3    H266317   2.359   1.031   1.212 -0.9198  1.7799 -0.0088
14968TIP3   OH266318   3.009   2.464  14.029 -0.4163 -0.2534 -0.3556
14968TIP3    H166319   3.092   2.424  14.055  0.1670  0.7535 -0.6134
14968TIP3    H266320   2.999   2.539  14.088 -2.0087 -1.3394  0.8246
14969TIP3   OH266321   0.596   1.374   1.687  0.3565  0.0690 -0.5475
14969TIP3    H166322   0.585   1.421   1.769  1.9662  1.2088 -0.9439
14969TIP3    H266323   0.658   1.426   1.636 -1.2014 -0.1411 -2.8633
14970TIP3   OH266324   1.050   3.340   4.606  0.6902  0.1367  0.6188
14970TIP3    H166325   1.024   3.389   4.684  0.7450 -2.6108  2.5105
14970TIP3    H266326   0.973   3.341   4.550  0.4456  1.6612  0.9504
14971TIP3   OH266327   0.236   5.878   4.669 -0.5604  0.1491  0.6467
14971TIP3    H166328   0.240   5.861   4.763 -0.0073 -0.3739  0.5371
14971TIP3    H266329   0.192   5.963   4.662 -0.5302  0.2352  1.3814
14972TIP3   OH266330   4.141   5.837   6.231 -0.3232 -0.1849 -0.1460
14972TIP3    H166331   4.080   5.790   6.288 -0.5824 -1.7256 -1.6010
14972TIP3    H266332   4.203   5.878   6.291 -0.1239 -2.3760  1.2769
14973TIP3   OH266333   2.488   0.008   5.852  1.1061  0.3487  0.0277
14973TIP3    H166334   2.531   0.090   5.875  0.3169  1.0582 -0.9431
14973TIP3    H266335   2.461  -0.029   5.936  4.3280 -0.6032  0.7820
14974TIP3   OH266336   1.256   0.228   3.787 -0.2754  0.0169  0.0601
14974TIP3    H166337   1.301   0.150   3.819 -1.3088 -0.7269 -0.2714
14974TIP3    H266338   1.220   0.202   3.702 -0.8060  0.7890  0.0408
14975TIP3   OH266339   4.149   2.892  14.652  0.1385  0.1977  0.4917
14975TIP3    H166340   4.198   2.887  14.735 -1.2469  1.5275  1.4469
14975TIP3    H266341   4.105   2.977  14.656 -0.3931  0.0439 -1.3953
14976TIP3   OH266342   0.117   1.953  12.026 -0.0383 -0.4698  0.4911
14976TIP3    H166343   0.068   2.024  12.067  1.4690  0.2077  1.1973
14976TIP3    H266344   0.158   1.993  11.949  0.8008 -0.5402  0.8827
14977TIP3   OH266345   4.127   5.356   4.876 -0.1517  0.8004  0.2029
14977TIP3    H166346   4.191   5.324   4.813  1.3069 -0.4505  2.1959
14977TIP3    H266347   4.058   5.290   4.875 -0.2562  0.9100 -0.2259
14978TIP3   OH266348   0.200   1.448  13.353  0.2388 -0.2341  0.2024
14978TIP3    H166349   0.119   1.473  13.309 -0.9664 -2.6230  0.9260
14978TIP3    H266350   0.242   1.386  13.292  0.4810 -0.6076  0.7456
14979TIP3   OH266351   1.107   1.598   2.796 -0.0850  0.6256 -0.0672
14979TIP3    H166352   1.188   1.639   2.767  0.6814 -1.0209 -0.3242
14979TIP3    H266353   1.067   1.564   2.717  0.7341 -1.6112  0.4201
14980TIP3   OH266354   1.421   2.208   1.520 -0.0195  0.1222 -0.1854
14980TIP3    H166355   1.464   2.239   1.441 -1.0012 -1.9014 -1.5904
14980TIP3    H266356   1.490   2.163   1.569 -0.0031 -1.2351 -1.3882
14981TIP3   OH266357   0.328   1.198  13.297 -0.2581 -0.5058  0.1978
14981TIP3    H166358   0.277   1.198  13.216 -2.8589 -0.5747  1.7282
14981TIP3    H266359   0.324   1.107  13.328 -0.6482 -0.1714  1.1724
14982TIP3   OH266360   0.523   3.528  16.820 -0.3037 -0.5682  0.3658
14982TIP3    H166361   0.469   3.450  16.810 -1.8028  0.4603  0.0815
14982TIP3    H266362   0.461   3.598  16.841  1.1213  0.3453  1.7726
14983TIP3   OH266363   3.157   4.264  16.234 -0.0905  0.0797  0.1481
14983TIP3    H166364   3.183   4.323  16.163 -0.9443 -0.0532 -0.2926
14983TIP3    H266365   3.062   4.253  16.223  0.1419 -2.0145 -0.3093
14984TIP3   OH266366   3.959   0.333   2.153 -0.0282 -0.8168 -0.1806
14984TIP3    H166367   3.906   0.409   2.128  1.5875  0.6303  0.5672
14984TIP3    H266368   3.896   0.270   2.187 -1.3992  0.2943 -0.5652
14985TIP3   OH266369   4.669   3.499   2.227  0.8226  0.0613 -0.3329
14985TIP3    H166370   4.673   3.499   2.132  0.0285  2.2629 -0.4312
14985TIP3    H266371   4.760   3.514   2.255  1.0657 -0.6546 -0.7305
14986TIP3   OH266372   2.390   3.573  17.025  0.6941 -0.1619  0.1601
14986TIP3    H166373   2.457   3.531  17.078  1.3828 -0.6696 -1.0849
14986TIP3    H266374   2.437   3.641  16.976  0.4703 -1.0297 -1.3021
14987TIP3   OH266375   5.468   5.178  11.984  0.2518 -0.2979  0.2171
14987TIP3    H166376   5.378   5.203  11.962  0.9341  1.2957 -1.0688
14987TIP3    H266377   5.469   5.083  11.979 -1.7049 -0.4605  1.7960
14988TIP3   OH266378   3.865   1.028  13.905 -0.0346  0.6141 -0.3120
14988TIP3    H166379   3.849   0.957  13.966 -1.7965  1.5973  0.4481
14988TIP3    H266380   3.944   1.002  13.858  0.7414 -0.7016  1.5949
14989TIP3   OH266381   1.608   1.319  15.345 -0.0086  1.0897 -0.3622
14989TIP3    H166382   1.606   1.283  15.256 -0.9960  0.4818 -0.1013
14989TIP3    H266383   1.701   1.333  15.363  0.2672  0.2712 -1.1122
14990TIP3   OH266384   2.455   5.672   5.148 -0.2815  0.2615  0.0662
14990TIP3    H166385   2.519   5.713   5.205  1.4473 -0.3394 -1.3657
14990TIP3    H266386   2.408   5.745   5.108  1.0418  0.7980 -0.5510
14991TIP3   OH266387   3.864   6.575  16.790  0.3373  0.2885  0.0230
14991TIP3    H166388   3.953   6.545  16.807 -0.1962 -1.6862 -0.4814
14991TIP3    H266389   3.853   6.567  16.696 -0.7556 -0.6458  0.2119
14992TIP3   OH266390   0.677   0.850  11.227  0.6346  0.0825 -0.0957
14992TIP3    H166391   0.634   0.809  11.152  1.4253  0.9234 -1.0256
14992TIP3    H266392   0.627   0.819  11.303 -0.1555 -0.8049 -0.9562
14993TIP3   OH266393   3.000   0.949   6.605 -0.1173  0.0956  0.0825
14993TIP3    H166394   2.998   0.954   6.510  1.5137  0.0155  0.0010
14993TIP3    H266395   2.956   1.028   6.635 -0.1070  0.4253 -0.7579
14994TIP3   OH266396   0.765   6.784   3.701  0.0479  0.1262  0.0790
14994TIP3    H166397   0.795   6.832   3.623 -0.2780 -0.0208 -0.1367
14994TIP3    H266398   0.796   6.837   3.774  1.3789 -0.3249 -0.1185
14995TIP3   OH266399   5.207   2.764  11.233  0.6992 -0.3032  0.3650
14995TIP3    H166400   5.126   2.715  11.216  1.3618 -1.4680  0.4119
14995TIP3    H266401   5.184   2.855  11.217 -1.0205 -0.4260  1.8175
14996TIP3   OH266402   1.608   0.774  16.728  0.5430 -0.0974 -0.3731
14996TIP3    H166403   1.700   0.755  16.742  1.5557  0.7942 -4.3778
14996TIP3    H266404   1.598   0.867  16.748  0.9945  0.2143 -1.5043
14997TIP3   OH266405   3.710   5.783   5.150  0.2718  0.0082 -0.0084
14997TIP3    H166406   3.664   5.796   5.233  1.1230  0.2935  0.4370
14997TIP3    H266407   3.657   5.830   5.086  1.0256  2.2059  0.8632
14998TIP3   OH266408   4.424   4.802  17.056 -0.5275 -0.0016  0.1208
14998TIP3    H166409   4.450   4.855  16.980 -0.3469 -0.8750 -0.4450
14998TIP3    H266410   4.469   4.843  17.130  0.3979  0.0494 -0.4542
14999TIP3   OH266411   3.187   0.221   0.352  0.6343 -0.3476  0.5482
14999TIP3    H166412   3.141   0.138   0.363 -1.4176  0.8227  1.4862
14999TIP3    H266413   3.251   0.223   0.423 -0.3654 -0.5012  1.4878
15000TIP3   OH266414   2.814   0.740   0.791 -0.3042  0.0258  0.0407
15000TIP3    H166415   2.731   0.701   0.819  0.0142 -0.9228 -0.2760
15000TIP3    H266416   2.878   0.670   0.805  0.5729  0.9962  0.9802
15001TIP3   OH266417   4.711   3.646   1.602 -0.3710 -0.4381  0.1301
15001TIP3    H166418   4.692   3.568   1.654 -0.2433 -0.2831  0.4139
15001TIP3    H266419   4.693   3.620   1.512 -0.1676 -0.8469  0.2056
15002TIP3   OH266420   4.130   2.984   3.295 -0.0200 -0.4768  0.2185
15002TIP3    H166421   4.085   2.983   3.379 -0.3741  0.9958  0.0789
15002TIP3    H266422   4.065   3.015   3.232  0.9409  1.0401 -0.1041
15003TIP3   OH266423   2.921   1.494   0.227  0.2280  0.1524 -0.1095
15003TIP3    H166424   2.887   1.480   0.315 -0.1335 -1.4756 -0.4743
15003TIP3    H266425   2.986   1.563   0.237  1.1905 -0.9397  1.6912
15004TIP3   OH266426   5.438   2.432   2.214 -0.0122 -0.1257  0.5765
15004TIP3    H166427   5.430   2.363   2.280  1.7646 -1.5125 -0.5724
15004TIP3    H266428   5.465   2.510   2.264  0.2560 -0.8633  1.6148
15005TIP3   OH266429   3.653   1.264   5.324 -0.4821  0.7699 -0.2589
15005TIP3    H166430   3.600   1.307   5.257 -0.2674  1.1409 -0.1918
15005TIP3    H266431   3.675   1.179   5.286 -1.4084  0.4692 -0.1512
15006TIP3   OH266432   4.396   4.407   3.997  0.4885 -0.0679  0.0130
15006TIP3    H166433   4.489   4.428   3.990  0.8649 -1.3773  0.6743
15006TIP3    H266434   4.394   4.311   3.999 -0.9696 -0.0900 -1.2099
15007TIP3   OH266435   0.878   0.864  15.651  0.5125  0.6936  0.3774
15007TIP3    H166436   0.815   0.851  15.722 -0.3492  1.8722 -0.1373
15007TIP3    H266437   0.931   0.785  15.651 -0.8822 -0.2786  0.9298
15008TIP3   OH266438   0.537   3.854  11.594 -0.7084  0.1553 -0.5985
15008TIP3    H166439   0.481   3.837  11.670  1.1205 -1.7854  0.4153
15008TIP3    H266440   0.513   3.942  11.566 -2.6379  0.2721  1.1761
15009TIP3   OH266441   1.857   4.520  13.634  0.2037 -0.8402 -0.2175
15009TIP3    H166442   1.815   4.595  13.594  2.1891 -0.1066 -1.0641
15009TIP3    H266443   1.812   4.508  13.717 -1.2927  0.1704 -0.8457
15010TIP3   OH266444   0.060   0.722  16.398 -0.4034 -0.0081  0.2402
15010TIP3    H166445  -0.013   0.725  16.460  1.3055  0.2400  2.3666
15010TIP3    H266446   0.116   0.794  16.424  0.4488  0.0305 -1.5836
15011TIP3   OH266447   2.758   4.957  11.504 -0.0501  0.3311 -0.6826
15011TIP3    H166448   2.845   4.971  11.468  0.1351 -0.4474 -0.5396
15011TIP3    H266449   2.699   4.982  11.433  0.2309  2.4343 -0.2462
15012TIP3   OH266450   1.270   1.672  13.768 -0.0466 -0.0274 -0.0766
15012TIP3    H166451   1.190   1.646  13.812 -0.1382  0.0174 -0.2171
15012TIP3    H266452   1.255   1.762  13.740  0.1131  0.0358  0.0397
15013TIP3   OH266453   6.312   3.887   0.127 -0.3159 -0.8928  0.0974
15013TIP3    H166454   6.314   3.981   0.111  1.6592 -0.7899  0.7196
15013TIP3    H266455   6.243   3.875   0.192 -0.0240  0.2198  0.6230
15014TIP3   OH266456   2.866   1.298   3.764  0.4561 -0.4702  0.3717
15014TIP3    H166457   2.884   1.383   3.724  1.7812 -0.6691  0.5110
15014TIP3    H266458   2.790   1.265   3.715  1.9469 -0.6600 -1.9851
15015TIP3   OH266459   4.075   2.689  13.809 -0.2191 -0.2543 -0.1852
15015TIP3    H166460   4.056   2.661  13.719  2.1549  0.0272 -0.8343
15015TIP3    H266461   4.064   2.784  13.807  0.0659 -0.2229 -0.2376
15016TIP3   OH266462   3.468   6.074  11.886 -0.2164 -0.7232 -0.2716
15016TIP3    H166463   3.443   6.019  11.812 -0.2459 -0.9358 -0.1079
15016TIP3    H266464   3.396   6.064  11.949 -1.2826  1.1908 -1.1049
15017TIP3   OH266465   1.803   2.475  13.072  0.4129 -0.2395 -0.4257
15017TIP3    H166466   1.807   2.415  12.998  2.6769  0.8570 -1.2992
15017TIP3    H266467   1.734   2.537  13.049  2.1260  1.0477 -2.5091
15018TIP3   OH266468   5.123   6.087  13.579  0.2556 -0.1827 -0.1000
15018TIP3    H166469   5.061   6.054  13.645  0.7568 -2.1835 -0.5609
15018TIP3    H266470   5.203   6.103  13.628 -0.3133  1.5386  0.3331
15019TIP3   OH266471   1.495   3.951  10.990  0.6346  0.5072  1.0264
15019TIP3    H166472   1.424   3.887  10.978  0.7828  0.3177  1.1645
15019TIP3    H266473   1.518   3.978  10.901 -0.6626  1.7314  1.0036
15020TIP3   OH266474   0.850   1.261   3.090  0.8274 -0.0954  0.1909
15020TIP3    H166475   0.874   1.202   3.161  0.4265  0.2072  0.5866
15020TIP3    H266476   0.920   1.251   3.025  0.7923 -0.9553  0.2761
15021TIP3   OH266477   4.378   5.462   1.699 -0.4337 -0.8633  0.1958
15021TIP3    H166478   4.378   5.367   1.693  0.4597 -0.8566 -0.0671
15021TIP3    H266479   4.286   5.487   1.694 -0.7024 -1.7360  0.6547
15022TIP3   OH266480   1.462   3.745   4.655  0.4527  0.3946  0.3730
15022TIP3    H166481   1.430   3.817   4.709  1.7974  1.5741 -0.3469
15022TIP3    H266482   1.385   3.689   4.642 -0.5875  1.6136  1.0540
15023TIP3   OH266483   5.447   1.632  13.767 -0.1167  0.1201  0.3399
15023TIP3    H166484   5.415   1.604  13.681 -0.0457 -0.8111  0.6064
15023TIP3    H266485   5.382   1.696  13.797 -0.1147  0.4950 -0.4219
15024TIP3   OH266486   3.986   2.270  12.474  0.2593 -0.1925 -0.3826
15024TIP3    H166487   4.021   2.289  12.387  0.7293 -0.0442 -0.1656
15024TIP3    H266488   4.011   2.346  12.527 -1.6164  0.6096 -0.5459
15025TIP3   OH266489   2.148   5.202   2.812  0.3257 -0.3815 -0.8857
15025TIP3    H166490   2.119   5.186   2.722  1.4836 -0.1169 -1.3298
15025TIP3    H266491   2.237   5.235   2.802 -0.0858  1.1723  0.2762
15026TIP3   OH266492   6.557   4.256  14.420 -0.0697  0.0352  0.4190
15026TIP3    H166493   6.550   4.344  14.383  0.5871  1.0120  2.4243
15026TIP3    H266494   6.651   4.240  14.426 -0.1856 -1.3188 -0.9838
15027TIP3   OH266495   2.908   5.746  13.062  0.0056  0.2372 -0.1459
15027TIP3    H166496   2.932   5.826  13.109  2.5186 -0.3865 -0.2672
15027TIP3    H266497   2.892   5.682  13.131  2.4924 -0.3419 -0.0129
15028TIP3   OH266498   2.679   0.863   2.780  0.4464 -0.7514  0.3605
15028TIP3    H166499   2.655   0.783   2.734  2.0016 -1.9839  1.5947
15028TIP3    H266500   2.629   0.861   2.861  0.2433 -0.2794  0.2554
15029TIP3   OH266501   3.600   4.847   6.977  0.4422 -0.6924  0.3804
15029TIP3    H166502   3.696   4.849   6.974  0.4963 -1.2067  1.2973
15029TIP3    H266503   3.574   4.806   6.895  1.1926 -3.8369  1.5564
15030TIP3   OH266504   3.137   0.458  13.616  1.0080 -0.0409 -0.5132
15030TIP3    H166505   3.114   0.366  13.628  1.7299  0.0503  2.0452
15030TIP3    H266506   3.199   0.458  13.543 -0.1042 -1.3656 -1.5115
15031TIP3   OH266507   3.307   2.553   0.270 -0.1792  0.3363 -0.0827
15031TIP3    H166508   3.375   2.621   0.271  0.0180  0.1424 -0.0329
15031TIP3    H266509   3.240   2.587   0.212 -0.7735  1.2390  1.0731
15032TIP3   OH266510   2.554   5.286   1.519 -0.4176  0.1997  0.2686
15032TIP3    H166511   2.534   5.194   1.505 -1.2001 -0.1764  3.2084
15032TIP3    H266512   2.646   5.286   1.546  0.1516  0.5526 -1.5412
15033TIP3   OH266513   2.691   5.109   4.537 -0.6574  0.1546  0.2503
15033TIP3    H166514   2.753   5.151   4.478  0.8294  1.1402  2.3914
15033TIP3    H266515   2.677   5.173   4.607  0.9673 -2.4380  3.1819
15034TIP3   OH266516   3.894   5.910  13.057 -0.1225 -0.2012  0.1887
15034TIP3    H166517   3.973   5.856  13.062  0.4478  0.4989 -0.7206
15034TIP3    H266518   3.923   5.998  13.082 -0.2473  0.3805 -1.5671
15035TIP3   OH266519   1.290   0.641  14.822 -0.0184 -0.3498 -0.5345
15035TIP3    H166520   1.251   0.572  14.875 -0.4422  0.0329 -0.3470
15035TIP3    H266521   1.340   0.694  14.884 -0.4656  0.0643 -0.5282
15036TIP3   OH266522   2.666   1.999   4.409 -0.0089 -0.2309 -0.2119
15036TIP3    H166523   2.725   2.071   4.386  3.2511 -2.2580  1.1604
15036TIP3    H266524   2.613   2.034   4.480 -0.4164  1.6154 -1.3561
15037TIP3   OH266525   2.962   6.573  11.876  0.6803  0.7938 -0.7382
15037TIP3    H166526   2.924   6.543  11.959  1.6255 -0.9948 -0.9034
15037TIP3    H266527   3.041   6.620  11.902  0.9918  0.2098 -0.6119
15038TIP3   OH266528   5.410   5.460   4.358 -0.2378 -0.0792 -0.6013
15038TIP3    H166529   5.423   5.473   4.264 -0.4872 -0.2607 -0.6626
15038TIP3    H266530   5.496   5.435   4.391 -0.3204 -0.8084 -0.9169
15039TIP3   OH266531   2.888   4.035  16.568  0.2897  0.2229 -0.4255
15039TIP3    H166532   2.897   3.964  16.504  0.6127 -0.7975  0.7101
15039TIP3    H266533   2.961   4.094  16.549  1.3688 -0.9240  0.0118
15040TIP3   OH266534   3.814   1.160   0.738  0.0953  0.1546  0.2303
15040TIP3    H166535   3.811   1.192   0.828 -0.1739  0.8437 -0.0237
15040TIP3    H266536   3.840   1.236   0.686  1.1200 -0.4431 -0.1812
15041TIP3   OH266537   0.815   3.805  12.873 -0.0206 -0.0266 -0.1039
15041TIP3    H166538   0.901   3.800  12.831 -0.8834 -0.4812 -1.9049
15041TIP3    H266539   0.811   3.894  12.908  0.9900  0.1691 -0.4493
15042TIP3   OH266540   5.895   6.156   1.041 -0.2981  0.2009 -0.5275
15042TIP3    H166541   5.912   6.167   1.135  0.0410  0.0278 -0.5662
15042TIP3    H266542   5.881   6.245   1.009  0.4155  0.3425 -0.4666
15043TIP3   OH266543   3.302   2.409   4.946  0.6327  0.0314  0.2505
15043TIP3    H166544   3.231   2.349   4.920  2.2364 -2.0709  0.4206
15043TIP3    H266545   3.363   2.408   4.873  1.5005  0.0809  0.9504
15044TIP3   OH266546   4.598   3.427   0.989  0.2339  0.1197 -0.1202
15044TIP3    H166547   4.518   3.395   1.029 -0.5267  0.7684 -1.0751
15044TIP3    H266548   4.637   3.485   1.054  1.2748 -2.0960  1.3685
15045TIP3   OH266549   4.322   4.849   5.782 -0.3954 -0.4392 -0.0468
15045TIP3    H166550   4.242   4.799   5.797  0.4090 -1.6378  0.4111
15045TIP3    H266551   4.340   4.839   5.689 -0.8852  0.0199 -0.1962
15046TIP3   OH266552   6.136   0.002  13.234 -0.1436  0.0563 -0.3511
15046TIP3    H166553   6.170  -0.030  13.318  2.1392 -1.5312 -1.7604
15046TIP3    H266554   6.094   0.085  13.255 -1.2607 -1.1248  2.6296
15047TIP3   OH266555   2.406   4.930  17.170 -0.2377  0.3956  0.5011
15047TIP3    H166556   2.329   4.881  17.143 -2.2681  2.4081  2.2196
15047TIP3    H266557   2.467   4.922  17.097 -1.6208 -2.1180 -0.4995
15048TIP3   OH266558   1.731   0.934   0.758  0.2140  0.2512  0.0838
15048TIP3    H166559   1.759   0.958   0.846 -0.4104  0.4791  0.2247
15048TIP3    H266560   1.801   0.964   0.701  0.3819  0.5658  0.4536
15049TIP3   OH266561   0.751   0.137   2.515 -0.0746  0.2384 -0.5859
15049TIP3    H166562   0.845   0.138   2.501  0.1621  1.3603  0.8217
15049TIP3    H266563   0.713   0.152   2.428  1.0465  0.1933 -1.0967
15050TIP3   OH266564   3.228   5.542  16.875  0.4092  0.0774  0.1034
15050TIP3    H166565   3.251   5.616  16.819  2.3624 -2.2098 -2.3514
15050TIP3    H266566   3.301   5.537  16.938  0.1215  0.3826  0.4684
15051TIP3   OH266567   6.360   5.051   4.842 -0.7081 -0.3412  0.0168
15051TIP3    H166568   6.295   4.983   4.863  0.2355 -1.0217  0.8586
15051TIP3    H266569   6.442   5.003   4.830 -0.5298  0.3830 -2.1310
15052TIP3   OH266570   3.442   4.924   4.124 -0.3637  0.0857  0.0289
15052TIP3    H166571   3.462   4.937   4.216 -0.9541 -0.2040  0.2025
15052TIP3    H266572   3.384   4.998   4.102 -0.8737 -0.2889  0.1022
15053TIP3   OH266573   4.943   5.235   3.939 -0.3090  0.3913 -0.1985
15053TIP3    H166574   5.019   5.180   3.919  1.6906  2.0756  2.1223
15053TIP3    H266575   4.955   5.314   3.887  0.9161  1.6438  1.8331
15054TIP3   OH266576   6.125   0.773  14.203  0.2061  0.2745 -0.4575
15054TIP3    H166577   6.051   0.753  14.147 -1.4745  2.8456  0.6644
15054TIP3    H266578   6.097   0.745  14.290  0.8571  0.5663 -0.1470
15055TIP3   OH266579   1.361   5.610   2.454  0.2868  0.2284  0.4695
15055TIP3    H166580   1.278   5.607   2.407 -0.8362  1.4756  2.2381
15055TIP3    H266581   1.337   5.599   2.546  2.1588 -0.0481  0.9703
15056TIP3   OH266582   3.033   0.805  14.001  0.1961 -1.0306  0.1468
15056TIP3    H166583   3.004   0.767  13.918 -0.4880  1.2091 -0.7265
15056TIP3    H266584   3.110   0.754  14.025 -0.4328 -2.6773 -1.1005
15057TIP3   OH266585   3.693   0.273  11.783 -0.0711  0.0995 -0.7156
15057TIP3    H166586   3.710   0.186  11.745 -0.6527  0.0371 -0.8487
15057TIP3    H266587   3.602   0.268  11.813  0.3917  0.1317  0.7512
15058TIP3   OH266588   4.232   1.046   6.122  0.0940 -0.3707  0.3227
15058TIP3    H166589   4.179   1.106   6.070  0.2420 -0.3344  0.2111
15058TIP3    H266590   4.212   1.068   6.213  0.1374 -0.1611  0.2821
15059TIP3   OH266591   5.317   4.630  14.816 -0.2138  1.3144  0.1140
15059TIP3    H166592   5.287   4.540  14.803 -0.4080  1.2906  0.7110
15059TIP3    H266593   5.409   4.628  14.789 -0.3635  1.0677 -0.4002
15060TIP3   OH266594   0.043   6.208  12.523  0.8593 -0.4922  0.3292
15060TIP3    H166595   0.030   6.217  12.428  0.6674  1.6989  0.4940
15060TIP3    H266596   0.090   6.126  12.533  1.4623 -0.4670 -1.7397
15061TIP3   OH266597   3.255   0.359  12.395  0.5433 -0.5078  0.2345
15061TIP3    H166598   3.182   0.421  12.393  0.3457 -0.6096 -3.5666
15061TIP3    H266599   3.328   0.410  12.430 -0.2053  1.1569 -0.5052
15062TIP3   OH266600   0.186   2.804  12.051 -0.1749  0.0910  0.3181
15062TIP3    H166601   0.233   2.742  11.995  0.1112 -0.0506  0.7101
15062TIP3    H266602   0.218   2.785  12.139 -0.7235  0.2194  0.5467
15063TIP3   OH266603   3.410   1.430   2.397 -0.2450  0.6454 -0.2207
15063TIP3    H166604   3.355   1.464   2.468  1.8347  0.4587  1.6159
15063TIP3    H266605   3.498   1.429   2.435  1.2754  1.9990 -3.3478
15064TIP3   OH266606   6.470   1.400  12.964 -0.1439  0.4005  0.0239
15064TIP3    H166607   6.377   1.399  12.941 -0.0499  0.0432 -0.3537
15064TIP3    H266608   6.490   1.309  12.985  0.5656  0.0953 -1.7613
15065TIP3   OH266609   0.153   1.916   1.261  0.0035 -0.0103 -0.7608
15065TIP3    H166610   0.207   1.966   1.322  0.4415 -1.3403 -0.0235
15065TIP3    H266611   0.173   1.953   1.175  1.1365  0.3391 -0.3635
15066TIP3   OH266612   0.779   0.817  12.048  0.2582 -0.0335  0.0140
15066TIP3    H166613   0.858   0.867  12.025  0.1411  0.3600  0.4683
15066TIP3    H266614   0.812   0.730  12.071  0.5871  0.2080  0.4654
15067TIP3   OH266615   4.004   4.331  12.476  0.5964  0.5803 -0.1489
15067TIP3    H166616   3.911   4.324  12.452  1.1324 -1.5541 -1.8860
15067TIP3    H266617   4.009   4.290  12.562  0.0285 -0.0109 -0.3844
15068TIP3   OH266618   6.538   5.776  16.020  0.6076 -0.3818  0.2935
15068TIP3    H166619   6.537   5.870  16.036  0.6783 -0.5640  1.4633
15068TIP3    H266620   6.499   5.766  15.933 -0.1757  0.6645  0.5016
15069TIP3   OH266621   1.429   0.996   6.555 -0.0730  0.0709 -0.3330
15069TIP3    H166622   1.338   0.987   6.527  0.1036  0.0965 -0.9399
15069TIP3    H266623   1.457   1.081   6.521  0.3250 -0.1583 -0.6020
15070TIP3   OH266624   0.097   5.259  14.402 -0.5454  0.0894 -0.1338
15070TIP3    H166625   0.079   5.171  14.370  1.4625 -0.2957 -0.3537
15070TIP3    H266626   0.131   5.245  14.491 -0.6074  0.6669 -0.0166
15071TIP3   OH266627   4.327   5.034  15.093  0.3742 -0.2166 -0.0043
15071TIP3    H166628   4.301   5.085  15.170 -0.3562  0.3220 -0.5907
15071TIP3    H266629   4.256   5.047  15.030 -0.4518 -3.0052  0.2609
15072TIP3   OH266630   1.406   2.460   5.713 -0.3083 -0.3675 -0.3121
15072TIP3    H166631   1.497   2.441   5.691  0.2809  0.2238  1.4474
15072TIP3    H266632   1.391   2.548   5.680 -0.3692 -0.6146 -0.9486
15073TIP3   OH266633   0.320   1.403  12.478 -0.1022 -0.5843  0.0634
15073TIP3    H166634   0.366   1.361  12.551  0.9739  1.5699  0.7214
15073TIP3    H266635   0.288   1.485  12.514 -0.6655 -0.0387 -1.5828
15074TIP3   OH266636   4.782   2.346  16.784 -0.2363  0.5280  0.0512
15074TIP3    H166637   4.864   2.321  16.827 -0.6739  1.7726  1.6870
15074TIP3    H266638   4.730   2.265  16.785  0.8075 -0.1820 -0.6896
15075TIP3   OH266639   0.116   3.893  11.796 -0.1606 -0.0124 -0.1997
15075TIP3    H166640   0.075   3.831  11.736 -1.3898 -0.4317  1.0178
15075TIP3    H266641   0.062   3.972  11.788 -0.6710 -0.2548  0.7266
15076TIP3   OH266642   3.993   2.974   3.917  0.3189  0.5674 -0.3414
15076TIP3    H166643   3.960   3.059   3.888 -0.1612  0.8267  0.8834
15076TIP3    H266644   3.914   2.922   3.932  0.5435  0.4434  0.4524
15077TIP3   OH266645   0.068   3.893  13.187 -0.0324  0.4388  0.2342
15077TIP3    H166646   0.114   3.811  13.205  0.4172  0.6197 -0.0824
15077TIP3    H266647  -0.015   3.866  13.148 -0.0438  0.1233  0.4697
15078TIP3   OH266648   5.125   6.117  14.709  0.0780  0.0022 -0.2744
15078TIP3    H166649   5.119   6.022  14.699 -0.3284  0.0481 -0.4913
15078TIP3    H266650   5.191   6.129  14.777  0.0907 -0.4370 -0.2014
15079TIP3   OH266651   3.460   5.640   4.126  0.0924 -0.5964  0.0318
15079TIP3    H166652   3.462   5.671   4.217 -1.5473  0.3505 -0.1998
15079TIP3    H266653   3.527   5.572   4.122 -0.1982 -1.0794  2.1150
15080TIP3   OH266654   1.517   1.159   0.042 -0.4596  0.0664 -0.3275
15080TIP3    H166655   1.495   1.107   0.120 -1.4347 -0.5917 -1.0175
15080TIP3    H266656   1.505   1.250   0.070 -0.8850 -0.1628  0.2690
15081TIP3   OH266657   2.634   5.589   0.477 -0.2539 -0.6735  0.0942
15081TIP3    H166658   2.563   5.649   0.456  0.8880  0.9412  0.6986
15081TIP3    H266659   2.600   5.537   0.551 -0.7049  0.2837  0.5728
15082TIP3   OH266660   3.090   6.281   3.189  0.4068  0.3230  0.4131
15082TIP3    H166661   3.110   6.364   3.232 -1.8690  1.0268  0.2501
15082TIP3    H266662   3.087   6.217   3.260  1.1406  0.5643  0.6749
15083TIP3   OH266663   0.716   5.659   2.894 -0.0468  0.2466  0.5669
15083TIP3    H166664   0.758   5.727   2.947  2.5002 -0.0656 -0.8506
15083TIP3    H266665   0.781   5.589   2.888 -0.9909 -0.5659 -1.3014
15084TIP3   OH266666   6.377   5.025   5.198  0.1818 -0.1629  0.0943
15084TIP3    H166667   6.389   4.947   5.143  0.3590 -0.2963  0.3198
15084TIP3    H266668   6.434   5.010   5.274  1.8497  1.1203 -0.8327
15085TIP3   OH266669   4.437   6.204  11.206 -0.2248 -0.2971  0.2881
15085TIP3    H166670   4.434   6.110  11.224  0.3561 -0.4278 -0.2809
15085TIP3    H266671   4.411   6.245  11.289 -1.1190 -0.9680  0.3523
15086TIP3   OH266672   5.398   1.701  12.687 -0.7922  0.2395 -0.5172
15086TIP3    H166673   5.430   1.743  12.607 -0.0622  2.1224  0.6946
15086TIP3    H266674   5.319   1.749  12.709 -0.5592  0.2545  0.3066
15087TIP3   OH266675   0.062   0.755  12.044 -0.0476 -0.7190  0.2212
15087TIP3    H166676   0.142   0.704  12.035  0.3535 -0.0088 -0.3241
15087TIP3    H266677   0.020   0.750  11.958  0.2218  0.2293  0.0188
15088TIP3   OH266678   0.139   5.149  15.902 -0.0158 -0.3652  0.4160
15088TIP3    H166679   0.171   5.098  15.827 -1.0933  1.7743 -1.6054
15088TIP3    H266680   0.189   5.115  15.976  0.7880 -2.8982 -1.1374
15089TIP3   OH266681   1.073   2.251  13.765 -0.5227  0.0285  0.5480
15089TIP3    H166682   1.083   2.328  13.822  3.5346  0.3897 -0.3747
15089TIP3    H266683   1.014   2.280  13.696 -1.3532  1.2912  1.7199
15090TIP3   OH266684   1.898   2.991  16.640 -0.1836 -0.1035 -0.0730
15090TIP3    H166685   1.882   2.906  16.681  2.0286  0.1096  1.4086
15090TIP3    H266686   1.891   3.054  16.711 -1.8588  1.0238 -1.1712
15091TIP3   OH266687   0.157   5.343   2.382 -0.0293 -0.0664 -0.2054
15091TIP3    H166688   0.246   5.353   2.349 -0.1304  0.3437 -0.3681
15091TIP3    H266689   0.141   5.423   2.432 -0.6466  0.3164 -0.9941
15092TIP3   OH266690   5.146   6.101  17.026 -0.9696  0.1440 -0.8294
15092TIP3    H166691   5.078   6.122  17.089  0.0182 -0.8396  0.6142
15092TIP3    H266692   5.228   6.114  17.073 -0.2221 -1.8849 -1.4534
15093TIP3   OH266693   0.503   4.821   5.341  0.3663  0.1505 -0.5231
15093TIP3    H166694   0.567   4.861   5.283  2.5535 -1.5784  0.5385
15093TIP3    H266695   0.491   4.884   5.411  0.8006  0.5611 -0.8124
15094TIP3   OH266696   0.614   2.029   2.352 -0.0331 -0.9600 -0.3012
15094TIP3    H166697   0.615   1.945   2.305 -3.0409 -1.8704  1.0313
15094TIP3    H266698   0.638   2.006   2.442  0.6758 -0.0790 -0.2482
15095TIP3   OH266699   4.851   5.816  12.367  0.4145  0.0348 -0.3253
15095TIP3    H166700   4.769   5.815  12.318  0.9750  0.6567 -1.3068
15095TIP3    H266701   4.844   5.741  12.427 -1.8646  1.4184  1.3018
15096TIP3   OH266702   0.751   5.912   3.714  0.1505 -0.4338 -0.1694
15096TIP3    H166703   0.756   5.816   3.713  0.6933 -0.4066 -0.7420
15096TIP3    H266704   0.799   5.939   3.635  0.1190  0.3120  0.0636
15097TIP3   OH266705   2.439   3.878  11.583 -0.4474 -0.3810 -0.0630
15097TIP3    H166706   2.444   3.971  11.603 -0.2874 -0.6659  1.3794
15097TIP3    H266707   2.530   3.850  11.576 -0.4934 -0.4492 -0.3981
15098TIP3   OH266708   5.404   2.395   2.817  0.4186  0.2298  0.2088
15098TIP3    H166709   5.458   2.438   2.751 -0.2506  2.5921  1.0930
15098TIP3    H266710   5.328   2.453   2.826 -0.7825 -1.4363  1.1525
15099TIP3   OH266711   3.313   2.188   4.618 -0.2234  0.3946 -0.1136
15099TIP3    H166712   3.340   2.250   4.550 -0.6401  1.3227  0.5551
15099TIP3    H266713   3.282   2.242   4.690 -3.0335 -0.5593 -0.4702
15100TIP3   OH266714   1.027   2.034  15.850  0.0167 -0.5351 -0.7203
15100TIP3    H166715   0.933   2.036  15.828  0.4924 -0.1750 -2.9733
15100TIP3    H266716   1.036   1.961  15.911 -1.4965 -1.6067 -1.7185
15101TIP3   OH266717   5.580   2.504  12.390 -0.3705 -0.3922  0.8229
15101TIP3    H166718   5.637   2.580  12.406 -2.2388  1.0953  0.7459
15101TIP3    H266719   5.548   2.516  12.301 -0.6744 -1.3053  0.7961
15102TIP3   OH266720   5.277   4.820  16.132  0.1387  0.1509 -0.2367
15102TIP3    H166721   5.284   4.817  16.036  0.0385 -0.1621 -0.2362
15102TIP3    H266722   5.349   4.877  16.159 -0.5216  1.1562 -0.5638
15103TIP3   OH266723   4.885   3.937   4.752 -0.5596  0.5551  0.1468
15103TIP3    H166724   4.858   3.948   4.843  0.3749 -4.0226  1.2128
15103TIP3    H266725   4.978   3.958   4.751 -0.1050 -1.2731  0.7991
15104TIP3   OH266726   6.625   2.126  12.154  0.0428 -0.0393  0.5855
15104TIP3    H166727   6.556   2.192  12.145 -0.3655 -0.5817 -0.3734
15104TIP3    H266728   6.651   2.132  12.246 -1.9807 -0.4975  1.2439
15105TIP3   OH266729   1.056   0.653  12.670 -0.2870 -0.2416  0.3470
15105TIP3    H166730   1.126   0.659  12.605 -0.3220 -0.0367  0.3246
15105TIP3    H266731   1.025   0.744  12.679 -1.3409 -0.4839 -0.5274
15106TIP3   OH266732   4.966   5.494   1.558  0.2080  0.0557 -0.3694
15106TIP3    H166733   5.034   5.542   1.604  1.2693  1.0176 -2.7737
15106TIP3    H266734   5.009   5.461   1.479 -1.3757 -1.9440 -0.4822
15107TIP3   OH266735   6.690   5.732  10.439 -0.3007 -0.7117 -0.0594
15107TIP3    H166736   6.783   5.715  10.451 -0.1134 -0.7837 -1.4123
15107TIP3    H266737   6.663   5.673  10.368 -0.7000  1.2396 -1.6292
15108TIP3   OH266738   1.518   5.563  11.070  0.1784  0.2443 -0.8286
15108TIP3    H166739   1.574   5.641  11.075 -0.0225  0.3845 -0.7825
15108TIP3    H266740   1.537   5.525  10.984  1.0546 -0.2389 -0.4475
15109TIP3   OH266741   4.949   2.205  10.935 -0.0249 -0.4647  0.0988
15109TIP3    H166742   4.987   2.282  10.893  0.9477 -0.3313  1.1520
15109TIP3    H266743   4.970   2.132  10.877  0.2462 -0.1222 -0.2346
15110TIP3   OH266744   0.983   5.182  16.034 -0.3343 -0.4696  0.4910
15110TIP3    H166745   0.909   5.168  15.975 -0.6627 -0.1841  0.8312
15110TIP3    H266746   0.943   5.203  16.118  0.1329 -0.3085  0.6758
15111TIP3   OH266747   3.596   0.051  15.499  0.0421 -0.2829 -0.6064
15111TIP3    H166748   3.605  -0.034  15.544  0.2473  0.1159  0.1254
15111TIP3    H266749   3.534   0.099  15.554 -0.1560  0.0059 -1.0819
15112TIP3   OH266750   1.949   6.707  10.752  0.0725  0.8269  0.2322
15112TIP3    H166751   2.003   6.726  10.676  0.6176  0.3753  0.4995
15112TIP3    H266752   1.953   6.787  10.805  1.3244  0.4530  0.7405
15113TIP3   OH266753   4.813   5.777  12.706 -0.4288  0.1361  0.0240
15113TIP3    H166754   4.841   5.709  12.767 -0.7494 -0.4090 -0.4351
15113TIP3    H266755   4.832   5.859  12.752 -1.5895 -0.2616  1.2855
15114TIP3   OH266756   1.856   5.418  16.993  0.2821 -0.2778  0.3289
15114TIP3    H166757   1.794   5.415  17.067 -0.1010 -1.7503 -0.0188
15114TIP3    H266758   1.814   5.365  16.926  0.6541  1.0051 -0.9535
15115TIP3   OH266759   2.439   2.644   0.006  0.5091  0.2062 -0.1994
15115TIP3    H166760   2.417   2.704   0.077 -1.5764 -0.3450 -0.3064
15115TIP3    H266761   2.355   2.605  -0.020  1.6306 -1.9807 -0.8308
15116TIP3   OH266762   4.558   1.989   0.331  0.4313  0.1710  0.2356
15116TIP3    H166763   4.510   2.063   0.367 -0.6056 -0.2584 -0.2048
15116TIP3    H266764   4.627   2.028   0.277 -1.2352  0.8907 -1.5149
15117TIP3   OH266765   0.294   2.656  14.222  0.4377 -0.0006  0.0310
15117TIP3    H166766   0.385   2.670  14.249  0.5613  0.6279 -0.6832
15117TIP3    H266767   0.272   2.733  14.170 -0.0536 -0.7934 -0.9759
15118TIP3   OH266768   0.243   4.492  15.624 -0.5060  0.1539  0.5527
15118TIP3    H166769   0.151   4.474  15.639  0.0442 -2.6156  1.3409
15118TIP3    H266770   0.280   4.506  15.711  0.4278 -2.9402  0.7986
15119TIP3   OH266771   5.968   1.499  14.926  0.5734 -0.1588 -0.1181
15119TIP3    H166772   5.926   1.433  14.981  0.4701  0.3880  0.4793
15119TIP3    H266773   6.055   1.463  14.907 -0.0820 -1.2281 -1.2338
15120TIP3   OH266774   5.133   1.610   1.121 -0.8993  0.1410 -0.0775
15120TIP3    H166775   5.044   1.623   1.086 -0.0318  1.7198 -1.9521
15120TIP3    H266776   5.166   1.533   1.074 -0.9852  0.0869 -0.0488
15121TIP3   OH266777   3.987   4.154   6.174 -0.1167 -0.3719 -0.5591
15121TIP3    H166778   4.053   4.157   6.105  1.5239 -1.7420  0.8291
15121TIP3    H266779   3.991   4.241   6.214  0.5584 -0.2892 -0.7838
15122TIP3   OH266780   0.110   3.332  11.422  0.1256  0.0576  0.0045
15122TIP3    H166781   0.175   3.285  11.473 -0.0885 -0.0329  0.1965
15122TIP3    H266782   0.048   3.264  11.395 -0.5136  0.3169  0.7890
15123TIP3   OH266783   0.152   4.975  17.135 -0.2918 -0.3763  0.6963
15123TIP3    H166784   0.193   4.970  17.049 -2.5241  0.6150 -0.5036
15123TIP3    H266785   0.132   4.884  17.158  0.5710 -0.6686  0.3227
15124TIP3   OH266786   1.796   1.582  10.930  0.8279  0.2220 -0.2714
15124TIP3    H166787   1.723   1.571  10.868  2.0828  0.4057 -1.8290
15124TIP3    H266788   1.787   1.508  10.989 -1.4312  0.9732  0.4691
15125TIP3   OH266789   2.460   6.173   4.652 -0.4324 -0.4616 -0.6036
15125TIP3    H166790   2.393   6.187   4.585 -0.8923 -0.2473 -0.1078
15125TIP3    H266791   2.543   6.177   4.604 -0.6676  1.3400 -0.9181
15126TIP3   OH266792   1.109   5.671   5.259  0.0176 -0.5896 -0.2619
15126TIP3    H166793   1.087   5.681   5.166  2.5237 -0.9342 -0.9877
15126TIP3    H266794   1.177   5.736   5.274 -2.5281  1.7335  2.2991
15127TIP3   OH266795   2.559   3.212   1.163  0.5138  0.1006 -0.0586
15127TIP3    H166796   2.574   3.299   1.200  0.4716  0.4240 -0.7814
15127TIP3    H266797   2.640   3.164   1.181  0.7814  0.4897 -0.2101
15128TIP3   OH266798   6.678   0.089   2.942 -0.4472  0.0388 -0.6654
15128TIP3    H166799   6.684   0.155   2.873  1.0344  0.8850  0.1993
15128TIP3    H266800   6.752   0.108   2.999  0.7188 -3.1027 -0.9596
15129TIP3   OH266801   2.315   4.497   3.420  0.4982 -0.0137 -0.3521
15129TIP3    H166802   2.336   4.503   3.513 -0.1042 -0.7109 -0.1577
15129TIP3    H266803   2.220   4.498   3.417  0.5179  1.4674 -1.0861
15130TIP3   OH266804   4.290   1.332   5.741  0.2360 -0.1972  0.2699
15130TIP3    H166805   4.234   1.395   5.696 -0.8988 -0.7465  0.8694
15130TIP3    H266806   4.314   1.376   5.823 -1.5667 -0.9478  1.2663
15131TIP3   OH266807   2.406   1.210   4.435  0.0833 -0.1134 -0.1816
15131TIP3    H166808   2.313   1.191   4.421 -0.3081  1.3043  0.3156
15131TIP3    H266809   2.410   1.253   4.520  1.3848 -1.3180  0.4095
15132TIP3   OH266810   2.314   5.477   2.052 -0.1892 -0.4123 -1.0355
15132TIP3    H166811   2.252   5.418   2.095 -0.0167 -0.8737 -1.4122
15132TIP3    H266812   2.261   5.529   1.992 -0.9078  2.1435  1.5912
15133TIP3   OH266813   1.862   4.068   6.747  0.1534 -0.6155 -0.0061
15133TIP3    H166814   1.843   4.116   6.666  1.3481 -0.1068 -0.0151
15133TIP3    H266815   1.812   3.987   6.740 -0.5011 -0.1568 -0.8149
15134TIP3   OH266816   2.451   4.713   4.388 -0.1382 -0.2256 -0.5376
15134TIP3    H166817   2.471   4.619   4.394 -0.3412 -0.2350  0.1186
15134TIP3    H266818   2.445   4.742   4.479 -0.3535  0.3664 -0.7341
15135TIP3   OH266819   4.641   0.769  14.531 -0.6027 -0.2551  0.1882
15135TIP3    H166820   4.602   0.707  14.592  0.5098 -1.4507 -0.2560
15135TIP3    H266821   4.691   0.829  14.586  0.2079 -1.1838  0.4886
15136TIP3   OH266822   4.981   2.868  13.444  0.0416 -0.8553 -0.3594
15136TIP3    H166823   4.952   2.853  13.534  0.9934 -0.4700  0.0350
15136TIP3    H266824   4.901   2.869  13.392 -0.6553  0.1906  0.6794
15137TIP3   OH266825   1.428   5.769   4.079 -0.7275 -0.1604  1.0408
15137TIP3    H166826   1.379   5.704   4.029 -2.5569  0.5745  1.7920
15137TIP3    H266827   1.361   5.822   4.122  0.7381  1.1519  1.8190
15138TIP3   OH266828   2.762   2.987   1.241  0.0656 -0.2622  0.1611
15138TIP3    H166829   2.786   2.910   1.189 -2.4114 -2.9127  2.5541
15138TIP3    H266830   2.843   3.012   1.286  1.5915  0.4379 -2.7761
15139TIP3   OH266831   3.134   5.556  12.114  0.0038  0.3999 -0.7723
15139TIP3    H166832   3.178   5.506  12.182 -0.1005 -1.2585 -1.8571
15139TIP3    H266833   3.183   5.638  12.108  0.5538  0.1969  0.6562
15140TIP3   OH266834   5.968   1.501   2.709  0.1565  0.4205 -0.1555
15140TIP3    H166835   6.006   1.475   2.626  1.3483 -0.1975  0.5528
15140TIP3    H266836   5.879   1.467   2.706  0.0201  0.8515 -1.3657
15141TIP3   OH266837   1.926   3.848   0.480 -0.0059 -0.2907  0.0118
15141TIP3    H166838   1.980   3.903   0.538 -0.7340  0.1714  0.2634
15141TIP3    H266839   1.848   3.900   0.464 -1.0022 -1.5065  0.7481
15142TIP3   OH266840   3.833   6.041   1.991 -0.7339  0.4668  0.8164
15142TIP3    H166841   3.872   5.970   2.042 -2.2263 -0.3400  0.8927
15142TIP3    H266842   3.814   6.002   1.906 -0.2491  1.1897  0.3709
15143TIP3   OH266843   2.253   1.507   4.983  0.6179 -0.4226  0.6887
15143TIP3    H166844   2.236   1.417   5.009  0.7380 -0.4008  0.8470
15143TIP3    H266845   2.348   1.516   4.988  0.7440 -0.7052 -0.7280
15144TIP3   OH266846   4.127   4.642  11.941 -0.6592 -0.6196  0.3672
15144TIP3    H166847   4.123   4.713  11.878  0.2493 -2.0294 -1.3767
15144TIP3    H266848   4.052   4.656  11.998 -0.5389  1.6669  0.0601
15145TIP3   OH266849   6.731   0.807   4.308  0.0418  0.6091 -0.0287
15145TIP3    H166850   6.645   0.779   4.276  0.4564 -0.5929 -0.1405
15145TIP3    H266851   6.742   0.758   4.389  1.3845 -0.6463 -0.9328
15146TIP3   OH266852   2.665   1.766   0.842  0.2550  0.1432  0.3860
15146TIP3    H166853   2.643   1.702   0.910  1.2040 -1.0019 -0.3485
15146TIP3    H266854   2.645   1.723   0.760 -1.2189  1.6550 -0.0990
15147TIP3   OH266855   0.521   3.674   3.443 -0.0380  0.1167 -0.3466
15147TIP3    H166856   0.561   3.651   3.527  1.9909  1.1278 -0.9794
15147TIP3    H266857   0.582   3.735   3.403 -2.5511  2.3057 -1.1308
15148TIP3   OH266858   6.145   1.445   1.673 -0.5152 -0.0871 -0.0156
15148TIP3    H166859   6.066   1.392   1.662 -1.1908  1.0093 -0.6747
15148TIP3    H266860   6.113   1.535   1.675  0.7678  0.4302 -1.0593
15149TIP3   OH266861   4.909   4.334  16.701 -0.5974  0.0321  0.3432
15149TIP3    H166862   4.971   4.384  16.754 -0.8464  0.8611 -0.1207
15149TIP3    H266863   4.933   4.243  16.716  0.5480  0.3229  0.4056
15150TIP3   OH266864   6.278   5.547  11.844 -0.2267  0.8747  0.2339
15150TIP3    H166865   6.288   5.605  11.769 -2.0803  0.6277 -0.2472
15150TIP3    H266866   6.341   5.580  11.909  0.5750  1.7989 -0.9694
15151TIP3   OH266867   1.870   2.781   2.238 -0.7105 -0.2309  0.0359
15151TIP3    H166868   1.947   2.764   2.292 -1.2110  0.3453  0.9579
15151TIP3    H266869   1.899   2.763   2.149 -0.2937 -2.7308  0.5883
15152TIP3   OH266870   6.704   0.040  12.280  0.0666 -0.1148  0.2749
15152TIP3    H166871   6.684  -0.033  12.339 -1.4143 -0.1007 -0.1519
15152TIP3    H266872   6.729   0.112  12.338  1.5241 -0.9237  0.7040
15153TIP3   OH266873   2.813   6.347   0.001  0.3552 -0.1455 -0.1675
15153TIP3    H166874   2.791   6.287   0.072 -1.4797 -2.3653 -2.4415
15153TIP3    H266875   2.785   6.433   0.033 -0.4900 -1.0755  1.7469
15154TIP3   OH266876   5.072   1.298   2.845  0.2623  0.0676 -0.1048
15154TIP3    H166877   4.994   1.303   2.790 -0.3479 -0.4315  0.7029
15154TIP3    H266878   5.067   1.212   2.887  0.7424  0.4259  0.7018
15155TIP3   OH266879   6.409   4.949  14.572  0.0321 -0.0560 -0.7034
15155TIP3    H166880   6.438   5.027  14.525 -0.2539  0.1459 -0.5520
15155TIP3    H266881   6.487   4.919  14.619  0.0920  0.2658 -0.5920
15156TIP3   OH266882   2.381   3.113  13.237 -0.2905  0.3462  0.5374
15156TIP3    H166883   2.317   3.046  13.262  0.2743  0.5632  2.8238
15156TIP3    H266884   2.450   3.106  13.303  2.3631 -0.1727 -2.0695
15157TIP3   OH266885   4.397   2.741  12.079 -0.2265 -0.1758  0.6428
15157TIP3    H166886   4.406   2.646  12.093 -0.0638 -0.3003 -0.2665
15157TIP3    H266887   4.328   2.767  12.140 -1.3067 -1.1410 -0.1186
15158TIP3   OH266888   6.082   5.577  12.147 -0.0409 -0.0202 -0.4426
15158TIP3    H166889   6.157   5.636  12.138 -0.0058 -0.1880 -1.3360
15158TIP3    H266890   6.011   5.634  12.178  0.4933  0.0960  0.6175
15159TIP3   OH266891   0.936   4.152  10.969  0.5125  0.1317 -0.3076
15159TIP3    H166892   0.918   4.082  10.905  0.8285  0.8802 -1.2425
15159TIP3    H266893   0.858   4.207  10.966  0.6765  0.3620 -0.3088
15160TIP3   OH266894   2.118   4.837   1.752  0.0049  0.0997  0.4987
15160TIP3    H166895   2.195   4.781   1.744  1.0431  1.2369  1.9448
15160TIP3    H266896   2.087   4.848   1.663  0.6029 -1.6009  0.0283
15161TIP3   OH266897   2.937   2.452  14.415  0.0754  0.3550 -0.1709
15161TIP3    H166898   3.024   2.442  14.453 -0.7945 -0.8160  1.6474
15161TIP3    H266899   2.901   2.363  14.413 -1.1318  0.8272 -0.7843
15162TIP3   OH266900   4.541   0.406   6.094  0.2088 -0.4428  0.0765
15162TIP3    H166901   4.494   0.368   6.019 -0.5682 -2.0653  1.3207
15162TIP3    H266902   4.476   0.409   6.164  1.3434 -0.5145  1.1726
15163TIP3   OH266903   0.568   5.628  15.021  0.3054  0.1458  0.4441
15163TIP3    H166904   0.520   5.707  15.045 -1.2898 -0.8784  0.8021
15163TIP3    H266905   0.640   5.659  14.966  0.2627  1.9173  1.3102
15164TIP3   OH266906   3.430   5.188   1.862  0.5552  0.0952  0.5132
15164TIP3    H166907   3.428   5.225   1.950  1.4690  0.0595  0.5578
15164TIP3    H266908   3.462   5.260   1.807  0.4402 -0.0265  0.2864
15165TIP3   OH266909   0.266   5.441   3.705  0.4480 -0.2911  0.0590
15165TIP3    H166910   0.312   5.521   3.681  0.0846 -0.1149 -0.0494
15165TIP3    H266911   0.272   5.437   3.801  1.7480 -0.9040 -0.0362
15166TIP3   OH266912   6.701   5.792   0.269 -0.5493  0.0062  0.1057
15166TIP3    H166913   6.766   5.857   0.296  0.6538 -0.5972 -1.2351
15166TIP3    H266914   6.739   5.749   0.192 -1.8450 -1.4717  0.2299
15167TIP3   OH266915   4.604   0.255   0.106 -0.0990  0.2728 -0.2361
15167TIP3    H166916   4.696   0.271   0.085  0.2467  0.3845  1.2828
15167TIP3    H266917   4.556   0.300   0.036  0.9769  0.8800 -0.6142
15168TIP3   OH266918   2.281   1.971  13.362 -0.3452  0.6008 -0.5045
15168TIP3    H166919   2.286   1.876  13.368 -1.8801  0.5020 -0.3673
15168TIP3    H266920   2.327   2.003  13.440  1.9079  0.0648 -1.5501
15169TIP3   OH266921   1.598   6.143  14.130 -0.6202 -0.7988  1.2058
15169TIP3    H166922   1.533   6.093  14.080 -2.1155  2.0801  0.0493
15169TIP3    H266923   1.546   6.192  14.195  0.4209  1.0313  0.7196
15170TIP3   OH266924   1.158   2.116  16.146 -0.4131  0.3095  0.7599
15170TIP3    H166925   1.182   2.025  16.131  1.3270  0.6637  1.1141
15170TIP3    H266926   1.072   2.126  16.105  0.1552 -1.0417 -0.8748
15171TIP3   OH266927   1.196   6.290   1.341  0.3740 -0.0065 -0.2420
15171TIP3    H166928   1.265   6.237   1.381  0.9105 -0.0374 -1.1964
15171TIP3    H266929   1.231   6.379   1.343  0.3996 -0.0094 -0.6543
15172TIP3   OH266930   0.239   6.202   0.394 -0.1215  0.2766 -0.3194
15172TIP3    H166931   0.300   6.150   0.446 -1.9694 -0.3530  1.3609
15172TIP3    H266932   0.222   6.280   0.447 -1.7727 -0.2051 -0.0630
15173TIP3   OH266933   0.683   6.258   4.330  0.0055  0.2089 -0.2772
15173TIP3    H166934   0.753   6.312   4.293 -0.3714  0.8764 -0.0472
15173TIP3    H266935   0.617   6.322   4.359  0.6324 -0.1966  2.2761
15174TIP3   OH266936   2.667   5.741  10.861 -0.0280 -0.0106 -0.1054
15174TIP3    H166937   2.738   5.800  10.834  0.6457 -0.4284  0.7179
15174TIP3    H266938   2.589   5.777  10.818  0.6130  0.6687 -0.7349
15175TIP3   OH266939   4.242   0.832  14.072  0.2364  0.1787 -0.1696
15175TIP3    H166940   4.297   0.788  14.136 -0.3435 -0.9085 -0.3921
15175TIP3    H266941   4.162   0.854  14.121 -1.2704 -2.8691 -1.0068
15176TIP3   OH266942   2.982   3.608   5.553  0.2220  0.3162 -0.0710
15176TIP3    H166943   2.999   3.513   5.552  0.1891  0.2974 -1.2822
15176TIP3    H266944   2.923   3.621   5.627 -1.4228 -0.9641 -1.0566
15177TIP3   OH266945   0.042   6.254   3.840  0.2192  0.4163 -0.1275
15177TIP3    H166946   0.134   6.274   3.859  0.2324 -0.1840  0.5274
15177TIP3    H266947   0.045   6.169   3.797 -0.0945 -0.2132  1.0427
15178TIP3   OH266948   1.284   1.537   2.005 -0.3031 -0.1686  0.5127
15178TIP3    H166949   1.247   1.484   2.075  1.1478 -0.5879  0.9947
15178TIP3    H266950   1.313   1.473   1.939  2.8760 -0.2103  1.7764
15179TIP3   OH266951   2.412   1.801   5.606 -0.1637 -0.0615 -0.4330
15179TIP3    H166952   2.430   1.819   5.699  0.1701 -0.3976 -0.4306
15179TIP3    H266953   2.445   1.878   5.560  2.7341 -1.2762 -0.5693
15180TIP3   OH266954   2.435   4.941  10.936 -0.9781  0.0498  0.5159
15180TIP3    H166955   2.494   4.952  11.011 -0.6163 -2.0891  0.6246
15180TIP3    H266956   2.457   5.013  10.877 -0.3077  0.9788  1.8469
15181TIP3   OH266957   0.671   5.820  14.681  0.4514  0.1212 -0.0461
15181TIP3    H166958   0.636   5.906  14.703  1.3687  1.2520 -2.5962
15181TIP3    H266959   0.627   5.796  14.600  1.8632 -0.7171 -0.6086
15182TIP3   OH266960   1.587   1.286   3.048  0.0970  0.4164 -0.0133
15182TIP3    H166961   1.531   1.257   2.976 -0.7143  0.2479  0.6638
15182TIP3    H266962   1.672   1.247   3.031  0.0161  0.6950 -1.0803
15183TIP3   OH266963   2.286   3.880  13.590  0.2772  0.3518  0.3872
15183TIP3    H166964   2.335   3.857  13.669  0.1632 -0.9320  0.1164
15183TIP3    H266965   2.196   3.857  13.609  0.5899 -2.3926 -0.9148
15184TIP3   OH266966   2.311   5.999  16.779  0.0625 -0.5872  0.1540
15184TIP3    H166967   2.334   5.974  16.868  0.0835  0.7776  0.5653
15184TIP3    H266968   2.219   6.026  16.785  0.3486  0.4634 -0.0017
15185TIP3   OH266969   4.880   2.353   1.890  0.3084  0.1479 -0.7784
15185TIP3    H166970   4.920   2.420   1.945  0.4872 -0.8424  0.3634
15185TIP3    H266971   4.801   2.393   1.856 -0.4236  0.4510  1.1654
15186TIP3   OH266972   1.846   0.214  15.868  0.6265  0.3605  0.7773
15186TIP3    H166973   1.754   0.204  15.845  0.6101 -1.7938  1.5258
15186TIP3    H266974   1.893   0.159  15.806  1.2761  0.3874  1.2293
15187TIP3   OH266975   5.525   0.158   3.475 -0.4947 -0.0010  0.6798
15187TIP3    H166976   5.547   0.227   3.538  1.5572  0.2816 -0.2655
15187TIP3    H266977   5.585   0.086   3.497  0.3141  0.1394 -0.9664
15188TIP3   OH266978   2.164   0.404   6.316 -0.0013  0.1455  0.0014
15188TIP3    H166979   2.149   0.492   6.283  0.8884 -0.2087 -1.4638
15188TIP3    H266980   2.259   0.396   6.321 -0.0727 -0.7271  0.1041
15189TIP3   OH266981   2.156   4.518   5.220 -0.1204  0.1514  0.0724
15189TIP3    H166982   2.174   4.457   5.292  0.4407 -0.3837 -0.5151
15189TIP3    H266983   2.078   4.566   5.249 -0.2180 -0.4229  0.8023
15190TIP3   OH266984   2.872   1.992   1.884 -0.1303  0.8465 -0.5309
15190TIP3    H166985   2.938   1.922   1.884  0.3359  1.2811 -0.4636
15190TIP3    H266986   2.825   1.980   1.802 -1.3791 -0.7686  0.3511
15191TIP3   OH266987   5.644   4.250   4.972 -0.0833 -0.2798 -0.8741
15191TIP3    H166988   5.663   4.311   5.043 -0.1951 -0.8608 -0.3431
15191TIP3    H266989   5.721   4.254   4.916 -0.2449  0.6383 -1.0597
15192TIP3   OH266990   2.287   2.966   3.955  0.1706 -0.2545 -0.1285
15192TIP3    H166991   2.269   3.017   4.034  1.4644  0.1052 -0.0469
15192TIP3    H266992   2.243   3.014   3.884 -1.3193 -0.7805  0.3908
15193TIP3   OH266993   3.258   4.911  12.280 -0.1413  0.0418  0.0720
15193TIP3    H166994   3.318   4.955  12.340 -1.4078 -0.0028  1.4287
15193TIP3    H266995   3.176   4.961  12.288 -1.2592 -1.8162  0.7560
15194TIP3   OH266996   1.151   0.648  16.661  0.4436 -0.2563 -0.1422
15194TIP3    H166997   1.206   0.719  16.694 -0.4341  0.1501  0.4994
15194TIP3    H266998   1.201   0.569  16.678  0.6052  0.0586  0.9512
15195TIP3   OH266999   6.764   6.771  12.837 -0.1490  0.4476 -0.3768
15195TIP3    H167000   6.716   6.689  12.842 -0.2263  0.3384 -2.1471
15195TIP3    H267001   6.842   6.758  12.891 -0.1585 -0.7923 -0.6520
15196TIP3   OH267002   5.880   4.869  15.816 -0.1999  0.0322 -0.4579
15196TIP3    H167003   5.923   4.954  15.828  2.6689 -0.9150 -2.7550
15196TIP3    H267004   5.930   4.809  15.872 -0.2626 -0.6457 -1.1118
15197TIP3   OH267005   1.227   3.837  13.261  0.0275  0.0321 -0.3320
15197TIP3    H167006   1.317   3.850  13.291 -0.3895  0.6613  0.6745
15197TIP3    H267007   1.213   3.743  13.265  0.8185 -0.1338 -1.0583
15198TIP3   OH267008   6.628   4.677  13.445  0.2492 -0.2000  0.6200
15198TIP3    H167009   6.565   4.606  13.450  0.0294  0.0147  0.9736
15198TIP3    H267010   6.575   4.756  13.434  0.4572 -0.0279  0.8303
15199TIP3   OH267011   3.037   2.477  13.567 -0.1168  0.2936 -0.1213
15199TIP3    H167012   3.103   2.466  13.635 -0.9329  1.2106  0.8465
15199TIP3    H267013   2.977   2.404  13.579  2.1013 -2.1929 -2.7492
15200TIP3   OH267014   6.525   6.413  16.930  0.2389  0.0569  0.3081
15200TIP3    H167015   6.437   6.376  16.943  0.8890 -1.0177  1.8131
15200TIP3    H267016   6.584   6.339  16.941  1.4526  1.1059  1.0580
15201TIP3   OH267017   3.191   1.549   3.394 -0.1217  0.6926 -0.3156
15201TIP3    H167018   3.240   1.593   3.463 -0.4166  1.1378 -0.3825
15201TIP3    H267019   3.176   1.617   3.328 -1.5486  0.7996  0.0797
15202TIP3   OH267020   3.073   1.535  11.812  0.1537  0.1788  0.5588
15202TIP3    H167021   2.991   1.490  11.828  0.2815 -0.0863  0.4675
15202TIP3    H267022   3.090   1.523  11.719  0.4559 -0.0366  0.6418
15203TIP3   OH267023   4.134   4.525  14.557  0.0332 -1.1606 -0.0628
15203TIP3    H167024   4.118   4.434  14.531 -2.1685 -1.1096  0.8714
15203TIP3    H267025   4.167   4.519  14.647  2.6189 -1.1032 -0.9346
15204TIP3   OH267026   0.190   0.755   5.108  0.3964 -0.4010 -0.6978
15204TIP3    H167027   0.148   0.758   5.194  2.0746 -0.8990  0.1624
15204TIP3    H267028   0.160   0.836   5.065 -2.2577 -1.2112 -0.5773
15205TIP3   OH267029   2.071   4.724  12.408  0.0883 -0.1257  0.0296
15205TIP3    H167030   1.981   4.695  12.388 -0.7076  0.6193  2.1964
15205TIP3    H267031   2.088   4.687  12.495  2.1497 -0.7405 -0.5836
15206TIP3   OH267032   0.056   1.438   5.666  0.0446  0.5467 -0.2542
15206TIP3    H167033   0.135   1.399   5.628  0.0533 -1.0825  1.3418
15206TIP3    H267034   0.088   1.511   5.718  0.5151 -0.0949  0.3719
15207TIP3   OH267035   3.191   6.688  12.550  0.1065  0.4919  0.2164
15207TIP3    H167036   3.123   6.712  12.612 -0.9934  0.4535 -0.9337
15207TIP3    H267037   3.273   6.710  12.594 -0.6361  0.4821  1.6523
15208TIP3   OH267038   6.124   4.314  14.574 -0.6602 -0.2543  0.2228
15208TIP3    H167039   6.089   4.349  14.656  0.1778  0.3672  0.3346
15208TIP3    H267040   6.219   4.308  14.589 -0.4981 -0.1481 -0.6946
15209TIP3   OH267041   2.582   6.535   3.742 -0.1177  0.0567 -0.3106
15209TIP3    H167042   2.610   6.503   3.656 -1.1763  0.4339 -0.8183
15209TIP3    H267043   2.577   6.456   3.796 -1.7158 -0.5505 -1.2670
15210TIP3   OH267044   2.583   1.850  17.103  0.1845  0.2101  0.0395
15210TIP3    H167045   2.546   1.864  17.190 -1.0434  3.6505 -0.8724
15210TIP3    H267046   2.662   1.903  17.101 -0.7187  1.6292 -1.3834
15211TIP3   OH267047   2.832   4.160   4.392  0.2403 -0.3029  0.2481
15211TIP3    H167048   2.807   4.208   4.471  0.0220 -0.5661  0.3397
15211TIP3    H267049   2.779   4.199   4.323  0.4972 -0.0112  0.2142
15212TIP3   OH267050   5.917   5.558   1.059 -0.5597  0.7483 -0.5567
15212TIP3    H167051   5.965   5.636   1.031 -0.4684  0.7208 -0.4772
15212TIP3    H267052   5.981   5.506   1.108 -0.7993  0.9340 -0.0444
15213TIP3   OH267053   2.387   6.086  14.992  0.1852  0.2038  0.0675
15213TIP3    H167054   2.305   6.049  15.026 -0.3291  2.2019  1.2009
15213TIP3    H267055   2.424   6.133  15.066  0.6030  2.1836 -1.3131
15214TIP3   OH267056   5.672   6.734   0.373  0.5658  0.3327  0.4414
15214TIP3    H167057   5.625   6.808   0.333 -0.5080 -0.7381 -0.3270
15214TIP3    H267058   5.644   6.734   0.464  0.3921  0.7290  0.3923
15215TIP3   OH267059   3.348   3.145  11.463  0.3024 -0.1638  0.0461
15215TIP3    H167060   3.384   3.233  11.457 -1.5863  0.6437 -0.0251
15215TIP3    H267061   3.370   3.116  11.552 -0.7281  1.1729  0.7711
15216TIP3   OH267062   2.577   2.378  12.255  0.3093 -0.0567  0.0261
15216TIP3    H167063   2.663   2.420  12.254  0.5453 -0.5439 -0.5463
15216TIP3    H267064   2.591   2.295  12.300  0.5010 -0.8575 -1.4490
15217TIP3   OH267065   6.355   3.138   1.468  0.3272 -0.2597 -0.5351
15217TIP3    H167066   6.375   3.186   1.387  0.2158  2.2604  0.8508
15217TIP3    H267067   6.266   3.105   1.454 -0.1140  1.0814 -1.0315
15218TIP3   OH267068   1.098   6.303  15.327  0.1149 -0.0789 -0.2069
15218TIP3    H167069   1.151   6.267  15.256 -1.4200 -1.6033 -0.6496
15218TIP3    H267070   1.145   6.382  15.355  1.7394 -0.4923 -1.6266
15219TIP3   OH267071   5.001   1.328  13.421  0.6594 -0.0992 -0.1707
15219TIP3    H167072   5.094   1.350  13.421  0.4272  0.9627 -0.3991
15219TIP3    H267073   4.959   1.402  13.377 -0.5331  0.6086  1.9703
15220TIP3   OH267074   0.001   1.060  11.243  0.0947  0.2676 -0.2607
15220TIP3    H167075   0.066   1.058  11.172  0.2072 -0.0227 -0.1527
15220TIP3    H267076  -0.042   1.145  11.234  0.0810  0.2184 -0.7053
15221TIP3   OH267077   4.697   6.207  10.417 -0.1989  0.0909 -0.0412
15221TIP3    H167078   4.637   6.175  10.350 -0.5132 -0.1773  0.3658
15221TIP3    H267079   4.686   6.302  10.416 -1.5051 -0.0192  0.8287
15222TIP3   OH267080   4.176   2.961  13.526  0.0789 -0.1814  0.1996
15222TIP3    H167081   4.202   2.991  13.613 -0.4111 -0.3289  0.3995
15222TIP3    H267082   4.081   2.965  13.527  0.0948  0.4483 -0.5644
15223TIP3   OH267083   0.492   0.494   5.511 -0.0075 -0.2773 -0.3559
15223TIP3    H167084   0.475   0.585   5.486  1.5670  0.7471  1.9207
15223TIP3    H267085   0.415   0.468   5.560  1.2207  1.4541  2.7711
15224TIP3   OH267086   0.588   5.767  13.164 -0.4143  0.1610 -0.1857
15224TIP3    H167087   0.585   5.861  13.145  0.2405 -0.1246 -1.8737
15224TIP3    H267088   0.671   5.754  13.209 -0.3960  0.3565 -0.1628
15225TIP3   OH267089   2.660   3.680   0.477  0.1304  0.1768  0.4319
15225TIP3    H167090   2.666   3.678   0.573 -1.9748  3.7110  0.8342
15225TIP3    H267091   2.573   3.645   0.458  0.6485 -0.7727 -0.2373
15226TIP3   OH267092   2.189   3.809  11.498  0.5636 -0.2062  0.8362
15226TIP3    H167093   2.273   3.831  11.538  0.3471  2.3858 -0.0074
15226TIP3    H267094   2.204   3.816  11.404 -0.6042  0.4326  0.6771
15227TIP3   OH267095   2.129   1.108  16.164  0.2289 -0.1814  0.3015
15227TIP3    H167096   2.056   1.046  16.164 -0.3692  0.5179 -0.3777
15227TIP3    H267097   2.093   1.189  16.131  1.1744  0.3579  0.5448
15228TIP3   OH267098   4.395   0.688  16.318 -0.0618  0.3751  0.0735
15228TIP3    H167099   4.403   0.739  16.399  1.3604  0.3690 -0.0335
15228TIP3    H267100   4.399   0.754  16.248  1.3033  0.1817 -0.0502
15229TIP3   OH267101   4.493   3.904   5.021 -0.2377 -0.2823  0.5138
15229TIP3    H167102   4.528   3.883   5.108  1.5010  0.4492  0.0393
15229TIP3    H267103   4.520   3.831   4.966  0.9610  0.4750  0.0579
15230TIP3   OH267104   2.631   6.183  11.775 -0.8772  0.1367 -0.8236
15230TIP3    H167105   2.611   6.146  11.689 -0.8979  1.1968 -1.2919
15230TIP3    H267106   2.648   6.107  11.831  2.2176 -0.5559 -2.4831
15231TIP3   OH267107   1.954   3.408  14.997  0.0646 -0.7528 -0.0794
15231TIP3    H167108   1.883   3.450  14.948 -1.0259  0.3300  2.2924
15231TIP3    H267109   1.937   3.314  14.989 -2.3353 -0.5023  1.2950
15232TIP3   OH267110   1.956   4.507  11.495  0.1546  0.3488 -0.1808
15232TIP3    H167111   2.024   4.553  11.544  0.9720  1.4397 -2.2515
15232TIP3    H267112   1.878   4.563  11.505 -0.0988 -0.1735  1.0023
15233TIP3   OH267113   0.873   6.135   2.207 -0.0088 -0.0222  0.1068
15233TIP3    H167114   0.915   6.071   2.150  0.1485  0.5759 -0.4594
15233TIP3    H267115   0.931   6.211   2.206 -1.2627  0.9693 -0.9854
15234TIP3   OH267116   5.262   3.485  14.267 -0.2805 -0.2634  0.5677
15234TIP3    H167117   5.293   3.436  14.343 -0.2170  0.1724  0.8252
15234TIP3    H267118   5.327   3.553  14.253 -0.5654 -0.0096  0.4508
15235TIP3   OH267119   3.903   2.710   2.641  0.1793  0.2014  0.4897
15235TIP3    H167120   3.816   2.685   2.673  0.3654 -1.3794 -0.1565
15235TIP3    H267121   3.962   2.691   2.714  0.1300  0.1946  0.5279
15236TIP3   OH267122   2.199   6.451  15.493 -0.1632 -0.2855 -0.5159
15236TIP3    H167123   2.224   6.544  15.498 -1.3062  0.0828 -1.2611
15236TIP3    H267124   2.223   6.415  15.578  2.0640  0.2209 -0.8725
15237TIP3   OH267125   6.614   0.238  14.933 -0.3892 -0.0232 -0.8148
15237TIP3    H167126   6.616   0.307  14.866 -1.1580 -1.0276 -1.9176
15237TIP3    H267127   6.669   0.169  14.898  0.1849 -0.0847  0.1779
15238TIP3   OH267128   3.010   4.906   2.007  0.0619  0.5866  0.7362
15238TIP3    H167129   2.991   4.827   1.956 -1.4574  1.6521 -0.4571
15238TIP3    H267130   2.992   4.882   2.097  0.0913 -0.5613  0.4523
15239TIP3   OH267131   3.165   4.592  13.879 -0.2773 -0.5241 -0.3963
15239TIP3    H167132   3.087   4.601  13.934  1.8107  1.3003  2.5193
15239TIP3    H267133   3.164   4.669  13.822  0.8046  1.1781  1.7418
15240TIP3   OH267134   2.250   3.072  15.914  0.1476 -0.0258  0.3388
15240TIP3    H167135   2.211   3.009  15.975 -1.6062 -1.0811 -1.7543
15240TIP3    H267136   2.333   3.031  15.888  1.2398  0.7247  2.3604
15241TIP3   OH267137   6.787   2.580  15.643  0.2993 -1.0331  0.3697
15241TIP3    H167138   6.706   2.622  15.614  0.9410 -0.0669 -0.0842
15241TIP3    H267139   6.769   2.486  15.639 -0.0103 -0.9466 -2.1904
15242TIP3   OH267140   1.249   2.021   5.010 -0.5094  0.0531 -0.3466
15242TIP3    H167141   1.185   2.093   5.008  0.4427  0.9279 -0.1152
15242TIP3    H267142   1.220   1.961   4.942 -1.1581  0.7993 -0.7408
15243TIP3   OH267143   4.787   2.822   0.761  0.1538 -0.1958  0.6420
15243TIP3    H167144   4.863   2.816   0.819 -0.0795 -0.0340  0.9677
15243TIP3    H267145   4.824   2.836   0.674  0.4696  1.8192  1.0510
15244TIP3   OH267146   2.016   4.871   1.496 -0.1979  0.0748 -0.7568
15244TIP3    H167147   1.924   4.846   1.501 -0.1241 -0.1297 -0.3583
15244TIP3    H267148   2.050   4.825   1.419 -0.4163  0.1114 -0.8755
15245TIP3   OH267149   0.966   0.540   1.999  0.3345  0.0589  0.7836
15245TIP3    H167150   0.873   0.540   2.022  0.1541  1.7940  0.2018
15245TIP3    H267151   0.973   0.478   1.926 -1.0242  2.2830 -1.3891
15246TIP3   OH267152   6.190   1.619  10.649  0.2053  0.2047  0.4697
15246TIP3    H167153   6.198   1.529  10.678  0.4452  0.0836  0.0262
15246TIP3    H267154   6.205   1.671  10.728  0.7722 -0.1255  0.5831
15247TIP3   OH267155   5.565   5.698   4.862  0.1105 -0.2644 -0.0457
15247TIP3    H167156   5.591   5.646   4.787 -0.6104  0.1723 -0.6087
15247TIP3    H267157   5.625   5.773   4.862  0.3019 -0.4169 -0.0037
15248TIP3   OH267158   1.585   3.145   2.780 -0.5240 -0.2179  0.1856
15248TIP3    H167159   1.519   3.201   2.738  1.9318  2.0290 -1.0244
15248TIP3    H267160   1.634   3.106   2.707  0.0116 -1.1740  1.0213
15249TIP3   OH267161   5.016   4.689  11.206  0.0621 -0.1650 -0.2395
15249TIP3    H167162   4.975   4.723  11.286 -1.3793 -0.6132 -0.7380
15249TIP3    H267163   4.998   4.755  11.140  0.1932 -0.3427 -0.4524
15250TIP3   OH267164   6.392   2.512  15.960 -0.7615  0.2074 -0.0847
15250TIP3    H167165   6.459   2.449  15.933 -1.4205 -0.0788 -1.0857
15250TIP3    H267166   6.416   2.535  16.050 -0.0273 -0.8361  0.0043
15251TIP3   OH267167   5.218   3.471  12.916  0.0627 -0.2240 -0.6549
15251TIP3    H167168   5.302   3.437  12.886  0.6622  0.4991  0.1592
15251TIP3    H267169   5.159   3.457  12.842  0.9987 -0.3733 -1.3906
15252TIP3   OH267170   4.132   4.221  13.888 -0.1442 -0.2213 -0.0590
15252TIP3    H167171   4.062   4.156  13.887  0.2285 -0.6401  0.3867
15252TIP3    H267172   4.212   4.170  13.902  0.0821  0.3918  1.0075
15253TIP3   OH267173   3.026   4.125  11.782  0.4042 -0.0837  0.0338
15253TIP3    H167174   3.118   4.109  11.805 -0.0327 -1.1542  1.1375
15253TIP3    H267175   3.007   4.059  11.715  0.0884 -0.7293  0.7473
15254TIP3   OH267176   6.560   3.905   3.743 -0.2086  0.0871 -0.2676
15254TIP3    H167177   6.522   3.848   3.677  0.1239  0.2819 -0.6310
15254TIP3    H267178   6.554   3.993   3.704  0.4675  0.1353 -0.2603
15255TIP3   OH267179   2.047   5.607   3.993 -0.0575 -0.1240  0.0876
15255TIP3    H167180   2.133   5.635   4.025  0.3229 -0.1629 -0.8863
15255TIP3    H267181   2.064   5.570   3.907 -1.0287 -0.3214 -0.0312
15256TIP3   OH267182   0.953   0.370  14.082 -0.1125  0.0905 -0.3275
15256TIP3    H167183   0.860   0.367  14.059 -0.1104 -1.2008 -0.2832
15256TIP3    H267184   0.976   0.462  14.077 -1.7026  0.6071  0.9357
15257TIP3   OH267185   2.298   2.442  14.978 -0.1910 -0.6892  0.4630
15257TIP3    H167186   2.214   2.416  15.018 -1.5960 -0.9480 -2.4052
15257TIP3    H267187   2.309   2.533  15.004  0.2394 -1.4329  3.2949
15258TIP3   OH267188   5.244   2.760   4.825  0.1227 -0.2818  0.8018
15258TIP3    H167189   5.339   2.748   4.827  0.0518 -1.4552 -0.6837
15258TIP3    H267190   5.214   2.725   4.909  1.0582  0.9195  1.6630
15259TIP3   OH267191   6.169   1.093   3.445  0.9498 -0.3287 -0.5638
15259TIP3    H167192   6.255   1.101   3.486  0.6820  1.7482 -0.2570
15259TIP3    H267193   6.142   1.003   3.461  3.4521 -1.3348 -1.5025
15260TIP3   OH267194   4.946   3.132  16.030 -0.4592 -0.8861  0.7993
15260TIP3    H167195   5.033   3.123  16.067  0.1196 -1.6725 -0.6653
15260TIP3    H267196   4.900   3.190  16.090  1.4443  0.5604  0.9321
15261TIP3   OH267197   4.025   2.763   6.477 -0.4100 -0.4260 -0.6254
15261TIP3    H167198   4.086   2.699   6.515 -1.0740 -2.1090 -2.2266
15261TIP3    H267199   4.063   2.784   6.392 -0.5034  0.9138 -0.3512
15262TIP3   OH267200   2.349   5.243  16.687 -0.6180  0.1455 -0.2929
15262TIP3    H167201   2.261   5.217  16.661 -0.8654 -2.3211  2.4452
15262TIP3    H267202   2.406   5.204  16.620 -1.4542 -0.8814 -0.4255
15263TIP3   OH267203   3.293   4.383  10.588 -0.1769  0.0193 -0.0929
15263TIP3    H167204   3.203   4.352  10.574  0.1637 -1.1135  0.1160
15263TIP3    H267205   3.327   4.326  10.656  0.6417  0.5895 -0.0148
15264TIP3   OH267206   0.401   5.099   1.774 -0.4763  0.1725  0.0965
15264TIP3    H167207   0.381   5.050   1.854 -1.2980  1.5491  0.7610
15264TIP3    H267208   0.320   5.098   1.724  0.3040 -1.5476 -1.2554
15265TIP3   OH267209   1.245   6.203   4.467 -0.0615  0.0129 -0.6264
15265TIP3    H167210   1.302   6.205   4.544  0.2376  2.6278 -0.8409
15265TIP3    H267211   1.304   6.214   4.392 -0.6174  0.4223 -1.0168
15266TIP3   OH267212   0.452   3.238  15.828 -0.5272  0.0140  0.2459
15266TIP3    H167213   0.486   3.223  15.740  1.9944  2.7471  0.5974
15266TIP3    H267214   0.514   3.195  15.886 -0.3486  0.9366  0.7608
15267TIP3   OH267215   0.373   0.762  15.208  0.3781 -0.1201 -0.3954
15267TIP3    H167216   0.339   0.676  15.232 -1.0533  0.7189  0.7675
15267TIP3    H267217   0.305   0.800  15.152 -0.2440  1.1978  1.1583
15268TIP3   OH267218   1.204   6.248   3.712 -0.3487 -0.1392 -0.7509
15268TIP3    H167219   1.246   6.172   3.672 -0.9455 -0.4049 -0.8796
15268TIP3    H267220   1.277   6.307   3.734  0.1157 -0.7301 -0.6768
15269TIP3   OH267221   1.486   5.623  14.311 -0.4225  0.1660 -0.3098
15269TIP3    H167222   1.430   5.701  14.312 -0.0145  0.4608  0.6457
15269TIP3    H267223   1.546   5.636  14.385 -0.3080 -1.0283 -0.1801
15270TIP3   OH267224   3.820   5.782   5.816  0.0523 -0.7752 -0.0084
15270TIP3    H167225   3.880   5.734   5.873  0.6276  0.2515  0.2783
15270TIP3    H267226   3.735   5.776   5.860  0.0288 -1.8633 -0.1878
15271TIP3   OH267227   1.096   5.618   2.349 -0.6072  0.6742  0.5445
15271TIP3    H167228   1.095   5.698   2.296 -1.0770  0.5322  0.3376
15271TIP3    H267229   1.020   5.569   2.319  1.0258 -1.0227 -1.1322
15272TIP3   OH267230   2.769   0.319   4.680  0.1122 -0.3077 -0.5036
15272TIP3    H167231   2.717   0.261   4.624 -0.0889 -0.2398 -0.3861
15272TIP3    H267232   2.713   0.336   4.756  0.4556 -0.5440 -0.1975
15273TIP3   OH267233   5.943   5.771   3.564  0.4162 -0.0009  0.1847
15273TIP3    H167234   5.942   5.756   3.469  0.6632  0.8174  0.0440
15273TIP3    H267235   5.865   5.727   3.596  0.8604 -1.1756 -0.2542
15274TIP3   OH267236   4.592   5.523  12.638  0.4102  0.1198  0.7317
15274TIP3    H167237   4.639   5.554  12.561 -0.5243  2.4559  1.0154
15274TIP3    H267238   4.533   5.455  12.604  2.7822 -1.7849  0.1405
15275TIP3   OH267239   3.139   2.130  11.216  0.2098  0.3141 -0.3294
15275TIP3    H167240   3.072   2.067  11.245  2.0721 -1.6513 -0.0433
15275TIP3    H267241   3.193   2.144  11.293  1.5182 -0.0148 -1.1624
15276TIP3   OH267242   6.376   3.111   6.274  0.4144 -1.0041 -0.0118
15276TIP3    H167243   6.405   3.177   6.211  1.8022 -2.1135 -0.6170
15276TIP3    H267244   6.458   3.070   6.303 -0.2674 -1.0780  1.9023
15277TIP3   OH267245   1.197   4.762   2.578 -0.2629  0.1924  0.2436
15277TIP3    H167246   1.163   4.826   2.516  0.0247 -1.0227 -1.2341
15277TIP3    H267247   1.147   4.682   2.560  1.2567 -0.7726  0.0830
15278TIP3   OH267248   2.189   3.332   2.711  0.4695  0.3835  0.3680
15278TIP3    H167249   2.273   3.300   2.678  0.1457 -1.3385  1.1030
15278TIP3    H267250   2.200   3.427   2.717  1.5079  0.4680 -1.8708
15279TIP3   OH267251   2.191   2.195   3.702  0.1407  0.1445  0.1266
15279TIP3    H167252   2.125   2.259   3.728  2.0095  1.9156  0.8179
15279TIP3    H267253   2.179   2.185   3.607 -2.7632 -1.6598  0.5731
15280TIP3   OH267254   0.407   2.597   2.355 -0.0167 -0.2081  0.6800
15280TIP3    H167255   0.313   2.609   2.344  0.1290  0.8011  0.4425
15280TIP3    H267256   0.418   2.503   2.373 -1.0289 -0.3894  0.3804
15281TIP3   OH267257   5.657   6.013   4.863 -0.0899  0.1057  0.4541
15281TIP3    H167258   5.655   5.988   4.956 -1.7971  1.3352  0.7992
15281TIP3    H267259   5.570   6.047   4.846  0.3478  0.3354 -1.5094
15282TIP3   OH267260   5.577   4.359  15.707  0.0405 -0.2442  0.5260
15282TIP3    H167261   5.663   4.338  15.744  0.9238  1.6431 -0.3157
15282TIP3    H267262   5.591   4.357  15.612 -0.8577  0.0140  0.3831
15283TIP3   OH267263   1.069   5.641  11.617  0.1412  0.3978  0.2065
15283TIP3    H167264   1.136   5.592  11.569 -0.8138  0.0292 -0.8144
15283TIP3    H267265   1.085   5.621  11.709  0.8182 -0.4808 -0.0892
15284TIP3   OH267266   3.713   1.302   5.789 -0.3814  0.4513  0.1344
15284TIP3    H167267   3.729   1.256   5.707 -1.9574  1.9916 -1.1075
15284TIP3    H267268   3.703   1.233   5.854  0.3091 -0.8283 -1.0715
15285TIP3   OH267269   6.361   0.335   0.511 -0.1516  0.2587 -0.2307
15285TIP3    H167270   6.320   0.421   0.506  1.0028  0.7462 -3.3915
15285TIP3    H267271   6.455   0.352   0.514  0.1557 -0.8050 -1.9926
15286TIP3   OH267272   5.273   1.167  14.925 -0.0010 -0.0202  0.1291
15286TIP3    H167273   5.367   1.153  14.934  0.1987 -0.2092 -1.8194
15286TIP3    H267274   5.252   1.232  14.992  1.4413 -0.2919  0.8684
15287TIP3   OH267275   3.442   4.092  16.531 -0.0201 -0.5558 -0.0037
15287TIP3    H167276   3.416   4.018  16.477 -1.2428 -0.6093  0.6088
15287TIP3    H267277   3.368   4.105  16.591  0.9132  0.0468  1.0657
15288TIP3   OH267278   1.911   1.632   6.553  0.2609  0.0275  0.0558
15288TIP3    H167279   1.911   1.585   6.637 -1.8270  1.5842  1.0429
15288TIP3    H267280   1.981   1.696   6.561 -0.7985  1.1091  1.2805
15289TIP3   OH267281   0.567   1.905  15.451 -0.0255  0.4761  0.5006
15289TIP3    H167282   0.505   1.977  15.451  0.1413  0.6184  0.5963
15289TIP3    H267283   0.552   1.860  15.534 -0.1856  0.3510  0.4055
15290TIP3   OH267284   1.120   5.812   3.038  0.3134  0.4928 -0.2016
15290TIP3    H167285   1.033   5.787   3.006  0.4713  1.2852 -1.3100
15290TIP3    H267286   1.173   5.732   3.028 -0.1997  0.0931  0.2039
15291TIP3   OH267287   3.567   1.233  16.530  0.5444 -0.0633  0.6409
15291TIP3    H167288   3.562   1.175  16.454 -0.1484 -0.8000  1.2291
15291TIP3    H267289   3.612   1.181  16.596 -2.5723 -1.0930  2.1480
15292TIP3   OH267290   0.520   4.516   1.753  0.0525 -0.4829  0.1747
15292TIP3    H167291   0.476   4.582   1.699  1.4030  1.7963  1.7575
15292TIP3    H267292   0.448   4.468   1.795 -0.9427  0.3331 -0.5454
15293TIP3   OH267293   5.733   5.075  14.432 -0.1266 -0.2047 -0.1737
15293TIP3    H167294   5.748   5.137  14.504  0.7610  1.6295 -1.8548
15293TIP3    H267295   5.691   5.127  14.364 -1.0765 -1.9308 -0.9605
15294TIP3   OH267296   0.378   3.763  16.899 -0.3225 -0.2475 -0.0999
15294TIP3    H167297   0.348   3.816  16.825 -0.3077 -1.3661 -0.9295
15294TIP3    H267298   0.311   3.774  16.965 -0.8796 -0.0659 -0.6869
15295TIP3   OH267299   0.346   3.319  16.808 -0.6915 -0.3130 -0.0002
15295TIP3    H167300   0.368   3.267  16.886 -2.2813  0.4193  1.0040
15295TIP3    H267301   0.302   3.257  16.750  3.1463 -1.6661 -1.8200
15296TIP3   OH267302   4.547   0.551   6.385  0.5594 -0.1473 -0.6308
15296TIP3    H167303   4.617   0.559   6.320  0.1470  0.8843 -0.9702
15296TIP3    H267304   4.556   0.462   6.419  2.2035  0.0509 -0.4661
15297TIP3   OH267305   2.121   1.810   5.788 -0.3262 -0.3014  0.2547
15297TIP3    H167306   2.075   1.765   5.717  0.2999 -1.9250  0.8137
15297TIP3    H267307   2.153   1.739   5.844  1.2589  0.8263  0.8628
15298TIP3   OH267308   5.106   4.767   4.014  0.6057 -0.2453 -0.2841
15298TIP3    H167309   5.160   4.716   3.953 -0.9682 -0.0565 -1.8974
15298TIP3    H267310   5.136   4.739   4.100  0.5282 -3.2030 -1.0801
15299TIP3   OH267311   0.700   0.315  14.791  0.4323  0.0054 -0.4429
15299TIP3    H167312   0.727   0.369  14.865  0.2601 -0.3113 -0.1521
15299TIP3    H267313   0.709   0.225  14.821  0.0958 -0.1218 -0.7123
15300TIP3   OH267314   0.508   1.172   5.408 -0.1349 -0.4423 -0.0703
15300TIP3    H167315   0.556   1.159   5.326 -1.3785  1.4293 -1.1759
15300TIP3    H267316   0.516   1.266   5.425 -3.9472  0.1353 -0.7354
15301TIP3   OH267317   5.627   3.176   4.942 -0.0642  0.2004 -0.0030
15301TIP3    H167318   5.577   3.212   5.016  1.3591  0.8702  0.6879
15301TIP3    H267319   5.715   3.161   4.978 -0.0852 -2.2397 -0.7888
15302TIP3   OH267320   0.898   3.120  16.499  0.2179 -0.1198 -0.3679
15302TIP3    H167321   0.932   3.058  16.563  0.1979 -0.7825 -0.9851
15302TIP3    H267322   0.877   3.198  16.550  4.3891  1.0891 -0.1162
15303TIP3   OH267323   6.349   4.300   1.278 -0.6300  0.6074 -0.3140
15303TIP3    H167324   6.389   4.279   1.362  0.0159 -0.5301 -0.8899
15303TIP3    H267325   6.255   4.303   1.296 -0.4008  1.9809  0.7682
15304TIP3   OH267326   5.971   5.678  17.181 -0.6302  0.1831  0.2212
15304TIP3    H167327   5.911   5.611  17.212 -0.8472  0.4945  0.4773
15304TIP3    H267328   6.056   5.634  17.178 -0.8331 -0.2056  0.0389
15305TIP3   OH267329   1.644   1.185   4.124  0.1654  0.1611 -0.0839
15305TIP3    H167330   1.599   1.126   4.184  0.2644  1.1237  0.9831
15305TIP3    H267331   1.737   1.176   4.146  0.4786 -1.3661 -1.8604
15306TIP3   OH267332   3.050   4.250  10.726 -0.1229 -0.5257  0.3477
15306TIP3    H167333   2.986   4.182  10.702 -0.2382 -0.4513  0.4403
15306TIP3    H267334   3.109   4.207  10.788  0.3888 -0.8240 -0.3322
15307TIP3   OH267335   2.008   0.007  16.738 -0.6169  0.1930 -0.1002
15307TIP3    H167336   2.032  -0.084  16.758 -0.1931 -0.2243 -2.2446
15307TIP3    H267337   1.917   0.002  16.709 -1.5415  0.9207  2.4223
15308TIP3   OH267338   3.744   5.062  16.376 -0.1029  0.9904 -0.1099
15308TIP3    H167339   3.818   5.097  16.328  0.2240  0.0371 -0.3115
15308TIP3    H267340   3.690   5.019  16.310 -0.0500  0.3562  0.2499
15309TIP3   OH267341   4.614   4.394   6.028  0.7634  0.0429  0.1255
15309TIP3    H167342   4.650   4.479   6.003  0.9724  0.6661  2.3370
15309TIP3    H267343   4.666   4.367   6.104  0.3312 -1.8170 -0.1896
15310TIP3   OH267344   5.596   3.680  12.966  0.0343  0.3982  0.3954
15310TIP3    H167345   5.550   3.713  13.043 -1.2764  1.3305 -0.7469
15310TIP3    H267346   5.646   3.755  12.934 -0.7246  0.5122 -0.5767
15311TIP3   OH267347   6.169   5.502   3.815 -0.6309 -0.6884  1.0070
15311TIP3    H167348   6.144   5.412   3.792 -0.3433 -1.1817  2.5438
15311TIP3    H267349   6.243   5.521   3.758 -0.1144 -1.7671  1.2894
15312TIP3   OH267350   5.710   3.275   6.321  0.3028 -0.2848 -0.0965
15312TIP3    H167351   5.618   3.302   6.329  0.9886  1.8737  1.6955
15312TIP3    H267352   5.715   3.191   6.366 -0.6676 -0.0843  0.4137
15313TIP3   OH267353   0.673   3.263  13.608 -0.2307  0.4418  0.3249
15313TIP3    H167354   0.604   3.207  13.643 -1.3958  2.6388  1.8258
15313TIP3    H267355   0.649   3.275  13.516 -0.6616 -0.5008  0.3035
15314TIP3   OH267356   1.839   0.616   6.116  0.5667 -0.0421  0.2225
15314TIP3    H167357   1.934   0.606   6.110  0.5731 -0.5690  1.0071
15314TIP3    H267358   1.824   0.710   6.108  1.2388  0.1419  1.0345
15315TIP3   OH267359   5.594   4.567   4.874 -0.3506  0.0970 -0.6534
15315TIP3    H167360   5.647   4.508   4.819  0.9971 -0.0631  0.7421
15315TIP3    H267361   5.657   4.606   4.934 -1.7150  0.5326  0.5432
15316TIP3   OH267362   1.925   4.912  14.068  0.3972  0.5272  0.1568
15316TIP3    H167363   1.937   4.817  14.072  0.4003  0.5510  2.7690
15316TIP3    H267364   2.006   4.945  14.029 -0.4190 -0.6013 -2.6894
15317TIP3   OH267365   1.945   2.786  11.062 -0.6363  1.0472 -0.9044
15317TIP3    H167366   1.929   2.784  10.968  0.9987  0.7860 -1.2003
15317TIP3    H267367   2.017   2.725  11.076  0.3439  2.3973  0.2608
15318TIP3   OH267368   6.565   3.018  14.113 -0.1326 -0.3540 -0.2868
15318TIP3    H167369   6.531   2.930  14.129  0.6330 -0.8644 -1.3510
15318TIP3    H267370   6.596   3.047  14.199  0.4138 -1.4777 -0.0784
15319TIP3   OH267371   3.009   6.242   1.557  0.7238  0.0656  0.3545
15319TIP3    H167372   2.984   6.163   1.510 -0.3978  0.1845  0.7288
15319TIP3    H267373   2.928   6.292   1.566  1.2580  0.8807  0.8384
15320TIP3   OH267374   4.081   0.131  16.423  0.4814 -0.0620 -0.0507
15320TIP3    H167375   4.038   0.117  16.508  2.3458  0.9742  1.1278
15320TIP3    H267376   4.174   0.140  16.444  0.8114  1.9536 -1.9983
15321TIP3   OH267377   2.445   5.037   1.447 -0.2381  0.1546 -0.1073
15321TIP3    H167378   2.462   4.952   1.486 -0.0430  0.8576  1.4037
15321TIP3    H267379   2.350   5.048   1.454 -0.9405 -1.6670 -4.1126
15322TIP3   OH267380   0.603   5.336  13.208 -0.6248  0.4506 -0.0086
15322TIP3    H167381   0.682   5.292  13.176 -2.2539 -1.7733 -1.2476
15322TIP3    H267382   0.629   5.372  13.293  1.5172 -0.8141 -0.0454
15323TIP3   OH267383   6.045   3.667  14.380 -0.3260  0.2725  0.3749
15323TIP3    H167384   6.129   3.679  14.334  0.4492  1.9861  2.1100
15323TIP3    H267385   6.030   3.573  14.378  1.8497 -0.1149  0.3534
15324TIP3   OH267386   1.364   0.660   5.887 -0.1542  0.4998 -0.0817
15324TIP3    H167387   1.442   0.620   5.927 -0.0463 -0.2461 -0.9943
15324TIP3    H267388   1.300   0.589   5.886 -0.0885  0.4498 -1.3830
15325TIP3   OH267389   1.075   4.539  11.354 -0.5903 -0.2966  0.0707
15325TIP3    H167390   1.099   4.631  11.349 -0.4236 -0.3782 -1.0110
15325TIP3    H267391   1.008   4.528  11.286 -0.7580 -0.9273  0.3303
15326TIP3   OH267392   5.655   6.670   4.218 -0.5783 -0.3289  0.7503
15326TIP3    H167393   5.623   6.658   4.128  1.4486 -0.1801 -0.0624
15326TIP3    H267394   5.646   6.764   4.235  0.2643 -0.1246  0.1537
15327TIP3   OH267395   3.120   3.543  11.596  0.2795 -0.5376  0.7357
15327TIP3    H167396   3.086   3.469  11.646  0.3977 -2.5055 -1.8596
15327TIP3    H267397   3.043   3.577  11.549  0.3433  0.6255  1.4473
15328TIP3   OH267398   1.734   6.404  10.716  0.8722  0.3386  0.0636
15328TIP3    H167399   1.789   6.327  10.709  1.5737  0.7721  0.6512
15328TIP3    H267400   1.717   6.430  10.625  0.6928 -0.4606 -0.1302
15329TIP3   OH267401   0.078   4.110  12.112 -0.4582  0.0391 -0.0603
15329TIP3    H167402   0.014   4.040  12.117  0.0915 -0.3852  2.5212
15329TIP3    H267403   0.096   4.121  12.018  0.1563 -3.9142 -0.5568
15330TIP3   OH267404   6.219   6.221   5.396  0.3473  0.3156  0.0499
15330TIP3    H167405   6.225   6.156   5.467 -4.5454 -1.3611 -0.6662
15330TIP3    H267406   6.217   6.305   5.441  1.4899 -0.3856  1.4947
15331TIP3   OH267407   3.368   3.050  13.864  0.7579  0.0690  0.1667
15331TIP3    H167408   3.402   3.075  13.778  0.2059 -0.7028 -0.2937
15331TIP3    H267409   3.403   2.962  13.879 -0.7658 -0.6441 -0.2086
15332TIP3   OH267410   5.564   4.261  13.476 -0.2074 -0.0296  0.2107
15332TIP3    H167411   5.523   4.304  13.401 -0.4528 -0.5716  0.0285
15332TIP3    H267412   5.571   4.169  13.450  0.5408 -0.0582  0.4951
15333TIP3   OH267413   3.434   2.117  14.190 -0.0268  0.3771  0.0470
15333TIP3    H167414   3.429   2.029  14.229  0.4003  0.2961 -0.0750
15333TIP3    H267415   3.439   2.101  14.096  1.3888  0.4744  0.0929
15334TIP3   OH267416   1.480   4.451   6.425 -0.1391  0.2403  0.2241
15334TIP3    H167417   1.513   4.463   6.514  1.9956 -0.3590 -0.4262
15334TIP3    H267418   1.393   4.414   6.436  1.1889 -2.6371  2.0962
15335TIP3   OH267419   5.273   3.230   0.230 -0.3665 -0.2944  0.4965
15335TIP3    H167420   5.309   3.142   0.221 -0.3530 -0.1495 -1.2202
15335TIP3    H267421   5.337   3.277   0.283  0.3433 -0.9420  0.2354
15336TIP3   OH267422   3.847   0.463   1.394  0.2010  0.5658  0.0074
15336TIP3    H167423   3.871   0.532   1.455 -0.7695  0.9579 -0.0357
15336TIP3    H267424   3.818   0.391   1.450 -0.1187  0.7065  0.0240
15337TIP3   OH267425   6.460   4.723   4.608 -0.2948  0.1162  0.4899
15337TIP3    H167426   6.471   4.703   4.701 -0.1580  0.9348  0.6537
15337TIP3    H267427   6.524   4.791   4.589 -1.5953  1.3402  0.2698
15338TIP3   OH267428   0.146   5.489  16.647  0.6076  0.2594 -0.1363
15338TIP3    H167429   0.052   5.471  16.647  0.7862 -0.7494  1.0653
15338TIP3    H267430   0.166   5.517  16.736  0.9988  3.1727 -1.0278
15339TIP3   OH267431   0.923   5.163  12.238  0.0783  0.7992 -0.1035
15339TIP3    H167432   0.902   5.197  12.326  1.1945 -2.1542  1.4366
15339TIP3    H267433   0.838   5.153  12.196 -0.6275  0.7471  1.2581
15340TIP3   OH267434   3.188   5.000  16.026 -0.5564 -0.2261 -0.1512
15340TIP3    H167435   3.169   4.938  16.097  0.8147 -2.0982 -1.3240
15340TIP3    H267436   3.274   4.973  15.994 -0.4138  1.6344 -1.4558
15341TIP3   OH267437   6.262   1.744  12.954 -0.0657 -0.4622 -0.1125
15341TIP3    H167438   6.255   1.686  13.029  0.1065  0.1899  0.4238
15341TIP3    H267439   6.200   1.710  12.890  0.1729 -1.3389  0.1097
15342TIP3   OH267440   3.503   1.435  12.133  0.1474 -0.4561  0.1363
15342TIP3    H167441   3.514   1.519  12.179 -1.1402  1.0531 -2.1539
15342TIP3    H267442   3.588   1.419  12.091  0.0830  0.2506 -0.2709
15343TIP3   OH267443   1.434   2.101  11.253 -0.5369  0.3965 -0.2461
15343TIP3    H167444   1.425   2.111  11.348  0.4573  0.5850 -0.1583
15343TIP3    H267445   1.383   2.173  11.216 -1.4021 -0.0183  0.1281
15344TIP3   OH267446   1.951   4.317  14.592 -0.0377  0.8365 -0.1259
15344TIP3    H167447   2.042   4.325  14.622 -0.1942  1.4122  0.1888
15344TIP3    H267448   1.899   4.335  14.670 -0.4246  0.1162 -0.2123
15345TIP3   OH267449   5.057   5.998  15.769  0.5056  0.3475 -0.1506
15345TIP3    H167450   5.028   6.085  15.744 -0.4319  0.1440  0.1909
15345TIP3    H267451   5.041   5.944  15.692  1.4085  0.5388 -0.4816
15346TIP3   OH267452   4.030   6.765  13.835 -0.0807 -0.8353 -0.1415
15346TIP3    H167453   4.048   6.761  13.929  1.3911  1.0121 -0.2918
15346TIP3    H267454   4.067   6.848  13.807 -3.8946  0.5571 -1.7007
15347TIP3   OH267455   2.988   6.204  13.402  0.2506 -0.2178  0.2046
15347TIP3    H167456   3.001   6.272  13.467  0.4269 -1.5641  1.6318
15347TIP3    H267457   3.072   6.158  13.398 -0.3579 -1.3923  0.5073
15348TIP3   OH267458   6.663   2.916   3.821  0.2734 -0.1850 -0.1570
15348TIP3    H167459   6.748   2.879   3.846 -0.4127 -0.1208  2.6137
15348TIP3    H267460   6.678   3.010   3.814  0.1751  0.0323  1.9245
15349TIP3   OH267461   4.176   3.399   0.612  0.0938  0.5964  0.4566
15349TIP3    H167462   4.148   3.350   0.535 -1.7305  0.1040  1.3647
15349TIP3    H267463   4.264   3.366   0.631  1.1253  1.6460 -2.0942
15350TIP3   OH267464   4.040   6.209   4.671 -0.4725 -0.2296  0.1264
15350TIP3    H167465   3.976   6.202   4.742  0.4721  1.0185  1.1616
15350TIP3    H267466   4.047   6.303   4.653  1.6146 -0.2329  0.6176
15351TIP3   OH267467   1.220   6.714  11.371  0.5199 -0.2937  0.0053
15351TIP3    H167468   1.231   6.687  11.280  0.7151  0.1919 -0.1159
15351TIP3    H267469   1.246   6.638  11.422  0.3892 -0.5763 -0.3465
15352TIP3   OH267470   1.110   5.210  16.731  0.6183  0.0280 -0.6045
15352TIP3    H167471   1.111   5.242  16.641 -0.2668 -1.0015 -1.0065
15352TIP3    H267472   1.023   5.232  16.764  0.1258 -1.5613 -0.7699
15353TIP3   OH267473   2.296   3.805  14.305  0.5200  0.1100 -0.3510
15353TIP3    H167474   2.301   3.715  14.337  0.9700  0.1981 -0.1601
15353TIP3    H267475   2.267   3.855  14.381  1.3936  0.2903 -0.1223
15354TIP3   OH267476   2.994   1.292   0.025  0.6221 -0.1903 -0.8376
15354TIP3    H167477   3.082   1.327   0.009  0.3288  1.1725  0.3556
15354TIP3    H267478   2.960   1.345   0.097 -0.6574 -1.6172 -0.3493
15355TIP3   OH267479   0.083   2.891   4.105  0.0797  0.3625  0.0137
15355TIP3    H167480   0.074   2.897   4.200  0.1507  0.4124  0.0173
15355TIP3    H267481   0.134   2.969   4.081 -0.4111  0.6433 -0.1287
15356TIP3   OH267482   1.079   3.772   4.765 -0.0955 -0.6340 -0.1091
15356TIP3    H167483   1.154   3.826   4.787 -0.5653 -0.0019 -0.0359
15356TIP3    H267484   1.087   3.758   4.670  0.4501 -1.0962 -0.0003
15357TIP3   OH267485   3.352   5.279  12.845  0.7774 -0.5131  0.0689
15357TIP3    H167486   3.353   5.362  12.797  1.6269 -0.9558 -0.7037
15357TIP3    H267487   3.324   5.303  12.934 -1.7311  0.1968 -0.8132
15358TIP3   OH267488   1.760   2.334  16.592 -0.1684 -0.2426 -0.4223
15358TIP3    H167489   1.716   2.386  16.525  0.9893 -0.5221 -1.4358
15358TIP3    H267490   1.798   2.261  16.544  1.2812 -0.0736  0.4251
15359TIP3   OH267491   4.613   5.962  13.376 -0.7013 -0.2484  0.3730
15359TIP3    H167492   4.628   5.985  13.284 -0.9192  0.0306  0.4079
15359TIP3    H267493   4.687   5.905  13.398 -0.6001 -0.2462  0.0513
15360TIP3   OH267494   1.859   5.559  14.235 -0.2989  0.3949 -0.1119
15360TIP3    H167495   1.917   5.546  14.309  1.9919  0.9533 -1.6852
15360TIP3    H267496   1.813   5.476  14.225  1.7963 -0.8446 -0.0233
15361TIP3   OH267497   0.352   5.795  11.987 -0.0237  0.3118 -0.4883
15361TIP3    H167498   0.299   5.845  12.050  0.6981  0.5428 -0.0476
15361TIP3    H267499   0.407   5.739  12.042  0.7199  0.6180 -0.8961
15362TIP3   OH267500   0.537   3.770  10.584  0.1328 -0.2489  0.5819
15362TIP3    H167501   0.453   3.815  10.574  0.4839 -0.0415 -2.0547
15362TIP3    H267502   0.600   3.839  10.603  0.3635  0.2591 -1.6983
15363TIP3   OH267503   0.686   4.558   2.550  0.0169  0.1114  0.1533
15363TIP3    H167504   0.599   4.590   2.524 -0.6120 -1.4777  0.1839
15363TIP3    H267505   0.736   4.554   2.469 -0.3906 -0.2372 -0.0880
15364TIP3   OH267506   2.582   4.242  16.581  0.0329 -0.0234  0.0568
15364TIP3    H167507   2.505   4.207  16.536  0.2192  0.2160 -0.4520
15364TIP3    H267508   2.576   4.206  16.669 -0.9801  0.4385  0.2014
15365TIP3   OH267509   6.779   5.812   1.664  0.4483 -0.3219  0.2960
15365TIP3    H167510   6.714   5.765   1.612  0.5276  0.0562 -0.1545
15365TIP3    H267511   6.799   5.753   1.737 -2.0686  0.4751  1.7422
15366TIP3   OH267512   5.356   6.731   4.945  0.5325 -0.1474 -0.4744
15366TIP3    H167513   5.382   6.814   4.904  1.0589  0.2047  0.5542
15366TIP3    H267514   5.262   6.723   4.926  0.5527  0.5022 -0.8712
15367TIP3   OH267515   2.724   0.067   1.455  0.5007  0.5041 -0.2549
15367TIP3    H167516   2.811   0.034   1.429  0.8717  0.6386  0.7626
15367TIP3    H267517   2.677   0.077   1.373  1.9382  1.8057 -0.9713
15368TIP3   OH267518   1.231   4.259   5.132  0.4094  0.2984  0.5552
15368TIP3    H167519   1.290   4.258   5.207  0.3319  2.4690  0.7257
15368TIP3    H267520   1.143   4.260   5.170  0.3498  0.3024  0.4190
15369TIP3   OH267521   1.450   4.014  16.064  0.6866 -0.4931 -0.7576
15369TIP3    H167522   1.361   4.021  16.098  1.0857  0.8050  0.0655
15369TIP3    H267523   1.498   3.965  16.131  1.3643  1.6844  0.4526
15370TIP3   OH267524   3.812   4.261  13.459 -0.2622  0.0963 -0.4248
15370TIP3    H167525   3.825   4.355  13.452  0.4669  0.1466  1.2064
15370TIP3    H267526   3.864   4.225  13.387  0.6593  0.8683 -0.1618
15371TIP3   OH267527   5.540   2.611  13.510 -0.3070  0.1656  1.3238
15371TIP3    H167528   5.548   2.515  13.510 -1.0088  0.1015  1.3742
15371TIP3    H267529   5.497   2.632  13.427  2.8679  0.7448 -0.3210
15372TIP3   OH267530   5.850   1.810   1.220  0.3350 -0.1829  0.2842
15372TIP3    H167531   5.828   1.719   1.238  1.6207 -0.4492  0.6688
15372TIP3    H267532   5.881   1.843   1.305 -2.8134  1.4982  0.9189
15373TIP3   OH267533   1.863   2.682  12.458  0.2100 -0.0120  0.0310
15373TIP3    H167534   1.783   2.703  12.508  0.2512  1.0868 -0.3463
15373TIP3    H267535   1.862   2.586  12.452  0.3535 -0.2277  2.3946
15374TIP3   OH267536   4.989   5.613   5.172 -0.4735  0.1881  0.4065
15374TIP3    H167537   4.940   5.583   5.096 -0.4429  0.0168  0.4512
15374TIP3    H267538   5.036   5.534   5.201  1.8386  0.9018 -1.1518
15375TIP3   OH267539   3.636   5.880   4.344 -0.1882 -0.2393  0.3371
15375TIP3    H167540   3.561   5.831   4.378  0.9194 -0.6678  2.3347
15375TIP3    H267541   3.693   5.892   4.420  1.4136  0.7573 -0.9556
15376TIP3   OH267542   0.416   3.931  13.410 -0.0093  0.4755 -0.5686
15376TIP3    H167543   0.359   3.856  13.392  1.7319 -0.4689 -2.5998
15376TIP3    H267544   0.368   4.006  13.375 -0.6627 -0.0855 -0.8943
15377TIP3   OH267545   4.959   5.299   5.766 -0.5970 -0.8380  0.1250
15377TIP3    H167546   4.890   5.320   5.829 -0.0201 -0.6384  0.7008
15377TIP3    H267547   4.932   5.345   5.686 -1.0723 -0.6727  0.3734
15378TIP3   OH267548   0.583   6.381   5.831 -0.4090 -0.1659 -0.1504
15378TIP3    H167549   0.494   6.350   5.851 -0.0812 -1.0095  0.0177
15378TIP3    H267550   0.630   6.376   5.913  0.0423 -0.5743 -0.4285
15379TIP3   OH267551   4.455   5.798   0.593  0.5097  0.8433 -0.2120
15379TIP3    H167552   4.383   5.859   0.576  0.5900  1.0999  0.3509
15379TIP3    H267553   4.437   5.723   0.536  0.2368  1.2541 -0.6720
15380TIP3   OH267554   2.710   4.570  11.782 -0.0076 -0.3366 -0.2836
15380TIP3    H167555   2.728   4.476  11.780 -0.7605 -0.6480  2.5906
15380TIP3    H267556   2.627   4.577  11.829  0.9958  1.8118  1.3743
15381TIP3   OH267557   4.827   3.541   5.758  0.4211  0.4127 -0.4128
15381TIP3    H167558   4.898   3.554   5.695  0.2574  0.0682 -0.6714
15381TIP3    H267559   4.790   3.629   5.770 -0.5234  0.2677 -1.9545
15382TIP3   OH267560   5.241   6.093   3.152  0.2961 -0.8692  0.1427
15382TIP3    H167561   5.326   6.085   3.195  0.2579  1.5163  0.8191
15382TIP3    H267562   5.186   6.139   3.215 -1.5725 -2.4471 -0.2422
15383TIP3   OH267563   5.374   2.265   5.619 -0.0722  0.1833 -0.4364
15383TIP3    H167564   5.394   2.290   5.529 -0.5806  1.8821 -0.1184
15383TIP3    H267565   5.287   2.226   5.615  0.3219 -0.6774 -0.8083
15384TIP3   OH267566   5.104   0.774   2.457 -0.5691 -0.0309 -0.1404
15384TIP3    H167567   5.015   0.794   2.489 -1.6115 -1.6651 -1.8153
15384TIP3    H267568   5.091   0.704   2.393  2.0032 -0.5800 -0.1604
15385TIP3   OH267569   3.245   3.748  15.906  0.1109  0.2558  0.5123
15385TIP3    H167570   3.317   3.685  15.911  0.0129  0.1555  0.6752
15385TIP3    H267571   3.284   3.826  15.868  0.5817  0.6122  1.6906
15386TIP3   OH267572   6.704   5.091  12.340 -0.0261 -0.1949 -0.0365
15386TIP3    H167573   6.775   5.030  12.320 -0.8397 -1.3674  0.5150
15386TIP3    H267574   6.680   5.130  12.256  1.4483  0.4353 -0.1809
15387TIP3   OH267575   0.352   2.713  11.831 -0.1435 -0.4598 -0.2253
15387TIP3    H167576   0.433   2.664  11.816  0.4160 -0.0227  1.2355
15387TIP3    H267577   0.331   2.750  11.745  2.3698  1.1818 -0.2385
15388TIP3   OH267578   1.483   1.823  13.606 -0.5012 -0.1841  0.3394
15388TIP3    H167579   1.513   1.914  13.608 -0.2095 -0.2859  1.0886
15388TIP3    H267580   1.396   1.827  13.565 -0.0231  0.2805 -0.6594
15389TIP3   OH267581   6.507   5.490  15.835 -0.1730 -0.0781 -0.3529
15389TIP3    H167582   6.535   5.580  15.816  0.1642 -0.2172 -0.5326
15389TIP3    H267583   6.589   5.441  15.842 -0.2849 -0.0707  1.3502
15390TIP3   OH267584   3.571   4.923   1.925 -0.0779  0.0397 -0.3528
15390TIP3    H167585   3.572   4.904   1.832  1.7233  0.2225 -0.4081
15390TIP3    H267586   3.485   4.961   1.941 -0.5373 -0.2950 -1.8653
15391TIP3   OH267587   5.787   2.807   0.469  0.2161  0.0760  0.3182
15391TIP3    H167588   5.829   2.771   0.547  2.1934  2.3346  0.4330
15391TIP3    H267589   5.736   2.882   0.501  1.2262  1.1660 -0.4956
15392TIP3   OH267590   3.088   3.629   2.449 -0.1714  0.0058 -0.1321
15392TIP3    H167591   3.061   3.568   2.381  1.2786 -1.4121  0.4913
15392TIP3    H267592   3.028   3.704   2.440 -1.6036 -1.2170 -1.3254
15393TIP3   OH267593   0.374   6.721   1.480 -0.7175  0.0730  0.3310
15393TIP3    H167594   0.398   6.649   1.538 -1.7628 -1.0597 -0.5779
15393TIP3    H267595   0.299   6.687   1.430 -0.7812  1.5387 -0.6179
15394TIP3   OH267596   6.480   5.169   0.062 -0.6520  0.3519 -0.2008
15394TIP3    H167597   6.458   5.249   0.110  1.1801 -0.3325  1.9532
15394TIP3    H267598   6.575   5.166   0.064 -0.6965 -2.1954  0.3378
15395TIP3   OH267599   3.090   5.744   5.965  0.2562 -0.1946 -0.4580
15395TIP3    H167600   3.107   5.756   6.058  0.6142 -1.4091 -0.3523
15395TIP3    H267601   3.169   5.702   5.931 -0.1125 -0.3167 -1.1913
15396TIP3   OH267602   3.568   2.471   3.750 -0.5293  0.1529 -0.5334
15396TIP3    H167603   3.616   2.397   3.785  0.9989  1.2284 -0.2624
15396TIP3    H267604   3.623   2.505   3.680 -1.4182  0.7649 -0.9526
15397TIP3   OH267605   1.141   6.412   0.002  0.2989 -0.8324 -0.5729
15397TIP3    H167606   1.064   6.385   0.052  0.1963  0.4667 -0.0032
15397TIP3    H267607   1.151   6.505   0.021  0.8275 -0.5132 -2.2319
15398TIP3   OH267608   1.125   0.642   3.497  0.3988 -0.6559 -0.1866
15398TIP3    H167609   1.184   0.714   3.474 -0.1891 -0.8623 -2.6627
15398TIP3    H267610   1.152   0.616   3.585  2.3389  0.8627 -0.2508
15399TIP3   OH267611   3.345   5.836   6.404  0.1742 -0.3159  0.3586
15399TIP3    H167612   3.357   5.907   6.468  0.6524 -0.6637  0.6603
15399TIP3    H267613   3.331   5.758   6.458  0.4320 -0.5837  0.0357
15400TIP3   OH267614   6.425   3.846  14.565  0.1278  0.0678  0.0252
15400TIP3    H167615   6.348   3.903  14.574  1.8655  2.3177  1.6299
15400TIP3    H267616   6.477   3.888  14.497  1.5141  0.5587  1.3404
15401TIP3   OH267617   3.224   0.718  12.188 -0.3681 -0.2928  0.7102
15401TIP3    H167618   3.235   0.624  12.169  0.1706 -0.0143 -0.4535
15401TIP3    H267619   3.311   0.747  12.214 -0.0887  0.2426 -0.7076
15402TIP3   OH267620   6.744   5.354  13.231  0.0263  0.9265 -0.0664
15402TIP3    H167621   6.794   5.318  13.158 -0.9915  0.7195 -0.6909
15402TIP3    H267622   6.758   5.292  13.303  0.0925  0.4931 -0.4480
15403TIP3   OH267623   2.056   0.656   2.608  0.0887  0.2262  0.3781
15403TIP3    H167624   2.030   0.579   2.658  1.5073 -0.6978 -0.2517
15403TIP3    H267625   2.135   0.630   2.562 -0.5560  1.3746 -1.5238
15404TIP3   OH267626   3.744   6.670  16.150 -0.0976  0.5264 -0.1159
15404TIP3    H167627   3.806   6.742  16.164 -1.5042  1.4801  1.6165
15404TIP3    H267628   3.715   6.646  16.238 -0.7251 -1.2329 -0.7641
15405TIP3   OH267629   4.582   6.385  12.014 -0.2110 -0.2074 -0.0960
15405TIP3    H167630   4.636   6.321  12.061 -0.3369  0.1232  0.5131
15405TIP3    H267631   4.495   6.374  12.052 -0.2083  0.4073  0.1000
15406TIP3   OH267632   3.852   1.464   5.395 -0.5174 -0.1138 -0.2331
15406TIP3    H167633   3.779   1.410   5.365  0.3613 -0.4457 -1.9120
15406TIP3    H267634   3.851   1.540   5.338  0.2475  0.0366 -0.0586
15407TIP3   OH267635   3.521   5.540   2.117 -0.3458 -0.0991  0.2398
15407TIP3    H167636   3.458   5.492   2.062  1.2591 -1.5776 -0.3701
15407TIP3    H267637   3.511   5.631   2.089 -0.7737 -0.5876 -1.3276
15408TIP3   OH267638   6.076   5.557   6.524 -0.2366  0.1472 -0.1694
15408TIP3    H167639   6.131   5.559   6.446  0.5357  0.6984  0.3782
15408TIP3    H267640   6.072   5.648   6.553  0.5405 -0.2198  1.1555
15409TIP3   OH267641   5.268   3.575   4.926 -0.5711 -0.1193 -0.5635
15409TIP3    H167642   5.230   3.488   4.919  0.0314 -0.4262 -0.1637
15409TIP3    H267643   5.201   3.628   4.969 -0.3510 -0.7895  0.6592
15410TIP3   OH267644   4.289   3.697  15.851  0.1592 -0.3978  0.7636
15410TIP3    H167645   4.194   3.694  15.846  0.1671 -0.0222  0.2594
15410TIP3    H267646   4.308   3.784  15.887  0.3389  0.1030 -0.4717
15411TIP3   OH267647   3.058   3.264   5.083  0.1811  0.8936  0.2560
15411TIP3    H167648   3.021   3.351   5.100 -0.1819  0.3711  2.4605
15411TIP3    H267649   2.982   3.206   5.079  0.5470 -0.0379  3.8355
15412TIP3   OH267650   1.816   0.959   3.535  0.0049 -0.0481  0.1919
15412TIP3    H167651   1.904   0.956   3.497  0.2439 -0.4942  0.7642
15412TIP3    H267652   1.758   0.937   3.463  0.2856  1.1895 -0.4250
15413TIP3   OH267653   4.068   6.684  13.313 -0.3590  0.5199 -0.5632
15413TIP3    H167654   4.157   6.666  13.345 -0.1451  3.0632  0.4978
15413TIP3    H267655   4.064   6.640  13.228  1.1950 -1.3006  0.2156
15414TIP3   OH267656   0.332   0.860   4.707  0.3524 -0.3278 -0.6034
15414TIP3    H167657   0.405   0.807   4.739  0.5695  0.9333  1.0992
15414TIP3    H267658   0.278   0.799   4.657  1.1274 -1.9214  0.4384
15415TIP3   OH267659   4.028   0.780  16.312 -0.0254  0.5434  0.3196
15415TIP3    H167660   4.032   0.685  16.310  0.6211  0.5713  0.1969
15415TIP3    H267661   3.977   0.800  16.390 -1.7055  0.0677 -0.5970
15416TIP3   OH267662   6.515   3.553  12.736 -0.0225  0.5719  0.7347
15416TIP3    H167663   6.453   3.617  12.771 -0.2218  0.6295  0.2819
15416TIP3    H267664   6.576   3.605  12.682  0.1095  0.4468  0.7614
15417TIP3   OH267665   3.602   0.481  15.753 -0.3821  0.6177  0.0643
15417TIP3    H167666   3.581   0.473  15.660 -0.1553  0.6988  0.0032
15417TIP3    H267667   3.593   0.575  15.772  1.7127  0.9774 -0.4230
15418TIP3   OH267668   4.392   5.659   1.491  0.0982 -0.3798 -0.1457
15418TIP3    H167669   4.303   5.647   1.457 -0.4728  0.1662  1.0859
15418TIP3    H267670   4.417   5.572   1.523  0.0278 -0.5425 -0.5271
15419TIP3   OH267671   5.999   2.600  12.889 -0.3225 -0.0468  0.4931
15419TIP3    H167672   5.920   2.654  12.894  0.0076  0.8088 -2.1601
15419TIP3    H267673   5.984   2.542  12.814  0.4596 -1.8461  1.6554
15420TIP3   OH267674   6.142   5.046  12.324  0.5760  0.3229 -0.0333
15420TIP3    H167675   6.185   4.978  12.273  0.4961  0.2904 -0.0565
15420TIP3    H267676   6.109   5.002  12.402  2.4136  0.7229  1.0325
15421TIP3   OH267677   0.128   6.663   4.741  0.1141  0.2071 -0.1331
15421TIP3    H167678   0.126   6.743   4.794  0.8600  0.0376  0.1572
15421TIP3    H267679   0.127   6.695   4.651 -2.0540  0.4775 -0.0686
15422TIP3   OH267680   0.769   0.812   5.306 -0.3158  0.1855  0.4460
15422TIP3    H167681   0.719   0.761   5.369  1.1909  1.1834  2.5516
15422TIP3    H267682   0.755   0.767   5.222  0.7123 -3.6019  2.0867
15423TIP3   OH267683   3.608   5.210  15.872 -0.4685 -0.8435 -1.1250
15423TIP3    H167684   3.687   5.167  15.904  0.6181  1.4263 -0.5303
15423TIP3    H267685   3.617   5.301  15.901 -2.9346 -0.3317 -1.7307
15424TIP3   OH267686   5.923   5.028   0.671 -0.1597  0.3820  0.0850
15424TIP3    H167687   5.976   5.076   0.607  2.0751 -2.0869 -0.0697
15424TIP3    H267688   5.833   5.037   0.639  0.5340  1.8005 -1.6442
15425TIP3   OH267689   4.332   1.455  15.934 -0.0692 -0.8056 -0.2550
15425TIP3    H167690   4.400   1.462  15.868  0.2653  0.9458  0.2419
15425TIP3    H267691   4.379   1.439  16.016 -0.3140 -0.5858 -0.0670
15426TIP3   OH267692   3.841   4.821  11.964  0.1475  0.0966 -0.2162
15426TIP3    H167693   3.761   4.805  12.013 -0.8322 -1.1558 -2.1133
15426TIP3    H267694   3.887   4.888  12.014 -2.7002  1.8594  0.2388
15427TIP3   OH267695   3.333   3.865  13.057 -0.0491  0.0792 -0.1110
15427TIP3    H167696   3.288   3.818  12.987  0.3464  0.2900 -0.5134
15427TIP3    H267697   3.352   3.951  13.020 -0.9710  0.6538  0.7000
15428TIP3   OH267698   0.054   4.727  17.160 -0.0453  0.6641  0.4925
15428TIP3    H167699   0.084   4.668  17.229 -0.0792 -0.3977 -0.3727
15428TIP3    H267700  -0.034   4.696  17.138  0.8189 -0.5388 -1.6058
15429TIP3   OH267701   4.973   0.179   1.424  0.2910 -0.2477 -0.2708
15429TIP3    H167702   4.917   0.171   1.347  0.1283 -0.6140 -0.1211
15429TIP3    H267703   4.972   0.272   1.445 -3.0026 -0.5218  1.6730
15430TIP3   OH267704   5.692   0.102  12.480 -0.0062 -0.1069 -0.6510
15430TIP3    H167705   5.639   0.121  12.558 -1.4663  1.2851 -1.9185
15430TIP3    H267706   5.633   0.055  12.421  0.6075  0.2139 -1.5346
15431TIP3   OH267707   2.376   3.836   0.586  0.2554 -0.2684 -0.2644
15431TIP3    H167708   2.309   3.835   0.518  0.7949  1.3028 -0.8514
15431TIP3    H267709   2.393   3.743   0.604 -0.9979 -0.6960 -1.1528
15432TIP3   OH267710   3.224   1.852   1.647  0.2237  0.0907  0.0316
15432TIP3    H167711   3.149   1.817   1.599  0.6077 -1.8062  0.6993
15432TIP3    H267712   3.299   1.834   1.590  0.4342 -0.2863  0.4154
15433TIP3   OH267713   2.014   6.082   5.082  0.1353  0.1119  0.5433
15433TIP3    H167714   2.013   6.109   4.990 -0.0947 -0.1608  0.4653
15433TIP3    H267715   1.980   6.157   5.130 -0.8938 -0.1781  0.2906
15434TIP3   OH267716   0.251   6.551   2.364  0.0837 -0.3509  0.8446
15434TIP3    H167717   0.242   6.641   2.331 -0.3881  0.3971  2.8291
15434TIP3    H267718   0.336   6.522   2.331 -0.3309  0.3286 -0.9136
15435TIP3   OH267719   0.383   1.243  13.568  0.0534  0.1766 -0.1667
15435TIP3    H167720   0.319   1.251  13.498  1.0255 -1.3083 -1.2740
15435TIP3    H267721   0.448   1.181  13.535  0.8438 -0.1412  1.8297
15436TIP3   OH267722   4.917   0.821  15.487 -0.7821  0.0507 -0.2665
15436TIP3    H167723   4.837   0.873  15.490 -0.2402  0.8616  0.7230
15436TIP3    H267724   4.957   0.834  15.573  1.2368  0.9750 -1.2803
15437TIP3   OH267725   0.100   2.967   6.254 -0.1553 -0.9624 -0.0460
15437TIP3    H167726   0.174   2.989   6.311 -1.5604  2.3575  0.7562
15437TIP3    H267727   0.117   3.017   6.174 -2.3233  1.5255  0.8963
15438TIP3   OH267728   1.300   6.540  12.946  0.1332  0.2684  0.1896
15438TIP3    H167729   1.261   6.452  12.942  0.8942 -0.0714  0.1372
15438TIP3    H267730   1.356   6.537  13.023  0.9712  0.3702 -0.4083
15439TIP3   OH267731   0.707   4.950   3.082 -0.4803 -0.2135 -0.7292
15439TIP3    H167732   0.685   4.857   3.078  2.7850 -1.2004  0.7107
15439TIP3    H267733   0.792   4.957   3.039 -0.1799  1.9350  0.0465
15440TIP3   OH267734   2.623   0.071  15.245  0.2660 -0.3732  0.6801
15440TIP3    H167735   2.574   0.103  15.169  1.5241 -0.6577 -0.2849
15440TIP3    H267736   2.556   0.036  15.304 -0.6574 -1.4111 -0.9062
15441TIP3   OH267737   5.191   4.743  16.851  0.1953 -0.0174  0.2757
15441TIP3    H167738   5.284   4.723  16.848  0.2188 -0.1102  1.2602
15441TIP3    H267739   5.171   4.779  16.764  0.8104 -1.3732 -0.4520
15442TIP3   OH267740   1.442   0.256   1.004  0.3835 -0.0108  0.3374
15442TIP3    H167741   1.493   0.263   0.924  2.9289  0.3388  1.8838
15442TIP3    H267742   1.400   0.170   0.999  1.1020 -0.2954 -1.0302
15443TIP3   OH267743   6.736   2.115  13.446  0.4684 -0.0890 -0.3928
15443TIP3    H167744   6.812   2.157  13.486  0.6062 -1.1421  0.4915
15443TIP3    H267745   6.773   2.053  13.384  0.2668  0.9821 -1.6193
15444TIP3   OH267746   0.871   3.286  11.858  0.0336 -1.0300  0.6295
15444TIP3    H167747   0.852   3.379  11.850  0.3953 -1.0667 -1.0192
15444TIP3    H267748   0.789   3.242  11.838  0.0023 -1.0860  0.8706
15445TIP3   OH267749   4.810   0.642  11.126  0.1572 -0.2709 -0.1203
15445TIP3    H167750   4.853   0.615  11.207  1.0487 -0.5275 -0.6731
15445TIP3    H267751   4.842   0.581  11.060 -1.0533 -0.4727 -0.5587
15446TIP3   OH267752   2.263   2.936   0.835 -0.6691  0.3523 -0.7844
15446TIP3    H167753   2.173   2.962   0.814 -0.0291  1.5280 -2.2188
15446TIP3    H267754   2.290   2.882   0.761 -0.7794 -1.5889  0.5139
15447TIP3   OH267755   5.990   2.289   3.116  0.6534 -0.0261 -0.0791
15447TIP3    H167756   6.076   2.317   3.148  0.5952 -0.6824  0.6572
15447TIP3    H267757   6.005   2.204   3.077 -0.2982 -2.1443  3.6764
15448TIP3   OH267758   4.445   1.697   4.838 -0.3051 -0.1986  0.3194
15448TIP3    H167759   4.401   1.713   4.755 -0.5260 -0.9736  0.2808
15448TIP3    H267760   4.413   1.765   4.896  1.1343  1.4087 -0.6919
15449TIP3   OH267761   3.279   5.975  12.366 -0.5839 -0.3795 -0.1878
15449TIP3    H167762   3.243   6.063  12.377 -0.3130 -0.5081  2.1591
15449TIP3    H267763   3.207   5.917  12.390 -0.0311 -0.7297  0.6475
15450TIP3   OH267764   2.041   1.064  12.315 -0.3603 -0.0078  0.0100
15450TIP3    H167765   2.120   1.025  12.353 -0.2910  0.6564  0.5757
15450TIP3    H267766   2.069   1.152  12.289 -0.8613  0.1465 -0.0002
15451TIP3   OH267767   3.486   1.135   3.046  0.4984  0.0711  0.0237
15451TIP3    H167768   3.460   1.043   3.060  0.6512 -0.2051 -1.3612
15451TIP3    H267769   3.556   1.149   3.109  1.6479 -1.3118 -0.8816
15452TIP3   OH267770   2.566   4.458  15.539 -0.1625 -0.3050 -0.0574
15452TIP3    H167771   2.650   4.466  15.584 -0.0601 -1.2432 -0.0565
15452TIP3    H267772   2.563   4.533  15.480 -0.4458  1.1527  1.7171
15453TIP3   OH267773   2.428   6.289  11.597  0.3604  0.5381  0.1209
15453TIP3    H167774   2.498   6.326  11.651  1.4202  0.2633 -1.0289
15453TIP3    H267775   2.353   6.284  11.656  1.5525 -0.0472  1.6619
15454TIP3   OH267776   5.268   3.337  14.499 -0.4810  0.2103  0.1085
15454TIP3    H167777   5.242   3.245  14.508 -1.2601  0.4644  0.5638
15454TIP3    H267778   5.227   3.381  14.573  0.9032  0.7330  0.5991
15455TIP3   OH267779   2.424   1.218   0.439 -0.1832 -0.7715 -0.5792
15455TIP3    H167780   2.445   1.128   0.463  0.0637 -1.4160 -2.9565
15455TIP3    H267781   2.330   1.218   0.423 -0.3147 -0.3967  0.1321
15456TIP3   OH267782   2.151   2.932  16.811  0.2921 -0.5079 -0.0600
15456TIP3    H167783   2.209   2.973  16.875  0.2740  1.7950 -1.4047
15456TIP3    H267784   2.138   3.000  16.744 -2.7788 -1.4287 -0.5461
15457TIP3   OH267785   0.086   0.900   1.118 -0.1568 -0.6168 -0.2916
15457TIP3    H167786   0.100   0.951   1.038 -0.9932  0.5598  0.2717
15457TIP3    H267787   0.156   0.836   1.119  1.6448  1.2574 -0.4857
15458TIP3   OH267788   2.041   2.507   6.059  0.1134  0.3778  0.3523
15458TIP3    H167789   2.091   2.428   6.039  0.0823  0.8264 -1.7868
15458TIP3    H267790   2.008   2.493   6.147 -0.0853 -2.1051 -0.0390
15459TIP3   OH267791   2.918   3.727  13.703  0.5523  0.1424 -0.1205
15459TIP3    H167792   2.995   3.758  13.750 -0.2526 -0.6242  1.8510
15459TIP3    H267793   2.934   3.749  13.612  3.6668 -1.1359 -0.0031
15460TIP3   OH267794   3.562   4.749   3.261  0.1272  0.8205 -0.3375
15460TIP3    H167795   3.549   4.831   3.308 -0.0474  1.4773 -1.4920
15460TIP3    H267796   3.566   4.682   3.329 -0.9955  1.6331  0.5505
15461TIP3   OH267797   0.427   5.764   4.301  0.4655 -0.6227 -0.1266
15461TIP3    H167798   0.473   5.848   4.311  1.5006 -1.3292  1.4594
15461TIP3    H267799   0.491   5.706   4.260  0.1863 -0.9765 -0.0672
15462TIP3   OH267800   6.637   2.574  11.866  0.2346  0.1391  0.4570
15462TIP3    H167801   6.704   2.614  11.811  1.1329 -1.9262 -0.0456
15462TIP3    H267802   6.582   2.647  11.893  1.8543  1.7152 -0.2669
15463TIP3   OH267803   5.176   1.015   3.588  0.0297 -0.1031 -0.3330
15463TIP3    H167804   5.105   0.951   3.590  0.1447 -0.2191 -0.0021
15463TIP3    H267805   5.252   0.967   3.557  1.0470 -1.0751  3.2099
15464TIP3   OH267806   0.955   4.454   1.146 -0.2974  0.4383  0.0142
15464TIP3    H167807   1.037   4.442   1.195  0.7552  4.5857 -0.3875
15464TIP3    H267808   0.887   4.422   1.205  1.2530  1.4237  2.4712
15465TIP3   OH267809   0.430   2.270  15.988 -0.0183  0.2491  0.6111
15465TIP3    H167810   0.357   2.323  16.020 -0.3736  0.7450 -0.9450
15465TIP3    H267811   0.500   2.285  16.052 -0.3082  2.1566  0.5431
15466TIP3   OH267812   0.535   6.016   4.345 -0.5958  0.4295 -1.2462
15466TIP3    H167813   0.581   6.094   4.317 -2.0826  1.6602 -0.4519
15466TIP3    H267814   0.486   6.044   4.423 -1.1503 -1.2998 -0.9223
15467TIP3   OH267815   5.164   0.500  10.854 -0.2788 -0.2472  0.0137
15467TIP3    H167816   5.190   0.510  10.762 -1.0497  0.0280 -0.1848
15467TIP3    H267817   5.213   0.424  10.885  0.0289 -0.3076 -0.6134
15468TIP3   OH267818   5.553   0.435  15.821 -0.3836  0.6010  0.4643
15468TIP3    H167819   5.461   0.429  15.848 -0.4674  2.4946  0.7575
15468TIP3    H267820   5.564   0.363  15.758 -2.4430  1.0938 -0.5761
15469TIP3   OH267821   2.647   6.094   4.452  0.2081  0.3973  0.0854
15469TIP3    H167822   2.577   6.040   4.418 -0.7090  1.7432 -0.2435
15469TIP3    H267823   2.638   6.177   4.405  0.2575  1.5591  2.0281
15470TIP3   OH267824   6.370   6.668  16.590  0.9747 -0.3214  0.7334
15470TIP3    H167825   6.288   6.652  16.637 -0.9968  1.1639 -1.8866
15470TIP3    H267826   6.431   6.698  16.657 -1.6036  1.6809  2.3797
15471TIP3   OH267827   5.749   0.578  13.409  0.6036  0.2173  0.1909
15471TIP3    H167828   5.844   0.569  13.417  0.5539  0.3801  1.0198
15471TIP3    H267829   5.716   0.489  13.416  0.6026  0.2933  1.3851
15472TIP3   OH267830   4.449   1.342   3.659  0.0121  0.1251  0.0507
15472TIP3    H167831   4.376   1.404   3.665  0.5996  0.7522  0.9660
15472TIP3    H267832   4.485   1.339   3.747  1.7065  0.5662 -0.6021
15473TIP3   OH267833   2.074   1.459   2.568  0.1462  0.5769  0.0839
15473TIP3    H167834   2.082   1.554   2.570 -0.0402  0.5834  0.8258
15473TIP3    H267835   2.106   1.431   2.654 -0.9101  0.0633  0.3267
15474TIP3   OH267836   6.529   6.427  16.568 -0.5906 -0.1810 -0.1054
15474TIP3    H167837   6.434   6.411  16.573 -0.9150  1.3249 -0.9605
15474TIP3    H267838   6.537   6.519  16.545  1.1127 -0.1842  0.3602
15475TIP3   OH267839   1.502   4.644  16.543 -0.0959 -0.0587 -0.4932
15475TIP3    H167840   1.506   4.580  16.614 -0.9221 -1.0432 -1.3103
15475TIP3    H267841   1.409   4.655  16.524  0.1193 -0.4598 -1.9665
15476TIP3   OH267842   1.241   3.566  13.335 -0.7838  0.6097 -0.0015
15476TIP3    H167843   1.322   3.521  13.358  0.4026  2.0843 -1.0496
15476TIP3    H267844   1.172   3.501  13.350  0.6770 -1.0220 -0.0055
15477TIP3   OH267845   5.854   0.367   2.131 -0.3779  0.5149  0.6350
15477TIP3    H167846   5.770   0.335   2.100 -0.3230 -1.9802  2.6584
15477TIP3    H267847   5.919   0.318   2.080 -0.2877 -1.4781  2.4818
15478TIP3   OH267848   2.860   1.977  12.971 -0.0570  0.3965 -0.6250
15478TIP3    H167849   2.797   2.016  13.032  0.6750  3.4005 -1.6023
15478TIP3    H267850   2.914   2.051  12.942  1.9728 -1.5385 -2.1491
15479TIP3   OH267851   2.070   5.871   4.475  0.2222  0.2084 -0.3625
15479TIP3    H167852   1.991   5.819   4.461  0.6932 -0.2899 -1.1972
15479TIP3    H267853   2.072   5.885   4.570 -0.0022 -1.1571 -0.1347
15480TIP3   OH267854   2.114   2.382  14.594  0.5461  0.3361 -0.1091
15480TIP3    H167855   2.133   2.422  14.509 -0.0688  0.4061 -0.2204
15480TIP3    H267856   2.142   2.446  14.658 -1.9532  1.7266 -0.2892
15481TIP3   OH267857   5.926   5.671   5.427 -0.1308 -0.5240  0.4688
15481TIP3    H167858   5.972   5.661   5.510  1.0286 -1.0572 -0.2102
15481TIP3    H267859   5.971   5.611   5.367 -1.7963 -1.1689 -0.2128
15482TIP3   OH267860   2.410   0.316  12.592 -0.4608  0.3528  0.0089
15482TIP3    H167861   2.351   0.260  12.642 -1.0508 -0.6779 -1.7436
15482TIP3    H267862   2.354   0.358  12.527  0.6386 -0.4105 -1.5053
15483TIP3   OH267863   3.425   5.223   5.168  0.0100 -0.0744 -0.0084
15483TIP3    H167864   3.459   5.257   5.085 -1.2065  0.0991 -0.4594
15483TIP3    H267865   3.332   5.211   5.152 -0.2676  0.0763  1.3823
15484TIP3   OH267866   6.156   6.540   3.638  0.1623  0.4755  0.2371
15484TIP3    H167867   6.212   6.491   3.698 -1.2706 -0.8107  0.5827
15484TIP3    H267868   6.130   6.618   3.688 -2.4825 -1.4546  2.0759
15485TIP3   OH267869   0.800   2.907   3.792 -0.1603  0.4576 -0.3502
15485TIP3    H167870   0.886   2.938   3.820 -0.2900 -0.2807  0.9454
15485TIP3    H267871   0.815   2.816   3.766 -0.8057 -0.1862  1.4122
15486TIP3   OH267872   1.960   4.574  14.759 -0.8630 -0.2673  0.6179
15486TIP3    H167873   1.898   4.516  14.803  0.4898 -2.0376  0.3390
15486TIP3    H267874   2.045   4.531  14.771  0.2654  1.8694  0.6680
15487TIP3   OH267875   4.905   4.322   0.101  0.1797 -0.4424 -0.3145
15487TIP3    H167876   4.880   4.279   0.019  0.6148  0.1895 -0.7902
15487TIP3    H267877   4.892   4.255   0.168 -4.5839  0.2835 -0.1793
15488TIP3   OH267878   5.255   6.488   2.975  0.0946 -0.0470 -0.1436
15488TIP3    H167879   5.328   6.494   2.913  1.0183  0.3706  0.9579
15488TIP3    H267880   5.186   6.540   2.935  0.1094 -1.0665 -1.5687
15489TIP3   OH267881   1.544   0.478  14.283 -0.1637  0.2100 -0.1354
15489TIP3    H167882   1.564   0.440  14.198  0.2909  0.9842 -0.3860
15489TIP3    H267883   1.630   0.498  14.321 -0.3919  1.4281 -0.2266
15490TIP3   OH267884   2.800   3.139  13.309  0.0509 -0.0788 -0.0146
15490TIP3    H167885   2.720   3.086  13.314 -0.1545  0.1318 -1.0192
15490TIP3    H267886   2.778   3.219  13.356  0.0293 -0.4512  0.6295
15491TIP3   OH267887   1.203   3.326  17.146  0.5117 -0.4901  0.3479
15491TIP3    H167888   1.205   3.368  17.061  0.2208 -2.1548 -0.5137
15491TIP3    H267889   1.280   3.270  17.147  0.6378 -0.3245  1.2860
15492TIP3   OH267890   3.956   6.061   5.310  0.1070  0.2937  0.1706
15492TIP3    H167891   3.934   6.112   5.388 -0.0600  0.8356 -0.2266
15492TIP3    H267892   4.001   5.983   5.345 -1.3365 -0.2453  0.9027
15493TIP3   OH267893   4.366   1.629   2.158 -0.1117  0.2275  0.2465
15493TIP3    H167894   4.441   1.684   2.181  0.6241 -1.3802  1.9430
15493TIP3    H267895   4.405   1.545   2.134 -1.2876 -0.0470 -0.8158
15494TIP3   OH267896   6.744   4.873  13.949  0.1833 -0.1144  0.8343
15494TIP3    H167897   6.809   4.818  13.994  1.6895  1.2713  0.4591
15494TIP3    H267898   6.709   4.818  13.880  0.3382 -1.1665  1.5737
15495TIP3   OH267899   5.281   4.195  14.215 -0.2738  0.2199  0.0956
15495TIP3    H167900   5.267   4.283  14.251  0.8010 -0.1791  1.5956
15495TIP3    H267901   5.314   4.144  14.289  2.8869 -0.4519 -1.6108
15496TIP3   OH267902   0.354   4.435  11.781 -0.7756  0.0087  0.3462
15496TIP3    H167903   0.430   4.441  11.722 -1.5676 -0.5778 -0.7698
15496TIP3    H267904   0.316   4.523  11.780 -0.0136  0.3593  1.0668
15497TIP3   OH267905   6.791   4.332   2.732  0.0637  0.2946 -0.2672
15497TIP3    H167906   6.875   4.313   2.691 -0.0031 -2.2641  0.5886
15497TIP3    H267907   6.729   4.334   2.659  0.5210 -0.2811 -0.6876
15498TIP3   OH267908   0.667   2.004   4.011  0.5524  0.1017 -0.4603
15498TIP3    H167909   0.740   2.066   4.017  0.2629  0.3535  0.6684
15498TIP3    H267910   0.699   1.924   4.052 -0.1875  0.6074  1.1881
15499TIP3   OH267911   3.574   3.076  16.023 -0.3068 -0.4728 -0.0933
15499TIP3    H167912   3.484   3.044  16.020  0.2260 -2.3822  1.5102
15499TIP3    H267913   3.627   2.999  16.002  0.9860  0.6333 -1.0926
15500TIP3   OH267914   3.938   2.141   5.050 -0.0816  0.0200 -0.3307
15500TIP3    H167915   3.872   2.205   5.023  0.1869  1.2183  1.6444
15500TIP3    H267916   3.930   2.070   4.987 -2.2747  0.7728 -0.9920
15501TIP3   OH267917   6.640   1.438   2.796 -0.6716  0.0939  0.2027
15501TIP3    H167918   6.605   1.352   2.818  0.6093  0.0985  2.5858
15501TIP3    H267919   6.627   1.490   2.875  1.2620  1.1558 -0.1133
15502TIP3   OH267920   0.099   6.404   4.975  0.0843 -0.3494 -0.0761
15502TIP3    H167921   0.079   6.496   4.994  0.6757 -0.2332 -0.0060
15502TIP3    H267922   0.062   6.390   4.888 -2.1251 -0.7210  0.8378
15503TIP3   OH267923   3.145   0.126   2.393 -0.3921  0.1144 -0.2294
15503TIP3    H167924   3.093   0.084   2.324  0.1084  1.0592 -1.2055
15503TIP3    H267925   3.229   0.080   2.390  0.0846  1.0101 -1.1597
15504TIP3   OH267926   0.609   5.074   0.170  0.2658 -0.1923  0.1709
15504TIP3    H167927   0.614   5.053   0.077 -0.1223 -0.3696  0.1876
15504TIP3    H267928   0.698   5.101   0.194 -0.3823  3.8987 -1.1824
15505TIP3   OH267929   0.769   3.763  14.994  0.1649 -0.1196 -0.3733
15505TIP3    H167930   0.683   3.726  15.017  0.1434 -0.1036 -0.4301
15505TIP3    H267931   0.823   3.686  14.973  0.2440 -0.1508 -0.0698
15506TIP3   OH267932   4.322   6.402   0.578 -0.2892  0.1790 -0.2972
15506TIP3    H167933   4.399   6.458   0.565 -0.4896  0.4920 -0.1453
15506TIP3    H267934   4.305   6.406   0.672 -1.5626  1.5558 -0.5531
15507TIP3   OH267935   4.953   3.058  16.370  0.0176  0.0378 -0.2167
15507TIP3    H167936   4.871   3.059  16.320  0.0550 -1.8490 -0.3956
15507TIP3    H267937   5.006   2.990  16.327  1.1134  0.2616  0.7529
15508TIP3   OH267938   2.683   5.074  12.669  0.0146 -0.2082  0.8652
15508TIP3    H167939   2.774   5.091  12.643 -0.1527  0.6099  0.7762
15508TIP3    H267940   2.662   5.146  12.729 -0.8039  0.0326  0.3059
15509TIP3   OH267941   5.765   0.119   6.411  0.1337 -0.2049 -0.2795
15509TIP3    H167942   5.750   0.062   6.486  0.3211 -2.6612 -2.0218
15509TIP3    H267943   5.690   0.179   6.411 -1.0948 -1.6895  0.5118
15510TIP3   OH267944   4.092   1.781   3.744  0.0185  0.2261 -0.6093
15510TIP3    H167945   4.015   1.832   3.718 -0.9772 -1.2908 -0.7834
15510TIP3    H267946   4.138   1.764   3.662  0.0067  0.3190 -0.6352
15511TIP3   OH267947   3.506   1.856  10.573  0.3863  0.0285 -0.3022
15511TIP3    H167948   3.417   1.831  10.595  0.7444 -1.4243 -0.3743
15511TIP3    H267949   3.497   1.936  10.522 -0.7638  0.7311  0.9383
15512TIP3   OH267950   3.913   5.014  16.594 -0.0224  0.7456 -0.0920
15512TIP3    H167951   3.889   4.934  16.642 -0.9270  0.0865 -1.5621
15512TIP3    H267952   3.845   5.022  16.527  1.2091  1.6130 -1.2780
15513TIP3   OH267953   0.915   6.658  12.396  0.6830 -0.0393  0.5074
15513TIP3    H167954   0.967   6.739  12.404 -0.3247  0.5762  0.9452
15513TIP3    H267955   0.875   6.646  12.482  1.3855 -1.4186  0.6629
15514TIP3   OH267956   2.855   1.971  16.735  0.1359 -0.0456 -0.3993
15514TIP3    H167957   2.762   1.978  16.754  0.3923  0.0750  0.9236
15514TIP3    H267958   2.895   1.952  16.820  1.3491  0.2021 -0.8983
15515TIP3   OH267959   0.817   3.744  11.613 -0.9015  1.0937 -0.0573
15515TIP3    H167960   0.729   3.715  11.634 -0.6496 -0.8435 -1.3914
15515TIP3    H267961   0.874   3.695  11.673 -0.6452  1.0389 -0.3397
15516TIP3   OH267962   0.275   3.865   1.042 -0.2877  0.1400 -0.0724
15516TIP3    H167963   0.306   3.939   1.096 -0.4882  0.7171 -0.7372
15516TIP3    H267964   0.207   3.824   1.095 -1.7899  1.8135 -0.6086
15517TIP3   OH267965   3.084   6.556   2.961  0.0592  0.6139 -0.0075
15517TIP3    H167966   3.035   6.530   3.039 -0.3635 -1.2212 -0.8129
15517TIP3    H267967   3.175   6.537   2.982 -0.0905 -0.1929 -0.0538
15518TIP3   OH267968   2.021   2.717   5.177 -0.2465 -0.3211  0.3891
15518TIP3    H167969   2.070   2.672   5.108 -2.4280 -0.2756 -1.3004
15518TIP3    H267970   2.065   2.692   5.258  1.9692 -0.9745 -0.9379
15519TIP3   OH267971   3.173   1.839   5.954  0.0344 -0.2127  0.7371
15519TIP3    H167972   3.249   1.782   5.940 -0.5752 -0.8826  0.0223
15519TIP3    H267973   3.101   1.793   5.911 -0.2175  1.7719 -1.1426
15520TIP3   OH267974   0.995   0.448   5.475  0.1175  0.0811 -0.2353
15520TIP3    H167975   1.031   0.490   5.553  2.1623 -2.5205  0.3513
15520TIP3    H267976   1.063   0.457   5.408 -0.8396  0.6317 -1.1762
15521TIP3   OH267977   6.380   0.956   1.401  0.3062 -0.6580  0.4185
15521TIP3    H167978   6.410   0.869   1.377 -1.0819 -0.8129 -0.9278
15521TIP3    H267979   6.459   1.009   1.404  0.9048 -1.3535 -1.5730
15522TIP3   OH267980   5.096   5.824   1.939 -0.2702  0.1414 -0.3363
15522TIP3    H167981   5.106   5.857   2.028 -0.1855 -0.3210 -0.1727
15522TIP3    H267982   5.041   5.889   1.896 -0.5692  0.2075  0.1396
15523TIP3   OH267983   3.846   0.125   3.838  0.0740 -0.1867 -0.5909
15523TIP3    H167984   3.826   0.210   3.798  0.6641 -0.0461 -0.5967
15523TIP3    H267985   3.763   0.078   3.835 -0.0282  0.0149 -1.5193
15524TIP3   OH267986   2.813   0.465  12.024 -0.3551 -0.0862 -0.0628
15524TIP3    H167987   2.813   0.549  11.979 -0.3912  0.4778  0.9599
15524TIP3    H267988   2.885   0.416  11.984  0.6393  0.9960  0.3355
15525TIP3   OH267989   1.658   4.143   5.328  0.0274 -0.2625  0.0738
15525TIP3    H167990   1.607   4.223   5.337  2.2986  1.4966 -1.3167
15525TIP3    H267991   1.681   4.118   5.417 -1.1606  0.3043  0.5510
15526TIP3   OH267992   0.885   6.243   0.401  0.1885 -0.1842  0.3812
15526TIP3    H167993   0.893   6.160   0.447  1.1277 -0.2257  0.1642
15526TIP3    H267994   0.793   6.247   0.373  0.2466 -1.3706 -0.0273
15527TIP3   OH267995   1.443   5.648   3.468 -0.4462 -0.2792  0.2161
15527TIP3    H167996   1.423   5.634   3.561 -2.4734 -0.8956 -0.2514
15527TIP3    H267997   1.478   5.737   3.464 -0.5606 -0.1501  1.5304
15528TIP3   OH267998   4.984   2.884  13.982  0.3762  1.0705 -0.6004
15528TIP3    H167999   5.012   2.956  14.038  1.5981  0.4183 -0.3214
15528TIP3    H268000   5.008   2.805  14.031  0.3029  0.4912 -1.4782
15529TIP3   OH268001   5.158   0.880   3.834 -0.1450  0.0666 -0.2404
15529TIP3    H168002   5.073   0.890   3.876  0.3779 -0.5702  1.0065
15529TIP3    H268003   5.183   0.969   3.807  0.7408  1.0297  3.2961
15530TIP3   OH268004   2.154   0.479  11.323 -0.2920 -0.2195 -0.0780
15530TIP3    H168005   2.208   0.470  11.245  2.6663  0.4963  1.7010
15530TIP3    H268006   2.162   0.571  11.348 -1.3797 -0.3675  0.9096
15531TIP3   OH268007   6.382   5.450   2.941  0.7598 -0.1588 -0.8984
15531TIP3    H168008   6.315   5.382   2.948  0.9011 -0.3261 -1.1622
15531TIP3    H268009   6.461   5.403   2.913  1.4575 -0.2599  1.0564
15532TIP3   OH268010   4.824   3.981  16.482 -0.0111  0.4467 -0.7895
15532TIP3    H168011   4.744   3.992  16.532  0.2530 -1.9181  0.2844
15532TIP3    H268012   4.796   3.941  16.400  0.1286 -1.4803  0.0633
15533TIP3   OH268013   1.164   0.590   1.004 -0.0832  0.0354 -0.0320
15533TIP3    H168014   1.090   0.627   0.955 -0.8791  1.1159  1.8544
15533TIP3    H268015   1.148   0.496   1.006 -2.1114  0.3496  1.3277
15534TIP3   OH268016   3.261   2.281  13.104  0.0931  0.2012 -0.3129
15534TIP3    H168017   3.168   2.265  13.086 -0.3667 -1.8546  3.0118
15534TIP3    H268018   3.260   2.345  13.176  1.2637  0.2987 -0.3651
15535TIP3   OH268019   2.592   1.396   0.339 -0.1288  0.2382  0.1676
15535TIP3    H168020   2.642   1.324   0.300 -1.1593 -1.9302  2.5302
15535TIP3    H268021   2.520   1.352   0.386 -0.3332  2.7217  2.4164
15536TIP3   OH268022   1.315   2.778   5.073 -0.5138 -0.0952 -0.2424
15536TIP3    H168023   1.257   2.842   5.031  0.5278 -0.4151 -2.3158
15536TIP3    H268024   1.340   2.719   5.002 -0.0245 -1.7570  1.2430
15537TIP3   OH268025   3.570   0.459  17.039  0.2847  0.1336 -0.0064
15537TIP3    H168026   3.650   0.501  17.007  0.4489  0.7901  1.1650
15537TIP3    H268027   3.502   0.483  16.976  1.3844 -2.2962 -2.2863
15538TIP3   OH268028   6.022   2.570  10.819 -0.0117  0.4222 -0.1290
15538TIP3    H168029   6.049   2.563  10.728 -0.1798  0.1089 -0.1557
15538TIP3    H268030   6.101   2.550  10.869 -0.1195 -0.2112 -0.2065
15539TIP3   OH268031   4.539   5.906   2.700 -0.7248 -0.5522 -0.2158
15539TIP3    H168032   4.555   5.953   2.618 -1.6968  1.2693  0.5814
15539TIP3    H268033   4.495   5.970   2.756 -1.8904 -2.3539  1.0351
15540TIP3   OH268034   4.427   3.420   2.029  0.9643 -0.1768  0.2131
15540TIP3    H168035   4.334   3.439   2.013  1.0158 -0.7978 -0.9474
15540TIP3    H268036   4.431   3.394   2.120  0.0877  0.4079  0.4340
15541TIP3   OH268037   6.580   2.175   3.606  0.5774 -0.2422 -0.0945
15541TIP3    H168038   6.626   2.257   3.625 -0.9388  0.8307 -0.8466
15541TIP3    H268039   6.588   2.165   3.511 -1.4920  0.5154 -0.4135
15542TIP3   OH268040   2.904   2.830   0.556 -0.0201  0.0956  0.0049
15542TIP3    H168041   2.897   2.890   0.482  0.6016  0.0723 -0.0828
15542TIP3    H268042   2.955   2.879   0.621  2.0933 -0.9402 -0.7590
15543TIP3   OH268043   6.310   4.265   4.086  0.1094 -0.4785  0.1351
15543TIP3    H168044   6.314   4.176   4.052  0.8051  0.8910 -3.8906
15543TIP3    H268045   6.220   4.292   4.071  0.5218  0.2822 -1.0562
15544TIP3   OH268046   1.790   2.361   3.102  0.6873  0.0840  0.6188
15544TIP3    H168047   1.714   2.412   3.127  0.5583  0.4786 -0.5601
15544TIP3    H268048   1.767   2.271   3.125 -0.0180  0.2389  0.5194
15545TIP3   OH268049   4.772   5.266   5.192  0.0837  0.2941 -0.0245
15545TIP3    H168050   4.818   5.245   5.110  0.4489  0.9315  0.0145
15545TIP3    H268051   4.837   5.248   5.260  0.0816  0.6295  0.0668
15546TIP3   OH268052   3.199   2.018   2.808  0.2423 -0.3608 -0.9128
15546TIP3    H168053   3.178   2.092   2.865  1.6161  0.1414 -1.0188
15546TIP3    H268054   3.166   1.941   2.854 -1.5859  0.3317 -0.9979
15547TIP3   OH268055   5.765   1.971   5.296  0.4108  0.2590 -0.5731
15547TIP3    H168056   5.669   1.974   5.305  0.4217 -1.6080  0.9219
15547TIP3    H268057   5.783   2.011   5.211 -1.5939  1.7041 -0.3909
15548TIP3   OH268058   2.159   5.941   0.691  0.0467  0.3632 -0.0466
15548TIP3    H168059   2.234   5.940   0.751  0.3954  0.5229 -0.4761
15548TIP3    H268060   2.188   5.890   0.615 -1.0331 -1.4212  0.6629
15549TIP3   OH268061   5.167   2.639  14.118  0.0566 -0.0854 -0.2696
15549TIP3    H168062   5.176   2.633  14.214 -1.3461 -1.9262 -0.1956
15549TIP3    H268063   5.257   2.647  14.087  0.6949 -1.1827  1.1389
15550TIP3   OH268064   5.660   1.150   0.337  0.0677 -0.4853 -0.0268
15550TIP3    H168065   5.583   1.188   0.295 -0.6725 -1.4021  0.4452
15550TIP3    H268066   5.660   1.188   0.425 -0.1787 -0.9156  0.1612
15551TIP3   OH268067   6.349   4.397  15.837  0.4758 -0.4419 -0.1964
15551TIP3    H168068   6.272   4.398  15.893 -0.1623  0.0106 -1.0561
15551TIP3    H268069   6.315   4.409  15.748  1.6899  2.3232 -0.3982
15552TIP3   OH268070   6.501   0.331  14.672 -0.5000 -0.4774 -0.0279
15552TIP3    H168071   6.456   0.252  14.700  0.1203 -0.3400  1.4285
15552TIP3    H268072   6.535   0.310  14.585  0.3932 -2.1440  0.6798
15553TIP3   OH268073   0.542   0.907   0.306 -0.0263  0.2871  0.2910
15553TIP3    H168074   0.551   0.965   0.382  1.7035 -0.9375  1.0733
15553TIP3    H268075   0.551   0.819   0.341  0.9830 -0.3055 -1.3359
15554TIP3   OH268076   6.407   6.285   1.573 -0.4791  0.0813 -0.1217
15554TIP3    H168077   6.474   6.216   1.577 -0.3567  0.1921 -0.2225
15554TIP3    H268078   6.325   6.238   1.556 -0.4662 -0.0778  0.2428
15555TIP3   OH268079   6.206   0.881  14.523  0.6088 -0.0598 -0.5150
15555TIP3    H168080   6.269   0.931  14.471 -1.5984  2.7239 -0.7633
15555TIP3    H268081   6.121   0.907  14.489 -0.7991 -3.9334 -0.4613
15556TIP3   OH268082   2.790   3.761  12.852 -0.3495  0.3055 -0.1779
15556TIP3    H168083   2.861   3.776  12.790 -1.3935  1.6425 -1.0898
15556TIP3    H268084   2.773   3.846  12.891 -0.6501 -0.2433  0.9318
15557TIP3   OH268085   1.877   5.211  14.481  0.2333 -0.1391  0.0947
15557TIP3    H168086   1.791   5.245  14.455 -1.4259 -2.6953  1.7915
15557TIP3    H268087   1.893   5.139  14.420  1.2042  0.3284 -0.2129
15558TIP3   OH268088   4.455   6.238  17.130 -0.0073 -0.1990  0.0164
15558TIP3    H168089   4.413   6.155  17.108  0.7261 -0.3450 -0.8967
15558TIP3    H268090   4.390   6.285  17.183 -0.1712 -1.6265  1.1437
15559TIP3   OH268091   5.765   2.857  11.843 -0.0821 -0.5185 -0.2739
15559TIP3    H168092   5.700   2.790  11.824  1.3656 -1.9406 -0.4490
15559TIP3    H268093   5.803   2.879  11.758 -0.3345  0.3051 -0.1803
15560TIP3   OH268094   0.694   4.892   5.159  0.2508  0.1210 -0.1972
15560TIP3    H168095   0.739   4.965   5.201 -0.9552  0.2411  0.9404
15560TIP3    H268096   0.726   4.893   5.068  0.8115  1.5836 -0.0085
15561TIP3   OH268097   4.374   0.576  14.248  0.0010  0.8836 -0.1397
15561TIP3    H168098   4.357   0.555  14.340 -3.2033  0.5428 -0.6811
15561TIP3    H268099   4.395   0.491  14.208  0.1570  0.8407  0.0285
15562TIP3   OH268100   0.093   5.141   2.210  0.0712 -1.0466  0.6521
15562TIP3    H168101   0.121   5.211   2.269 -0.5760 -0.5574  0.3932
15562TIP3    H268102   0.081   5.065   2.266  1.5316 -1.1780  0.8305
15563TIP3   OH268103   4.871   4.292   2.850 -0.2045 -0.1738  0.2962
15563TIP3    H168104   4.921   4.364   2.810 -0.6356 -0.6608 -1.2192
15563TIP3    H268105   4.904   4.214   2.806  0.0376 -0.8880  1.7047
15564TIP3   OH268106   4.500   1.874  16.277  0.3764  0.5422 -0.1146
15564TIP3    H168107   4.581   1.922  16.257 -0.1739  0.8436 -1.7710
15564TIP3    H268108   4.440   1.941  16.310 -0.6071  1.2482 -3.0298
15565TIP3   OH268109   5.686   5.360   2.222  0.2872  0.0261  0.0847
15565TIP3    H168110   5.591   5.367   2.220  0.2259 -0.6688  0.3689
15565TIP3    H268111   5.715   5.405   2.143 -0.2763  0.2669  0.0119
15566TIP3   OH268112   6.760   3.047   0.216  0.2191 -0.0432 -0.0951
15566TIP3    H168113   6.789   3.034   0.126 -0.5041 -1.1801 -0.1881
15566TIP3    H268114   6.725   2.962   0.242  0.7016  0.1762  1.3729
15567TIP3   OH268115   2.908   5.836  10.762  0.0017 -0.1813  0.2221
15567TIP3    H168116   2.943   5.884  10.687 -1.0160 -0.7645 -0.6576
15567TIP3    H268117   2.905   5.745  10.733 -3.1655 -0.0758 -0.2345
15568TIP3   OH268118   1.757   2.320  12.607 -0.4277  0.5173  0.0860
15568TIP3    H168119   1.728   2.229  12.604 -0.5278  0.5719 -1.1942
15568TIP3    H268120   1.773   2.343  12.516 -0.3222  1.7615  0.3995
15569TIP3   OH268121   2.711   3.089   0.818 -0.1680 -0.8123  0.3045
15569TIP3    H168122   2.629   3.118   0.859 -1.2116 -1.5943 -1.1610
15569TIP3    H268123   2.776   3.098   0.888 -0.9341  2.3610  0.7698
15570TIP3   OH268124   3.613   5.963  12.936 -0.8348 -0.1188  0.0456
15570TIP3    H168125   3.630   5.959  13.031 -1.4417 -2.3815  0.1046
15570TIP3    H268126   3.524   5.996  12.929 -0.7377  0.1941  0.2458
15571TIP3   OH268127   1.157   6.762  12.152 -0.1090 -0.7483  0.0643
15571TIP3    H168128   1.127   6.800  12.234 -3.0259 -1.9672 -0.2991
15571TIP3    H268129   1.202   6.682  12.177  1.6502  0.3444  0.5594
15572TIP3   OH268130   2.070   1.190  15.392 -0.1044 -0.5191 -0.4722
15572TIP3    H168131   2.153   1.233  15.370  0.0865 -0.7706 -0.2457
15572TIP3    H268132   2.096   1.109  15.436 -0.4875  0.2231  1.1689
15573TIP3   OH268133   1.219   4.235   0.726 -0.5517 -0.4222 -0.5263
15573TIP3    H168134   1.259   4.221   0.812  0.6195 -1.1201 -1.1724
15573TIP3    H268135   1.133   4.273   0.746  0.3750  1.0507  0.9029
15574TIP3   OH268136   2.770   5.357   3.592 -0.1786 -0.5482  0.5695
15574TIP3    H168137   2.826   5.413   3.538 -0.4375  0.9947  1.8219
15574TIP3    H268138   2.693   5.340   3.537 -0.1690  0.4761  0.2128
15575TIP3   OH268139   0.769   4.579   6.358 -0.5835 -0.1290  0.0750
15575TIP3    H168140   0.835   4.605   6.294 -0.0652 -1.4964  0.0112
15575TIP3    H268141   0.708   4.652   6.362  0.8767  1.1383  0.0480
15576TIP3   OH268142   0.666   3.846   4.249 -0.1296 -0.7509 -0.3710
15576TIP3    H168143   0.644   3.832   4.341 -1.9608  0.8151 -0.5179
15576TIP3    H268144   0.629   3.770   4.204 -2.2344  0.0751 -0.1577
15577TIP3   OH268145   3.197   5.282  16.034 -0.3592  0.1970  0.3489
15577TIP3    H168146   3.214   5.307  16.125  2.1651  0.6018 -0.1533
15577TIP3    H268147   3.218   5.189  16.030  0.0826  0.3034  0.0847
15578TIP3   OH268148   4.281   2.969  11.001  0.5294 -0.0400 -0.5058
15578TIP3    H168149   4.209   2.985  10.939 -0.0684  0.1975  0.2435
15578TIP3    H268150   4.323   3.055  11.012 -0.5851  0.3614  0.9096
15579TIP3   OH268151   5.803   0.729   5.464 -0.3568 -0.2999 -0.1985
15579TIP3    H168152   5.745   0.782   5.409 -3.4821 -0.6843  2.4034
15579TIP3    H268153   5.808   0.776   5.547  0.2382 -1.9913  0.7941
15580TIP3   OH268154   1.449   0.620  13.943 -0.1697  0.1102 -0.0098
15580TIP3    H168155   1.450   0.707  13.984 -1.6268  1.1067 -1.9090
15580TIP3    H268156   1.356   0.599  13.934  0.1389 -2.2058  1.4128
15581TIP3   OH268157   0.153   5.295   3.941 -0.2422 -0.1610  0.1925
15581TIP3    H168158   0.151   5.359   4.013  0.4813 -0.9536  0.9423
15581TIP3    H268159   0.061   5.284   3.916 -0.3881  1.0991  0.1040
15582TIP3   OH268160   3.448   5.543   0.967  0.1951 -0.2135 -0.3048
15582TIP3    H168161   3.490   5.561   1.051  1.8925 -1.8855 -0.7385
15582TIP3    H268162   3.355   5.557   0.984  0.7767  4.3070  0.5285
15583TIP3   OH268163   5.624   1.408   2.267  0.6223 -0.2195 -0.3770
15583TIP3    H168164   5.616   1.503   2.275  0.6556 -0.0916 -1.6484
15583TIP3    H268165   5.536   1.375   2.287  0.7104  0.0365  0.4688
15584TIP3   OH268166   4.462   2.036  12.076  0.1029  0.1391 -0.3127
15584TIP3    H168167   4.489   1.994  11.995  0.0270 -1.9584  0.6863
15584TIP3    H268168   4.373   2.068  12.058  1.0398  2.0553 -1.8301
15585TIP3   OH268169   0.850   5.068  14.457 -0.0900 -0.1606 -0.0294
15585TIP3    H168170   0.902   5.137  14.499 -0.2482  0.0623 -0.1993
15585TIP3    H268171   0.831   5.006  14.527  0.3188 -0.1934  0.0592
15586TIP3   OH268172   6.435   0.563  13.743  0.1946 -0.0889  0.2635
15586TIP3    H168173   6.376   0.611  13.685 -0.7419  0.1800  1.3966
15586TIP3    H268174   6.483   0.631  13.791  0.1962 -0.2930  0.5560
15587TIP3   OH268175   3.154   5.157   3.628 -0.1839  0.1593 -0.0774
15587TIP3    H168176   3.093   5.199   3.688  0.1717  1.2822 -0.4836
15587TIP3    H268177   3.196   5.229   3.581  0.4828 -0.6448 -0.7572
15588TIP3   OH268178   1.373   5.384   2.205 -0.1445  0.2572 -0.1978
15588TIP3    H168179   1.389   5.290   2.211 -0.0485  0.3084  0.4949
15588TIP3    H268180   1.420   5.420   2.280  1.5006  1.0908 -1.5727
15589TIP3   OH268181   3.204   0.513  14.280  0.3867 -0.0344  0.0680
15589TIP3    H168182   3.232   0.511  14.372 -2.7335  2.6842  1.3108
15589TIP3    H268183   3.117   0.474  14.281 -0.4446  1.6407 -1.3112
15590TIP3   OH268184   3.207   0.012   5.522 -0.1167  0.3355  0.1195
15590TIP3    H168185   3.229  -0.075   5.556  0.3700  0.4200  0.0202
15590TIP3    H268186   3.207   0.068   5.600 -0.5965  0.2186  0.2085
15591TIP3   OH268187   0.509   6.654  16.669  0.2104 -0.4178  0.4787
15591TIP3    H168188   0.479   6.694  16.587 -0.4878 -0.8878  0.4966
15591TIP3    H268189   0.603   6.642  16.657 -0.0006 -1.1752 -0.5655
15592TIP3   OH268190   5.494   4.044   1.558  0.6597  0.0426 -0.0452
15592TIP3    H168191   5.467   3.968   1.610 -0.7438  0.6322  0.1402
15592TIP3    H268192   5.505   4.114   1.623  3.0071 -0.2196 -0.0749
15593TIP3   OH268193   4.662   1.403   5.297  0.1699  0.6465 -0.7923
15593TIP3    H168194   4.652   1.339   5.368  0.4099 -0.6638 -1.8924
15593TIP3    H268195   4.631   1.485   5.334 -1.3675 -0.3644  0.2696
15594TIP3   OH268196   2.288   1.067  13.270 -0.0951  0.2584 -0.6260
15594TIP3    H168197   2.376   1.032  13.255 -0.0001  0.4436 -0.5031
15594TIP3    H268198   2.276   1.131  13.200  0.1780  0.8070 -0.1792
15595TIP3   OH268199   2.743   1.187   0.284  0.5279 -0.2057 -0.4647
15595TIP3    H168200   2.794   1.154   0.211  1.1968  0.5682 -0.3714
15595TIP3    H268201   2.808   1.215   0.348  0.0423  1.4355 -0.6179
15596TIP3   OH268202   0.277   0.944   0.211  0.2597  0.3586  0.3508
15596TIP3    H168203   0.371   0.931   0.221  0.7948  0.8097 -2.9350
15596TIP3    H268204   0.269   1.033   0.175 -1.2940 -0.0692 -0.4544
15597TIP3   OH268205   1.604   3.248  16.702 -0.1038  0.4707 -0.1756
15597TIP3    H168206   1.666   3.175  16.707 -0.7066 -0.0075  0.5057
15597TIP3    H268207   1.595   3.278  16.792 -1.9701 -0.4126 -0.0323
15598TIP3   OH268208   5.824   5.146   3.858 -0.0341  0.1696 -0.4100
15598TIP3    H168209   5.807   5.138   3.764 -2.5142 -0.1348 -0.0007
15598TIP3    H268210   5.753   5.202   3.890  0.1216 -0.6309  1.4464
15599TIP3   OH268211   2.223   1.912   1.862  0.0041  0.4091 -0.0218
15599TIP3    H168212   2.291   1.887   1.800  0.0801  1.8637 -0.5796
15599TIP3    H268213   2.154   1.950   1.808  0.1053  1.7822  0.7621
15600TIP3   OH268214   3.703   4.748   5.000 -0.6313 -0.6961  0.6974
15600TIP3    H168215   3.668   4.825   5.044  0.1445  0.0014  0.1161
15600TIP3    H268216   3.657   4.674   5.041  0.1095 -0.0949  2.6998
15601TIP3   OH268217   0.545   0.629  12.931 -0.2469  0.1593 -0.6015
15601TIP3    H168218   0.641   0.619  12.929  0.0486  2.5974 -1.3417
15601TIP3    H268219   0.523   0.631  13.024  0.3987 -0.5109 -0.4204
15602TIP3   OH268220   6.050   2.691  12.239 -0.6192  0.1254 -0.1419
15602TIP3    H168221   5.988   2.734  12.299 -1.5428  0.0122 -0.9950
15602TIP3    H268222   6.021   2.717  12.152 -1.3940 -2.4090 -0.7185
15603TIP3   OH268223   1.943   5.733  14.660  0.2991  0.4465 -0.3803
15603TIP3    H168224   1.855   5.756  14.629  0.1992 -1.0857 -1.3317
15603TIP3    H268225   1.929   5.662  14.722  0.8842 -0.2157 -0.9843
15604TIP3   OH268226   1.474   4.383   1.799  0.2887  0.0343  0.3822
15604TIP3    H168227   1.515   4.345   1.721  0.0199  2.1647 -0.8846
15604TIP3    H268228   1.381   4.362   1.789  0.4919 -1.3913  1.2052
15605TIP3   OH268229   1.974   3.554  14.241  0.3901  0.6089 -0.3998
15605TIP3    H168230   1.958   3.617  14.311  2.3691  0.6357  0.1000
15605TIP3    H268231   1.948   3.599  14.161  0.4555  1.5330  0.0912
15606TIP3   OH268232   2.810   0.245  14.909  0.1534  0.1206  0.5796
15606TIP3    H168233   2.854   0.178  14.857 -1.3062 -0.3385 -0.1210
15606TIP3    H268234   2.858   0.246  14.992  1.2656 -0.5639 -0.0214
15607TIP3   OH268235   5.956   0.714   4.754 -0.1191 -0.1962 -0.0583
15607TIP3    H168236   5.911   0.792   4.721  0.1512 -0.0852 -0.1659
15607TIP3    H268237   5.982   0.737   4.843 -0.1138 -0.1944 -0.0604
15608TIP3   OH268238   3.374   5.356  14.169 -0.2618 -0.7412 -0.1140
15608TIP3    H168239   3.375   5.288  14.236 -0.6246  1.2394  2.0000
15608TIP3    H268240   3.439   5.420  14.198 -1.8187  1.1226 -0.5689
15609TIP3   OH268241   2.622   6.369  15.702 -0.0892 -0.1516  0.2132
15609TIP3    H168242   2.574   6.289  15.724  0.6553 -0.5827  0.3167
15609TIP3    H268243   2.571   6.440  15.742 -0.5028 -0.6211  0.5228
15610TIP3   OH268244   3.542   3.654  16.050 -0.3209  0.1039  0.2792
15610TIP3    H168245   3.628   3.696  16.059 -0.1560 -0.5057  1.7868
15610TIP3    H268246   3.556   3.583  15.988 -0.4361  1.7717 -1.7518
15611TIP3   OH268247   3.853   5.297  15.072 -0.3364 -0.3203  0.1637
15611TIP3    H168248   3.809   5.235  15.014 -1.3588  0.3791  0.1701
15611TIP3    H268249   3.785   5.359  15.097  0.6765  0.8445  0.1221
15612TIP3   OH268250   0.164   5.999   1.592 -0.0558 -0.0980 -0.4603
15612TIP3    H168251   0.147   6.074   1.649 -0.7174 -0.5079 -0.1063
15612TIP3    H268252   0.131   5.923   1.641  0.1953 -0.5684 -1.0011
15613TIP3   OH268253   5.766   1.613  13.024 -0.0327 -0.2607 -0.0396
15613TIP3    H168254   5.689   1.612  12.967 -0.8731  0.1280  1.0638
15613TIP3    H268255   5.770   1.524  13.060  1.7917 -1.2099 -2.3268
15614TIP3   OH268256   3.907   4.415  16.879  0.1255 -0.4680  0.9752
15614TIP3    H168257   3.924   4.445  16.969  2.4653  0.5247  0.2951
15614TIP3    H268258   3.970   4.463  16.826  0.6704 -2.9883 -0.8701
15615TIP3   OH268259   3.448   0.787  12.373 -0.0960 -0.6830 -0.0233
15615TIP3    H168260   3.542   0.798  12.386 -0.5233  2.9111  1.1034
15615TIP3    H268261   3.423   0.720  12.437  1.6858 -2.0006 -0.6260
15616TIP3   OH268262   4.503   2.325   4.586  0.4333 -0.1478 -0.2721
15616TIP3    H168263   4.515   2.292   4.676  0.4510  0.7733  0.0670
15616TIP3    H268264   4.409   2.317   4.570  0.4129 -0.2015 -0.1287
15617TIP3   OH268265   6.187   4.361  12.654 -0.1333 -0.3823  0.3900
15617TIP3    H168266   6.092   4.357  12.645 -0.0466 -1.2914 -0.1805
15617TIP3    H268267   6.221   4.337  12.568  0.6292 -2.1816  1.1371
15618TIP3   OH268268   0.886   0.286  14.467  0.2373 -0.0229 -0.4373
15618TIP3    H168269   0.885   0.367  14.518  1.5343  0.7835 -1.6297
15618TIP3    H268270   0.951   0.231  14.510  1.1943  0.5830 -1.0701
15619TIP3   OH268271   0.651   1.716  11.713  0.2495 -0.2314  0.1318
15619TIP3    H168272   0.741   1.730  11.742  0.0612  0.8258  0.2749
15619TIP3    H268273   0.601   1.784  11.758 -0.5689 -0.6142 -0.1841
15620TIP3   OH268274   4.636   5.402   1.929 -0.2389 -0.6027  0.4741
15620TIP3    H168275   4.658   5.320   1.886  1.7200 -1.0882  2.2048
15620TIP3    H268276   4.584   5.377   2.006 -2.5849  0.1345 -0.7736
15621TIP3   OH268277   1.687   0.641   4.811  0.1815  0.0678 -0.0892
15621TIP3    H168278   1.755   0.638   4.879 -0.0122 -1.3779  0.0687
15621TIP3    H268279   1.605   0.628   4.859  0.1391 -2.3479 -0.6868
15622TIP3   OH268280   0.129   1.524   2.672  0.2201 -0.2988 -0.1397
15622TIP3    H168281   0.058   1.521   2.736  1.3568 -1.3846  1.1143
15622TIP3    H268282   0.140   1.618   2.654 -2.0022 -0.1367 -0.9635
15623TIP3   OH268283   4.307   3.748  12.566 -0.0181  0.8294 -0.4605
15623TIP3    H168284   4.366   3.692  12.515  0.0518  0.9645 -0.5289
15623TIP3    H268285   4.222   3.741  12.521 -0.7544 -1.4400  1.1358
15624TIP3   OH268286   4.472   4.551   2.635  0.3374 -0.4607  0.8180
15624TIP3    H168287   4.548   4.509   2.676 -0.2390 -0.3980  1.9673
15624TIP3    H268288   4.486   4.645   2.649  0.4084 -0.3999  0.3729
15625TIP3   OH268289   5.870   3.170   0.736  0.0053  0.2194 -0.0033
15625TIP3    H168290   5.920   3.090   0.751  1.1386  0.9117  0.0347
15625TIP3    H268291   5.783   3.140   0.711  0.2122 -1.0126  0.6906
15626TIP3   OH268292   6.640   5.584   3.265 -0.6842 -0.3181 -0.2215
15626TIP3    H168293   6.630   5.560   3.357 -0.0840  1.1841  0.2757
15626TIP3    H268294   6.552   5.611   3.238 -0.8903 -0.8980 -0.1319
15627TIP3   OH268295   6.352   5.906  11.752  0.4362  0.8251  0.3575
15627TIP3    H168296   6.431   5.890  11.700  0.6703 -0.6422  1.0940
15627TIP3    H268297   6.379   5.969  11.819  0.5156  1.6168 -0.4117
15628TIP3   OH268298   4.877   6.721   1.266 -0.3869 -0.5380  0.3793
15628TIP3    H168299   4.931   6.653   1.225  0.0648 -0.8869  1.4910
15628TIP3    H268300   4.909   6.803   1.229  0.7408 -0.7635  0.8117
15629TIP3   OH268301   6.516   5.697  12.435 -0.1886 -0.1204  0.2573
15629TIP3    H168302   6.568   5.671  12.359 -0.7656  0.2004 -0.2602
15629TIP3    H268303   6.427   5.666  12.415 -0.4833  0.5513  0.4864
15630TIP3   OH268304   5.802   4.671  15.120 -0.5321  0.3802  0.1976
15630TIP3    H168305   5.771   4.743  15.175 -1.0972  0.7094 -0.5387
15630TIP3    H268306   5.762   4.688  15.035  2.4135  1.3763 -1.1088
15631TIP3   OH268307   0.355   4.251  10.783  0.0955 -0.0490 -1.4479
15631TIP3    H168308   0.425   4.209  10.734  0.3351 -1.5323  0.0968
15631TIP3    H268309   0.278   4.197  10.767  0.2647 -0.7912  0.0618
15632TIP3   OH268310   5.164   2.986   4.632  0.4375 -0.0800 -0.0262
15632TIP3    H168311   5.179   2.967   4.540 -1.3893  0.0133 -0.3749
15632TIP3    H268312   5.178   2.902   4.677 -2.2837 -1.1039 -0.8924
15633TIP3   OH268313   2.399   0.708   1.283 -0.2306 -0.0109  0.0412
15633TIP3    H168314   2.432   0.645   1.347  0.0336  1.4965  1.4806
15633TIP3    H268315   2.440   0.791   1.309 -0.4084  0.7173 -1.8996
15634TIP3   OH268316   1.531   0.904   4.500  0.1816  0.4257  0.0168
15634TIP3    H168317   1.570   0.980   4.543  2.0226  0.2230 -1.2043
15634TIP3    H268318   1.599   0.836   4.505  0.2124  0.1858 -2.5710
15635TIP3   OH268319   1.094   2.851  14.750 -0.3688 -0.1971  0.3826
15635TIP3    H168320   1.129   2.899  14.675  1.5671 -1.7655  0.2018
15635TIP3    H268321   1.128   2.898  14.826  1.7290 -1.3569  0.2063
15636TIP3   OH268322   6.668   2.403   4.819  0.2706  0.1831  0.2325
15636TIP3    H168323   6.583   2.406   4.863  0.0217  0.4715 -0.2701
15636TIP3    H268324   6.650   2.429   4.729  0.6921 -0.9263 -0.1924
15637TIP3   OH268325   2.787   1.532   0.478 -0.0141  0.6631  0.3906
15637TIP3    H168326   2.709   1.481   0.457 -0.0107  1.5439 -2.2406
15637TIP3    H268327   2.754   1.619   0.499  0.2042  0.7577  0.3491
15638TIP3   OH268328   5.856   2.473   5.874 -1.0219 -0.3152 -0.2473
15638TIP3    H168329   5.812   2.520   5.945  2.5591  0.5179  1.6388
15638TIP3    H268330   5.857   2.382   5.903  2.0631  0.2675  1.9243
15639TIP3   OH268331   6.700   3.349  12.077 -0.4361 -0.2413  0.1128
15639TIP3    H168332   6.722   3.256  12.065  0.9526  0.0414  0.2738
15639TIP3    H268333   6.763   3.380  12.142 -0.9358  0.7980  0.1215
15640TIP3   OH268334   6.025   4.658  17.027 -0.5141 -0.4727 -0.1900
15640TIP3    H168335   6.048   4.587  17.087  0.2066  0.2644  0.4286
15640TIP3    H268336   6.088   4.651  16.956  0.2218  0.1652  0.3844
15641TIP3   OH268337   4.945   0.326   2.279 -0.1895  0.3293 -0.2050
15641TIP3    H168338   4.945   0.310   2.374  1.5006 -0.5260 -0.3053
15641TIP3    H268339   4.941   0.239   2.240  1.2126  0.5258 -0.8728
15642TIP3   OH268340   2.496   5.209  11.904 -0.0255  0.2053  0.1100
15642TIP3    H168341   2.577   5.247  11.873 -0.1126  0.3091  0.0098
15642TIP3    H268342   2.428   5.270  11.876 -0.3486 -0.8392 -1.5231
15643TIP3   OH268343   1.846   3.331  10.592 -0.5858 -0.1034  0.2016
15643TIP3    H168344   1.916   3.268  10.576 -0.8233 -0.0801 -1.0323
15643TIP3    H268345   1.781   3.313  10.524 -0.0656  2.3072 -1.0459
15644TIP3   OH268346   3.811   3.802   3.450 -0.5164  0.6064 -0.5676
15644TIP3    H168347   3.725   3.771   3.480  0.0172 -0.0377  0.3777
15644TIP3    H268348   3.797   3.893   3.425 -1.1124  1.0593  1.2776
15645TIP3   OH268349   6.267   1.710  15.414  0.4492  0.6293 -0.6428
15645TIP3    H168350   6.318   1.642  15.371 -0.6428 -0.0927 -0.8291
15645TIP3    H268351   6.282   1.697  15.507  1.2643  0.9659 -0.7148
15646TIP3   OH268352   4.798   1.722  11.268 -0.1164 -0.2580 -0.7440
15646TIP3    H168353   4.745   1.664  11.212  1.1582 -1.3313 -0.8889
15646TIP3    H268354   4.843   1.662  11.328 -0.2956  0.7648  0.4489
15647TIP3   OH268355   6.299   3.442  16.149 -0.2769  0.0142  0.6662
15647TIP3    H168356   6.253   3.359  16.152 -0.6550  0.1902 -0.0297
15647TIP3    H268357   6.384   3.421  16.111 -1.0541  0.2167 -1.3066
15648TIP3   OH268358   1.457   0.967   2.990  0.8240 -0.0874  0.0591
15648TIP3    H168359   1.443   0.882   2.948  2.6709 -1.1656  1.5208
15648TIP3    H268360   1.552   0.979   2.989  0.6830  1.3288  1.0849
15649TIP3   OH268361   2.609   5.391  16.046  0.1323  0.2224 -0.2591
15649TIP3    H168362   2.617   5.374  16.140  0.9160 -0.5228 -0.4425
15649TIP3    H268363   2.699   5.398  16.016 -0.1296  1.3781 -0.8082
15650TIP3   OH268364   5.628   2.511  12.642 -0.3168  0.0400  0.4394
15650TIP3    H168365   5.701   2.562  12.606 -1.1218  0.3539 -0.8589
15650TIP3    H268366   5.573   2.493  12.566 -2.1978  0.8292  1.5500
15651TIP3   OH268367   6.671   3.197  14.893  0.1336  0.0984 -0.0599
15651TIP3    H168368   6.681   3.104  14.910  3.3841  0.7770  3.1255
15651TIP3    H268369   6.584   3.206  14.854 -1.0194 -4.0352  1.0880
15652TIP3   OH268370   4.793   2.741   4.416  0.0192  0.2689 -0.6366
15652TIP3    H168371   4.721   2.685   4.448  0.1102  0.6433  0.2619
15652TIP3    H268372   4.792   2.816   4.475  0.9435  0.4319 -0.8227
15653TIP3   OH268373   4.699   6.288  13.304  0.0071 -0.2832  0.0453
15653TIP3    H168374   4.786   6.275  13.341 -0.4653 -2.3450  0.5428
15653TIP3    H268375   4.640   6.282  13.379 -0.5408  2.7799 -0.0020
15654TIP3   OH268376   0.887   4.628   6.125 -0.3210  0.3632 -1.1409
15654TIP3    H168377   0.965   4.672   6.094  0.4148 -0.0441  0.0693
15654TIP3    H268378   0.906   4.535   6.113 -0.6132  0.2607 -0.8196
15655TIP3   OH268379   3.144   5.642   2.125  0.0998  0.1338 -0.0711
15655TIP3    H168380   3.121   5.724   2.167 -0.3410 -0.5231  1.0203
15655TIP3    H268381   3.062   5.609   2.088  0.0125 -0.4106  0.5880
15656TIP3   OH268382   4.106   4.581   0.487 -0.1089  0.2237  0.0885
15656TIP3    H168383   4.031   4.595   0.429 -1.6183  2.5030  2.3618
15656TIP3    H268384   4.160   4.659   0.475 -0.7369  1.0104  2.0607
15657TIP3   OH268385   6.176   2.833  12.908  0.1456 -0.7688 -0.5576
15657TIP3    H168386   6.117   2.760  12.890  1.3937 -2.1388  0.5777
15657TIP3    H268387   6.263   2.792  12.915  0.5432  0.3405  2.7665
15658TIP3   OH268388   6.087   4.330   0.586 -0.3734 -0.1077  0.3403
15658TIP3    H168389   6.132   4.374   0.513  0.9053 -3.3305 -1.0070
15658TIP3    H268390   6.143   4.346   0.662  0.3462  0.1280 -0.2302
15659TIP3   OH268391   5.502   3.600  14.096  0.3224 -0.2643  0.4165
15659TIP3    H168392   5.510   3.602  14.001  0.3038  2.5374  0.3950
15659TIP3    H268393   5.563   3.532  14.124  2.3688  0.6668 -1.4786
15660TIP3   OH268394   1.249   1.690   6.600  0.3727  0.6757 -0.0621
15660TIP3    H168395   1.193   1.632   6.651 -1.1211  0.9498 -1.2936
15660TIP3    H268396   1.297   1.632   6.541 -0.0954  0.5837 -0.3540
15661TIP3   OH268397   5.240   4.150   4.055  0.8113  0.0122 -0.1670
15661TIP3    H168398   5.290   4.076   4.089  1.2089 -0.0598 -0.8799
15661TIP3    H268399   5.154   4.114   4.033  1.1013 -0.3168 -0.7968
15662TIP3   OH268400   1.710   1.018  13.396 -0.1285 -0.4168  0.3336
15662TIP3    H168401   1.744   0.993  13.310  0.9468  1.4652  0.1620
15662TIP3    H268402   1.615   1.025  13.384  0.1126  1.0159 -1.0748
15663TIP3   OH268403   2.676   3.775   2.309 -0.0476  0.3375  0.3541
15663TIP3    H168404   2.691   3.802   2.218 -3.6375 -0.1494 -0.5617
15663TIP3    H268405   2.696   3.682   2.310 -0.5123  0.2263 -0.1133
15664TIP3   OH268406   5.603   3.093  12.354 -0.0217  0.2469 -0.7634
15664TIP3    H168407   5.674   3.155  12.366  1.2615 -1.5479  1.6882
15664TIP3    H268408   5.645   3.015  12.318 -0.6933 -0.8074  0.6222
15665TIP3   OH268409   6.688   1.913   5.685 -0.4507  0.1589 -0.3006
15665TIP3    H168410   6.750   1.903   5.613  1.5442  0.6344  1.2530
15665TIP3    H268411   6.646   1.827   5.693 -0.2361 -0.0820 -1.5858
15666TIP3   OH268412   6.051   4.338   6.178  0.4291  0.2641  0.3820
15666TIP3    H168413   6.117   4.389   6.131  0.0241  1.5890  1.2142
15666TIP3    H268414   6.079   4.339   6.269 -1.3478  1.9254  0.9679
15667TIP3   OH268415   4.266   0.240  11.538  0.5940  0.4303  0.1425
15667TIP3    H168416   4.183   0.223  11.493  1.3787 -0.7961 -0.8974
15667TIP3    H268417   4.326   0.267  11.469  1.7700 -1.2627  0.4344
15668TIP3   OH268418   5.545   3.982  12.298 -0.0345  0.0420  0.6255
15668TIP3    H168419   5.482   3.971  12.369 -0.8768 -0.5165 -0.1859
15668TIP3    H268420   5.602   3.906  12.305 -0.9189 -0.7020 -0.0745
15669TIP3   OH268421   3.699   5.714   3.892 -0.6708  0.7968  0.1089
15669TIP3    H168422   3.621   5.766   3.878 -1.3931 -0.5505 -1.1519
15669TIP3    H268423   3.742   5.755   3.967 -1.8412  2.3997 -0.0442
15670TIP3   OH268424   0.799   0.199   4.862  0.0266  0.1780  0.1930
15670TIP3    H168425   0.714   0.243   4.861  0.3409  0.8964  1.8719
15670TIP3    H268426   0.784   0.118   4.912 -0.0887 -0.6939 -1.1887
15671TIP3   OH268427   2.961   6.645  16.997  0.4751  0.3923 -0.3197
15671TIP3    H168428   3.046   6.624  16.959  0.0835  0.6491 -1.3723
15671TIP3    H268429   2.899   6.590  16.949  0.1401 -0.5453  1.1229
15672TIP3   OH268430   2.298   2.142   1.152 -0.2997  0.2538  0.1874
15672TIP3    H168431   2.207   2.117   1.139 -0.3400 -0.3710  1.5036
15672TIP3    H268432   2.349   2.065   1.126 -0.1069  0.7125 -0.8557
15673TIP3   OH268433   4.202   6.203   3.026 -0.4608  0.4989 -0.6078
15673TIP3    H168434   4.232   6.175   3.112 -1.5706 -0.8626 -0.6311
15673TIP3    H268435   4.198   6.298   3.032  3.3160  0.7906 -0.4761
15674TIP3   OH268436   4.870   0.287  12.063 -0.8361  0.2373  0.5100
15674TIP3    H168437   4.787   0.247  12.035  0.0040 -1.4670  0.3216
15674TIP3    H268438   4.901   0.231  12.134  0.3589  0.6097  0.2998
15675TIP3   OH268439   0.428   0.268   0.663  0.0427 -0.1419 -0.3843
15675TIP3    H168440   0.336   0.281   0.688 -0.2502 -1.7227 -0.5066
15675TIP3    H268441   0.429   0.284   0.568 -0.4168 -1.4065 -0.6281
15676TIP3   OH268442   2.101   4.082  12.738  0.0532  0.1845 -0.3406
15676TIP3    H168443   2.037   4.118  12.677  0.0021 -0.2198 -0.5346
15676TIP3    H268444   2.054   4.011  12.783 -0.2081  1.1011  0.8706
15677TIP3   OH268445   6.293   0.730   6.246  0.1057 -0.0393  0.0342
15677TIP3    H168446   6.220   0.738   6.307 -2.2150  0.9483 -2.6446
15677TIP3    H268447   6.333   0.817   6.243  0.1631 -0.0642  0.0813
15678TIP3   OH268448   0.892   3.832   1.533 -0.2228 -0.6283 -0.3305
15678TIP3    H168449   0.913   3.741   1.512 -1.4194 -0.3767 -2.9908
15678TIP3    H268450   0.930   3.883   1.462  1.7269  1.2168  1.8382
15679TIP3   OH268451   6.299   6.576  15.071  0.2729 -0.3174 -0.0299
15679TIP3    H168452   6.236   6.628  15.021  0.6617  0.0329 -0.1677
15679TIP3    H268453   6.298   6.490  15.029  2.4690  0.6635 -2.3720
15680TIP3   OH268454   2.630   5.844   2.936  0.2904  0.1888 -0.3294
15680TIP3    H168455   2.665   5.776   2.995  0.4031  0.0431 -0.5616
15680TIP3    H268456   2.611   5.798   2.855  4.2404  1.0650 -2.0024
15681TIP3   OH268457   2.712   4.584  15.863  0.5429 -0.2601  0.5986
15681TIP3    H168458   2.699   4.524  15.789 -0.9655  0.3128  0.3524
15681TIP3    H268459   2.767   4.536  15.924 -1.5446 -2.4303  0.9405
15682TIP3   OH268460   0.743   5.856  10.741 -0.3847  0.3287 -0.4130
15682TIP3    H168461   0.657   5.896  10.752 -0.2230  0.4391  0.5359
15682TIP3    H268462   0.763   5.820  10.828  0.1476 -0.4475 -0.8559
15683TIP3   OH268463   0.616   4.558  10.989  0.3104  0.2294  0.2527
15683TIP3    H168464   0.529   4.573  11.025  0.3539  0.2496  0.3502
15683TIP3    H268465   0.649   4.646  10.969 -0.3246  0.1572 -1.3034
15684TIP3   OH268466   2.525   3.976   4.010  0.2889  0.1844  0.5760
15684TIP3    H168467   2.432   3.988   3.991  0.1875 -1.7442 -0.3836
15684TIP3    H268468   2.563   3.949   3.927  1.7239  0.8799  0.9775
15685TIP3   OH268469   1.495   1.149   5.496 -0.2426 -0.6528 -0.1952
15685TIP3    H168470   1.546   1.137   5.416  2.0401 -2.0712  1.3571
15685TIP3    H268471   1.558   1.136   5.567 -2.5795 -1.4260  1.8812
15686TIP3   OH268472   3.990   2.771   0.719  0.4594 -0.2305 -0.3153
15686TIP3    H168473   4.056   2.762   0.651 -0.6464 -0.7724 -1.3316
15686TIP3    H268474   3.974   2.865   0.725  0.0032 -0.2345 -1.3602
15687TIP3   OH268475   3.190   1.350  16.817 -0.4244 -0.3432  0.3327
15687TIP3    H168476   3.176   1.401  16.897  0.4140  1.0474 -0.3699
15687TIP3    H268477   3.268   1.298  16.836 -0.0941  0.1513  0.3495
15688TIP3   OH268478   5.684   1.096  11.868 -0.3191 -0.2052 -0.4407
15688TIP3    H168479   5.646   1.183  11.881  1.0983  0.2198  1.2564
15688TIP3    H268480   5.663   1.074  11.777 -0.9527  1.7915 -0.8306
15689TIP3   OH268481   6.026   0.348   2.560 -0.2910  0.0462 -0.4520
15689TIP3    H168482   6.011   0.254   2.546 -1.1648 -0.2593  2.0101
15689TIP3    H268483   5.984   0.367   2.644  0.0556  2.6200 -0.7689
15690TIP3   OH268484   4.039   0.554  15.310 -0.4152 -0.2640 -0.2729
15690TIP3    H168485   4.068   0.641  15.335  0.3109  0.0214 -1.9450
15690TIP3    H268486   4.108   0.521  15.252 -0.4447 -2.1480  0.6694
15691TIP3   OH268487   4.287   4.175  15.521  0.1790  0.7162 -0.0100
15691TIP3    H168488   4.324   4.148  15.437  1.8101 -0.2118  0.9515
15691TIP3    H268489   4.235   4.099  15.550  0.2283  0.7468  0.1616
15692TIP3   OH268490   5.641   5.684  12.550  0.3732  0.6940 -0.1447
15692TIP3    H168491   5.564   5.627  12.560  0.6768  0.1785 -0.7129
15692TIP3    H268492   5.624   5.732  12.469  1.1997 -0.3076 -0.9357
15693TIP3   OH268493   1.052   1.581   4.631 -0.0411  0.2069 -1.2199
15693TIP3    H168494   0.977   1.612   4.681 -0.2976 -0.3583 -1.2543
15693TIP3    H268495   1.049   1.486   4.638  0.8143  0.1821 -1.0102
15694TIP3   OH268496   0.625   3.578   1.037  0.3432 -0.0600 -0.8907
15694TIP3    H168497   0.702   3.566   1.092 -0.0423  0.6842 -0.1708
15694TIP3    H268498   0.617   3.495   0.989  1.5330 -0.1800 -0.9269
15695TIP3   OH268499   5.117   0.407  13.822  0.0096  0.2325  0.3340
15695TIP3    H168500   5.063   0.443  13.752  2.3246  1.5407 -0.9109
15695TIP3    H268501   5.141   0.483  13.875  0.0564 -0.4295  1.2981
15696TIP3   OH268502   4.470   5.224   5.482  0.3322  0.6053 -0.6865
15696TIP3    H168503   4.525   5.192   5.554 -0.2401  0.5134 -0.2785
15696TIP3    H268504   4.464   5.318   5.498 -2.0032  0.2727  1.0152
15697TIP3   OH268505   5.760   6.254  13.643 -0.2421  0.5296 -0.5948
15697TIP3    H168506   5.719   6.215  13.565  1.6722 -0.4662 -1.1770
15697TIP3    H268507   5.817   6.185  13.677 -0.8211  1.0494  1.5674
15698TIP3   OH268508   0.438   0.235   5.391 -0.1738 -0.1812 -0.4968
15698TIP3    H168509   0.347   0.255   5.410 -0.1339 -0.5531  0.1195
15698TIP3    H268510   0.487   0.306   5.433 -0.1031 -0.8343  0.5724
15699TIP3   OH268511   3.169   1.462  14.982 -0.2779  0.3487 -0.2326
15699TIP3    H168512   3.151   1.547  15.022 -0.2101  0.8766 -1.2922
15699TIP3    H268513   3.184   1.403  15.057 -0.6048  1.1921  0.5189
15700TIP3   OH268514   6.391   3.072   5.412  0.6690 -0.3469  0.4115
15700TIP3    H168515   6.327   3.143   5.412  1.6171  0.5413  1.0987
15700TIP3    H268516   6.342   2.996   5.444 -0.0840  0.2684  0.7673
15701TIP3   OH268517   1.683   2.971   2.297  0.0013  0.9726  0.1472
15701TIP3    H168518   1.603   2.928   2.267  0.5887 -0.3034  0.3384
15701TIP3    H268519   1.753   2.909   2.276  0.7134  1.1591  1.8076
15702TIP3   OH268520   5.623   0.615   4.896  0.2511  0.0680  0.2924
15702TIP3    H168521   5.644   0.677   4.966 -1.4505  0.9676  0.0632
15702TIP3    H268522   5.702   0.562   4.886  1.0245  0.8480  1.9133
15703TIP3   OH268523   0.730   5.685  11.351 -0.2943  0.3318 -0.0264
15703TIP3    H168524   0.793   5.711  11.284 -0.2833  2.8752  0.8873
15703TIP3    H268525   0.645   5.709  11.315 -0.5801 -1.0453 -0.3226
15704TIP3   OH268526   5.189   5.751   1.332  0.6763  0.0610 -0.2757
15704TIP3    H168527   5.169   5.835   1.291 -0.3430 -0.3071 -0.5758
15704TIP3    H268528   5.244   5.773   1.407 -1.4666  1.2638  1.0491
15705TIP3   OH268529   5.751   1.165  11.355  0.1160 -0.3807  0.4803
15705TIP3    H168530   5.807   1.090  11.338 -0.1712 -0.6527  0.7153
15705TIP3    H268531   5.675   1.151  11.298  0.4314  0.1546 -0.0841
15706TIP3   OH268532   3.669   5.668  12.469  0.5571  0.3489  0.8330
15706TIP3    H168533   3.677   5.733  12.399  2.1724 -0.1851  0.4749
15706TIP3    H268534   3.685   5.717  12.549  2.0940  0.3774  0.5413
15707TIP3   OH268535   4.462   6.224   4.891 -0.6324  0.6064  0.1311
15707TIP3    H168536   4.554   6.204   4.874 -0.5762  0.2062  0.8706
15707TIP3    H268537   4.463   6.275   4.972 -1.2176 -1.3251  1.4158
15708TIP3   OH268538   3.319   5.662  16.601  0.8689  0.6336  0.3337
15708TIP3    H168539   3.354   5.573  16.591 -0.3846  0.1699 -0.0590
15708TIP3    H268540   3.225   5.653  16.587  0.8106  2.1430 -0.4367
15709TIP3   OH268541   1.397   2.095  12.632  0.7382  0.7471 -0.2808
15709TIP3    H168542   1.453   2.152  12.685  1.7880  0.6187 -1.2047
15709TIP3    H268543   1.455   2.024  12.604 -0.0549  0.2561 -0.7265
15710TIP3   OH268544   3.529   5.847   3.174  0.0539  0.2112 -0.0328
15710TIP3    H168545   3.484   5.801   3.102  0.2316  0.3266 -0.2178
15710TIP3    H268546   3.567   5.925   3.133  2.4495 -1.0526 -0.4150
15711TIP3   OH268547   0.811   4.801   4.456 -0.9612  0.2125 -0.0948
15711TIP3    H168548   0.791   4.724   4.509  0.6987  0.5435  1.1301
15711TIP3    H268549   0.772   4.783   4.371 -0.1921 -2.2356 -0.0255
15712TIP3   OH268550   2.335   0.308  11.878  0.0314  0.0178  0.0044
15712TIP3    H168551   2.311   0.355  11.798  0.9774 -0.8443 -0.8269
15712TIP3    H268552   2.430   0.312  11.880  0.1277 -1.5978  0.0376
15713TIP3   OH268553   1.949   2.682   3.188 -0.0771  0.4790 -0.0663
15713TIP3    H168554   1.896   2.689   3.108  0.2908 -1.1704 -0.4951
15713TIP3    H268555   1.891   2.639   3.251  0.2010  0.2093  0.0042
15714TIP3   OH268556   0.949   1.699   1.737  0.5443 -0.6362  0.0459
15714TIP3    H168557   0.964   1.768   1.672  0.3268  1.5531  2.1746
15714TIP3    H268558   1.036   1.669   1.760  0.8300  0.6802  0.8072
15715TIP3   OH268559   4.892   6.109   0.983  0.1662 -0.0831  0.0660
15715TIP3    H168560   4.923   6.199   0.996 -1.5106  0.4151  0.9312
15715TIP3    H268561   4.850   6.086   1.065 -2.0609 -0.5438 -1.1144
15716TIP3   OH268562   1.965   4.804   4.255  0.4997 -0.0264  0.6839
15716TIP3    H168563   1.969   4.900   4.261 -1.0776  0.1054  0.0915
15716TIP3    H268564   1.911   4.779   4.330 -0.7289 -0.2581 -0.2476
15717TIP3   OH268565   4.483   1.031   4.298 -0.2160  0.6314 -0.3188
15717TIP3    H168566   4.420   0.966   4.328 -0.1048  1.3969  1.6830
15717TIP3    H268567   4.443   1.068   4.219 -0.8322 -0.9904 -0.8027
15718TIP3   OH268568   1.995   5.153  16.454  0.7099 -0.2577  0.2387
15718TIP3    H168569   1.976   5.246  16.442  2.1821 -0.0047 -0.3508
15718TIP3    H268570   1.943   5.108  16.388  1.2829  0.3048 -0.6055
15719TIP3   OH268571   2.133   1.882   3.010  0.4232  0.1944 -0.4601
15719TIP3    H168572   2.195   1.870   2.938 -1.9464 -1.6975 -2.3646
15719TIP3    H268573   2.055   1.918   2.968 -0.4090  0.8140  1.5400
15720TIP3   OH268574   2.333   4.079  12.598 -1.1240  0.5973 -0.0496
15720TIP3    H168575   2.391   4.009  12.627 -0.9477 -0.9478 -3.6203
15720TIP3    H268576   2.266   4.085  12.666 -0.7515 -2.5703  0.7297
15721TIP3   OH268577   0.304   0.519  14.451 -0.1634 -0.0612 -0.1307
15721TIP3    H168578   0.322   0.426  14.436  1.1085  0.3160 -1.1949
15721TIP3    H268579   0.211   0.529  14.430 -0.3007 -1.0824 -0.0685
15722TIP3   OH268580   2.594   4.422  15.025  0.5469  0.2896 -0.1094
15722TIP3    H168581   2.630   4.440  15.111  1.2539  1.4639 -0.6142
15722TIP3    H268582   2.500   4.414  15.039  0.7670 -0.6240  0.9142
15723TIP3   OH268583   2.462   0.968  14.387  0.0543  0.1917 -0.1419
15723TIP3    H168584   2.384   0.915  14.403 -0.1724  0.7076  0.5121
15723TIP3    H268585   2.428   1.049  14.348  0.0857  1.0207  1.4579
15724TIP3   OH268586   2.190   5.092   1.518 -0.2830  0.1045  0.5601
15724TIP3    H168587   2.122   5.026   1.503  0.3214 -0.3567 -0.2075
15724TIP3    H268588   2.148   5.156   1.576 -2.0886  0.9238 -1.5047
15725TIP3   OH268589   3.047   1.102   3.865 -0.1068  0.4267  0.2361
15725TIP3    H168590   3.014   1.024   3.820 -0.4366  0.0207  1.1642
15725TIP3    H268591   2.989   1.173   3.837  0.3907  0.4216 -0.8678
15726TIP3   OH268592   0.157   0.047   1.132  0.2161 -0.4726  0.6045
15726TIP3    H168593   0.252   0.044   1.122  0.4187 -0.7387  2.3373
15726TIP3    H268594   0.138  -0.011   1.206 -1.2159  0.1402  0.7550
15727TIP3   OH268595   5.515   2.153  14.666 -0.3404  0.1643  0.0614
15727TIP3    H168596   5.431   2.183  14.700 -0.4077  0.5916 -0.4705
15727TIP3    H268597   5.525   2.065  14.701 -1.2134 -0.0539 -0.2229
15728TIP3   OH268598   5.658   5.274   0.651  0.5871  0.2774 -0.3051
15728TIP3    H168599   5.684   5.240   0.736 -2.7210 -1.7778  0.0778
15728TIP3    H268600   5.583   5.330   0.669  0.8901  1.2048 -1.7421
15729TIP3   OH268601   4.903   0.291   2.559 -0.2745  0.7848  0.2457
15729TIP3    H168602   4.916   0.346   2.636 -2.8218  0.0250  1.3119
15729TIP3    H268603   4.966   0.219   2.569 -0.5420  0.7166  1.5973
15730TIP3   OH268604   0.253   1.466  12.181 -0.0972 -0.0323 -0.3106
15730TIP3    H168605   0.227   1.431  12.096 -0.4837 -2.9208  0.8956
15730TIP3    H268606   0.180   1.523  12.206 -1.4442 -1.5433 -0.6321
15731TIP3   OH268607   5.773   6.688   5.455 -0.0122 -0.2842 -0.5822
15731TIP3    H168608   5.804   6.771   5.418 -0.0478 -0.3003 -0.6484
15731TIP3    H268609   5.752   6.634   5.379  0.9966 -0.7280 -0.5662
15732TIP3   OH268610   0.655   3.955  13.563  0.1489  0.0602  0.2140
15732TIP3    H168611   0.710   3.877  13.565  2.2616  1.4214 -1.2724
15732TIP3    H268612   0.589   3.937  13.496  0.6414 -0.4646 -0.1359
15733TIP3   OH268613   3.151   6.194   1.153 -0.0384 -0.3761  0.1418
15733TIP3    H168614   3.112   6.282   1.143  2.8705  1.1760  1.3799
15733TIP3    H268615   3.224   6.193   1.092  1.2175 -1.1264  1.5921
15734TIP3   OH268616   2.600   5.026  11.167 -0.3149 -0.5682 -0.7371
15734TIP3    H168617   2.686   5.067  11.169  0.4142 -2.0254 -0.8254
15734TIP3    H268618   2.618   4.933  11.176 -1.9282 -0.8580 -0.1812
15735TIP3   OH268619   5.272   2.046  11.408  0.1950 -0.1051 -0.3262
15735TIP3    H168620   5.212   2.046  11.334 -0.0201 -0.6211 -0.1599
15735TIP3    H268621   5.217   2.066  11.484 -0.3372 -3.1483  0.2275
15736TIP3   OH268622   1.331   2.730  11.611 -0.1073  0.0856 -0.3037
15736TIP3    H168623   1.413   2.764  11.647  0.9968 -3.3959  0.9161
15736TIP3    H268624   1.269   2.733  11.684  0.7418 -2.5995  0.6307
15737TIP3   OH268625   5.773   5.992  12.029  0.5400  0.3880  0.1942
15737TIP3    H168626   5.787   5.898  12.021  0.0269  0.4134 -1.4269
15737TIP3    H268627   5.826   6.030  11.959  0.5347  1.2795  0.6646
15738TIP3   OH268628   3.601   6.767   3.985  0.0847 -0.1677  0.1088
15738TIP3    H168629   3.568   6.849   3.948  0.2559 -0.2751 -0.2903
15738TIP3    H268630   3.649   6.794   4.063  1.7467  0.3250 -1.0351
15739TIP3   OH268631   3.241   3.027   1.240 -0.2722  0.2409  0.0558
15739TIP3    H168632   3.232   3.079   1.320 -1.7340 -1.6533  1.2091
15739TIP3    H268633   3.291   2.950   1.268  0.3948  0.1891 -1.2178
15740TIP3   OH268634   3.196   0.100  16.356  0.0760  0.3990 -0.2440
15740TIP3    H168635   3.118   0.150  16.332 -1.9677 -2.1578  0.5887
15740TIP3    H268636   3.234   0.148  16.430  0.7738  2.9576 -2.1288
15741TIP3   OH268637   4.727   3.488   4.142  0.2890 -0.2078 -0.5134
15741TIP3    H168638   4.780   3.457   4.215 -0.7887 -1.1864 -0.1129
15741TIP3    H268639   4.708   3.410   4.091  1.7387  0.5679 -2.3801
15742TIP3   OH268640   5.175   4.066  15.318  0.8383  0.0682  0.1344
15742TIP3    H168641   5.233   3.993  15.298  0.1567 -0.2464 -0.7722
15742TIP3    H268642   5.088   4.036  15.291  0.5171  1.1385 -0.0964
15743TIP3   OH268643   2.968   4.652   5.921  0.0171 -0.5762  0.1833
15743TIP3    H168644   2.916   4.577   5.950 -0.4995 -0.6048 -0.8006
15743TIP3    H268645   2.942   4.666   5.831 -0.9687  1.7173  0.7619
15744TIP3   OH268646   6.041   2.302  15.126 -0.0293 -0.1540  0.6766
15744TIP3    H168647   6.132   2.274  15.135  0.0944 -0.0320 -0.0583
15744TIP3    H268648   6.043   2.396  15.144  0.4103  0.3165 -1.5192
15745TIP3   OH268649   2.227   2.225   0.738  0.2098  0.5706 -0.3212
15745TIP3    H168650   2.248   2.280   0.664  3.8432 -1.1502 -0.8077
15745TIP3    H268651   2.194   2.144   0.700  3.1002 -0.7382 -0.3356
15746TIP3   OH268652   4.283   4.054   2.919 -0.3602  0.2203  0.0303
15746TIP3    H168653   4.358   4.101   2.955  1.2694 -0.4888 -2.2656
15746TIP3    H268654   4.240   4.118   2.862 -0.5082  0.1206  0.0305
15747TIP3   OH268655   5.102   1.777   3.762  0.1283  0.2766  0.0219
15747TIP3    H168656   5.196   1.792   3.754  0.4034 -0.1220  1.9939
15747TIP3    H268657   5.068   1.858   3.798 -0.5395  0.8866 -1.8288
15748TIP3   OH268658   6.559   1.700   5.313  0.0121  0.0044 -0.3337
15748TIP3    H168659   6.570   1.746   5.396 -0.3562 -0.5274  0.0165
15748TIP3    H268660   6.524   1.614   5.338 -0.2204 -0.1127 -1.0504
15749TIP3   OH268661   1.842   4.325  13.361 -0.7243 -0.3185 -0.3403
15749TIP3    H168662   1.871   4.235  13.350  1.3008  0.2433  0.0975
15749TIP3    H268663   1.919   4.379  13.344 -1.9300  1.3774 -0.8147
15750TIP3   OH268664   5.613   6.391  12.811  0.5010 -0.0571  0.1767
15750TIP3    H168665   5.578   6.478  12.792  0.4831 -0.2351 -0.6127
15750TIP3    H268666   5.660   6.402  12.894  0.9602  0.8223 -0.1939
15751TIP3   OH268667   2.081   3.394   4.436  0.1227 -0.6922  0.4359
15751TIP3    H168668   1.989   3.416   4.447 -0.2599 -1.7376 -0.4938
15751TIP3    H268669   2.105   3.430   4.350  0.6545 -0.2270  0.7674
15752TIP3   OH268670   2.506   4.969   5.466 -0.4391 -0.4096  0.4687
15752TIP3    H168671   2.450   4.930   5.399  0.5809  0.1098 -0.7101
15752TIP3    H268672   2.505   5.063   5.446 -1.2544 -0.0283  2.0624
15753TIP3   OH268673   5.972   6.617   1.629 -0.3116 -0.3930  0.0445
15753TIP3    H168674   5.920   6.547   1.591  2.0060 -1.8154 -0.7121
15753TIP3    H268675   6.022   6.653   1.556  0.8034 -0.0458  0.9312
15754TIP3   OH268676   4.585   5.155  13.737  0.0063  0.5053  0.3242
15754TIP3    H168677   4.502   5.120  13.769  0.2158 -3.3830 -2.5517
15754TIP3    H268678   4.651   5.098  13.776  0.5348 -1.6232 -3.1920
15755TIP3   OH268679   1.890   2.500  14.338 -0.4433  0.3341  0.2311
15755TIP3    H168680   1.960   2.463  14.284 -0.1679 -0.4127  1.0759
15755TIP3    H268681   1.922   2.586  14.363  0.0946  0.0824  0.4360
15756TIP3   OH268682   3.495   2.433  13.365  0.5373  0.0332 -0.1964
15756TIP3    H168683   3.506   2.513  13.418  1.0626 -0.5073  0.5333
15756TIP3    H268684   3.431   2.458  13.298 -1.7341  0.2279  1.8526
15757TIP3   OH268685   3.162   4.235  14.112  0.2533  0.3656  0.2171
15757TIP3    H168686   3.117   4.152  14.126 -0.6443  0.4672 -1.7065
15757TIP3    H268687   3.243   4.227  14.162 -0.2695 -1.2601  0.8835
15758TIP3   OH268688   0.448   6.754   2.135 -0.4568  0.2077 -1.5063
15758TIP3    H168689   0.481   6.748   2.045  0.1047 -0.8877 -1.2429
15758TIP3    H268690   0.509   6.703   2.187 -0.7879  0.8073 -0.4859
15759TIP3   OH268691   0.527   2.464  14.124  0.0224  0.1254  0.0934
15759TIP3    H168692   0.537   2.541  14.180  1.7965 -0.5394  0.7553
15759TIP3    H268693   0.434   2.442  14.130 -0.7874  2.9049 -1.0968
15760TIP3   OH268694   6.718   4.316  13.750 -0.1059  0.0503  0.5338
15760TIP3    H168695   6.737   4.329  13.657 -0.6473  0.2589  0.4507
15760TIP3    H268696   6.765   4.235  13.773 -0.3125 -0.2339 -0.0282
15761TIP3   OH268697   1.655   4.721   5.020  0.0029  0.0145  0.2403
15761TIP3    H168698   1.598   4.767   5.082 -1.2006 -1.1796  0.0486
15761TIP3    H268699   1.631   4.629   5.028  0.9564 -0.3558 -0.8457
15762TIP3   OH268700   2.068   3.786   4.422 -0.1971  0.2764 -0.1108
15762TIP3    H168701   2.158   3.767   4.446 -0.0326 -0.3546 -1.1663
15762TIP3    H268702   2.017   3.762   4.500  0.4532 -0.2612  0.1603
15763TIP3   OH268703   0.698   1.832  15.231 -0.3533 -0.2957 -0.0680
15763TIP3    H168704   0.638   1.806  15.162 -1.4338  0.8014  0.4377
15763TIP3    H268705   0.643   1.844  15.308  0.6568 -0.2675  0.6712
15764TIP3   OH268706   3.539   5.146   4.902 -0.6476  0.3748  0.4411
15764TIP3    H168707   3.574   5.094   4.829 -1.2126 -1.8077  1.6253
15764TIP3    H268708   3.453   5.174   4.872 -1.4755 -1.7167  0.7430
15765TIP3   OH268709   5.377   3.787  13.103 -0.0708  0.4338 -0.5763
15765TIP3    H168710   5.363   3.832  13.186  2.8042 -0.7751  0.7181
15765TIP3    H268711   5.333   3.703  13.113 -0.3172  0.5668 -0.5463
15766TIP3   OH268712   4.512   0.838  13.303 -0.1529  0.3892  0.6655
15766TIP3    H168713   4.507   0.803  13.392  1.3782  1.7140  1.3226
15766TIP3    H268714   4.421   0.861  13.282 -1.1109 -3.0729  0.4703
15767TIP3   OH268715   1.051   3.946  13.647  0.5819  0.1575 -0.0550
15767TIP3    H168716   1.120   3.893  13.607  1.0690  1.1671 -0.5706
15767TIP3    H268717   1.053   3.921  13.740 -0.5454 -2.1992 -0.5845
15768TIP3   OH268718   3.769   6.151   2.280  0.3071 -0.0829 -0.6188
15768TIP3    H168719   3.739   6.159   2.190  0.9887 -1.2941 -0.9787
15768TIP3    H268720   3.790   6.241   2.306 -0.1001  0.3088 -1.5818
15769TIP3   OH268721   6.104   6.406   0.792  0.2759 -0.1065  0.3128
15769TIP3    H168722   6.148   6.417   0.707  1.1483 -2.4810  0.3786
15769TIP3    H268723   6.174   6.379   0.851 -0.7465 -0.9201  1.1741
15770TIP3   OH268724   3.518   0.523   2.762 -0.0473 -0.4028  0.2523
15770TIP3    H168725   3.565   0.443   2.738 -0.6299 -0.4699 -0.7032
15770TIP3    H268726   3.499   0.565   2.679  1.4156  1.4346  0.7728
15771TIP3   OH268727   2.670   1.786  14.741  0.3809 -0.4385 -0.4068
15771TIP3    H168728   2.589   1.760  14.696 -0.3966 -2.5430  1.9475
15771TIP3    H268729   2.737   1.787  14.672 -1.2900 -0.3815 -2.1138
15772TIP3   OH268730   2.001   1.558   2.316  0.4144 -0.0752  0.1487
15772TIP3    H168731   2.041   1.599   2.393  0.3729  1.3891 -0.5758
15772TIP3    H268732   1.928   1.508   2.351 -0.6570  1.9273  0.9461
15773TIP3   OH268733   6.669   2.747   3.566 -0.2816 -0.2999  0.1228
15773TIP3    H168734   6.653   2.803   3.642 -2.1563  0.4918 -0.7772
15773TIP3    H268735   6.660   2.806   3.491  3.2935 -0.6633 -0.7523
15774TIP3   OH268736   5.320   6.124  15.551  0.2740  0.5319  0.4634
15774TIP3    H168737   5.372   6.203  15.540  2.5839 -1.1703 -2.5103
15774TIP3    H268738   5.356   6.082  15.629  2.2248  0.3339 -0.4726
15775TIP3   OH268739   0.760   0.376  12.859  0.2861 -0.0303 -0.2878
15775TIP3    H168740   0.667   0.394  12.847  0.7849  2.9285 -0.3640
15775TIP3    H268741   0.784   0.324  12.782 -1.2649 -0.7649 -0.3100
15776TIP3   OH268742   5.081   1.341  15.430 -0.1041 -0.5861  0.3550
15776TIP3    H168743   5.102   1.368  15.519  0.2479 -0.1817  0.1538
15776TIP3    H268744   4.988   1.363  15.419  0.1462  0.4589  0.2333
15777TIP3   OH268745   5.964   0.566  11.357  0.4282  0.2339 -0.0776
15777TIP3    H168746   5.932   0.597  11.273  0.2360 -1.8046 -0.8127
15777TIP3    H268747   5.932   0.475  11.363  2.5693 -0.5170  1.0223
15778TIP3   OH268748   1.375   6.313  15.587  0.8483  0.3792 -0.1450
15778TIP3    H168749   1.377   6.378  15.517 -0.5804  0.7830  0.1544
15778TIP3    H268750   1.349   6.362  15.665 -2.1397 -0.7737 -0.2662
15779TIP3   OH268751   2.052   2.584  13.184 -1.0274  0.1617  0.4033
15779TIP3    H168752   2.098   2.627  13.113 -0.0198 -2.8980 -0.9759
15779TIP3    H268753   1.967   2.560  13.148 -0.7021 -0.9653  0.3346
15780TIP3   OH268754   6.380   1.642   3.359 -0.3992  0.2103  0.0585
15780TIP3    H168755   6.464   1.686   3.376 -0.2140 -0.0947 -0.0656
15780TIP3    H268756   6.319   1.683   3.420  0.1422 -0.5258  1.1302
15781TIP3   OH268757   0.359   2.567   2.918  0.3942 -0.4437  0.4476
15781TIP3    H168758   0.321   2.588   3.003  1.0817  0.3138  0.5861
15781TIP3    H268759   0.439   2.518   2.939  0.1270 -0.9782  0.2097
15782TIP3   OH268760   5.300   2.396  13.376 -0.5095 -0.3759  0.7934
15782TIP3    H168761   5.298   2.366  13.467 -1.6784  0.3804  1.0240
15782TIP3    H268762   5.283   2.490  13.380 -0.4044 -0.2970 -0.1998
15783TIP3   OH268763   5.326   2.551  15.282  0.2378 -0.0415  0.5439
15783TIP3    H168764   5.363   2.509  15.359  0.7137 -2.1217 -0.7444
15783TIP3    H268765   5.240   2.581  15.310  0.2902 -0.9865  1.7965
15784TIP3   OH268766   1.984   5.655   3.004  0.5524  0.2795  0.4959
15784TIP3    H168767   2.016   5.597   2.934  1.2677  1.2748 -0.0245
15784TIP3    H268768   2.046   5.641   3.076 -0.0706 -0.5996  0.8832
15785TIP3   OH268769   1.024   3.885  12.352  0.4869  0.2409 -0.0115
15785TIP3    H168770   0.936   3.862  12.320  0.7433  0.9541 -1.2996
15785TIP3    H268771   1.033   3.978  12.334  0.8417  0.6045  1.8056
15786TIP3   OH268772   5.775   3.229   3.877 -0.3643 -0.6859 -0.0850
15786TIP3    H168773   5.844   3.194   3.820  0.1771 -2.5016  1.5658
15786TIP3    H268774   5.814   3.308   3.915  0.3388 -1.0097 -0.1167
15787TIP3   OH268775   4.590   4.237   1.480 -0.2070 -0.0786  0.5583
15787TIP3    H168776   4.596   4.249   1.575 -1.5879 -1.5559  0.8769
15787TIP3    H268777   4.680   4.241   1.449  0.5445 -1.9798  2.2814
15788TIP3   OH268778   5.179   1.723  13.824  0.5371 -0.7816  0.2593
15788TIP3    H168779   5.183   1.782  13.749  0.5073  0.1273  0.9516
15788TIP3    H268780   5.086   1.705  13.836  0.5530 -1.0483 -0.0068
15789TIP3   OH268781   3.068   5.519   4.493  0.2689  0.1512  0.6878
15789TIP3    H168782   3.094   5.477   4.575  1.6961 -1.0529 -0.3187
15789TIP3    H268783   3.145   5.567   4.465 -0.2761  0.7303  0.1460
15790TIP3   OH268784   6.678   0.049   3.661 -0.3158  0.2271 -0.8543
15790TIP3    H168785   6.617  -0.025   3.666 -0.3098  0.2559 -0.2116
15790TIP3    H268786   6.663   0.087   3.575 -1.7019  0.6662 -0.4466
15791TIP3   OH268787   4.061   1.679   1.143 -0.1100  0.5193 -0.2531
15791TIP3    H168788   4.062   1.600   1.090 -0.7574  1.0098 -1.0237
15791TIP3    H268789   3.984   1.728   1.112 -2.6236 -0.7109  3.3977
15792TIP3   OH268790   1.535   2.942   5.100 -0.2904 -0.3782  0.2396
15792TIP3    H168791   1.457   2.897   5.132  0.3523 -0.6708  1.4239
15792TIP3    H268792   1.516   2.959   5.007 -1.4671 -1.0592  0.3371
15793TIP3   OH268793   2.197   4.615   4.263  0.5191  0.1782  0.0103
15793TIP3    H168794   2.107   4.647   4.263  0.2614 -0.5035  0.9297
15793TIP3    H268795   2.250   4.693   4.247 -0.1387  0.9099  1.2459
15794TIP3   OH268796   3.425   0.295  14.341 -0.3745  0.4210 -0.2616
15794TIP3    H168797   3.453   0.385  14.324  0.3790  0.4378  0.9288
15794TIP3    H268798   3.333   0.302  14.365  0.0892  1.1234  1.4795
15795TIP3   OH268799   3.414   1.382  11.435  0.3067 -0.4724 -0.1869
15795TIP3    H168800   3.489   1.397  11.379  1.8187  0.3147  1.9228
15795TIP3    H268801   3.451   1.366  11.522 -1.8541 -2.8698  0.4272
15796TIP3   OH268802   3.053   4.885   3.788 -1.0554  0.1186 -0.0530
15796TIP3    H168803   3.052   4.968   3.741 -0.4239  0.7045  0.9438
15796TIP3    H268804   2.971   4.842   3.762 -1.5707  1.2076 -0.2847
15797TIP3   OH268805   1.696   5.289   6.465 -0.1515  0.2258  0.4993
15797TIP3    H168806   1.682   5.197   6.486  0.6052  0.4697  2.2395
15797TIP3    H268807   1.791   5.298   6.457  0.1085  1.4270  3.6428
15798TIP3   OH268808   4.515   3.204  16.589 -0.6227  0.1408  0.2781
15798TIP3    H168809   4.604   3.232  16.569 -0.8457  0.3906 -0.3774
15798TIP3    H268810   4.507   3.215  16.684 -0.0112  0.2636  0.3176
15799TIP3   OH268811   2.628   0.604   5.746  0.2024  0.4323 -0.2542
15799TIP3    H168812   2.547   0.634   5.787  0.0407 -0.5509  0.1884
15799TIP3    H268813   2.605   0.518   5.710  1.1452 -0.0119  0.1791
15800TIP3   OH268814   4.681   6.171  12.201 -0.0219 -0.2240 -0.0330
15800TIP3    H168815   4.633   6.089  12.213 -0.2497 -0.4265 -2.0621
15800TIP3    H268816   4.769   6.144  12.176  0.1223  0.1557  0.0641
15801TIP3   OH268817   4.215   6.020   5.990 -0.5023 -0.3187  0.0199
15801TIP3    H168818   4.294   5.978   5.958  1.2187  1.3990  1.7518
15801TIP3    H268819   4.175   5.956   6.049 -1.2946 -1.7630 -1.9761
15802TIP3   OH268820   4.124   1.648  15.895  0.0291 -0.2434  0.0273
15802TIP3    H168821   4.199   1.589  15.903 -0.5241 -1.3927 -2.3822
15802TIP3    H268822   4.048   1.594  15.918 -0.2696  0.2588  0.2400
15803TIP3   OH268823   4.758   3.332  16.177 -0.7213 -0.1202 -0.2196
15803TIP3    H168824   4.666   3.310  16.190 -0.9120  0.4016 -0.7037
15803TIP3    H268825   4.780   3.387  16.253 -0.0519 -2.4482  1.3987
15804TIP3   OH268826   4.853   4.033  12.742 -0.2053 -0.0151 -0.6745
15804TIP3    H168827   4.948   4.045  12.750 -0.0362 -1.2987 -0.4583
15804TIP3    H268828   4.816   4.115  12.772  0.7604 -0.5547  2.3246
15805TIP3   OH268829   6.633   0.475   2.892  0.7523  0.1434 -0.1638
15805TIP3    H168830   6.592   0.407   2.839  1.2925 -0.2090 -0.1403
15805TIP3    H268831   6.567   0.544   2.899 -0.0722 -0.6978  0.4428
15806TIP3   OH268832   0.379   5.714  15.521 -0.0629 -0.1433 -0.0787
15806TIP3    H168833   0.323   5.644  15.488 -0.4057  0.1781 -0.1828
15806TIP3    H268834   0.377   5.704  15.616  0.9913 -1.1246 -0.1390
15807TIP3   OH268835   1.965   0.133   6.052 -0.2006  0.2123  0.2377
15807TIP3    H168836   1.949   0.209   5.997 -1.2564  1.5653  2.2763
15807TIP3    H268837   2.058   0.141   6.077  0.2029 -0.2534 -1.0443
15808TIP3   OH268838   1.219   3.081   5.160 -0.2113  0.1605 -0.3194
15808TIP3    H168839   1.189   3.171   5.148  0.4123  0.3726 -0.3212
15808TIP3    H268840   1.215   3.067   5.255  0.6269  0.5237 -0.2257
15809TIP3   OH268841   2.115   2.659   5.445 -0.2034  0.1086  0.3838
15809TIP3    H168842   2.179   2.588   5.437  0.7093  1.0654 -1.5823
15809TIP3    H268843   2.043   2.621   5.494  0.1349 -2.2702 -0.8069
15810TIP3   OH268844   4.241   1.288   1.641  0.2894  0.2605  0.7150
15810TIP3    H168845   4.288   1.355   1.591  0.7292  0.3722  1.2676
15810TIP3    H268846   4.182   1.337   1.698  0.4184  0.1706  0.9276
15811TIP3   OH268847   2.305   0.393   2.763 -0.0883  0.6614  0.3728
15811TIP3    H168848   2.265   0.455   2.824  1.0333  3.0237 -1.1406
15811TIP3    H268849   2.305   0.438   2.679  0.4220 -1.6029 -0.9390
15812TIP3   OH268850   1.849   2.337  11.525  0.6970 -0.4831  0.5054
15812TIP3    H168851   1.881   2.349  11.615  1.1130  1.9728  0.1021
15812TIP3    H268852   1.897   2.260  11.493 -0.3107 -2.1636  2.6994
15813TIP3   OH268853   1.876   3.133   1.039  0.3768  0.3583  0.5294
15813TIP3    H168854   1.887   3.162   1.129 -0.0510 -1.5878  1.2348
15813TIP3    H268855   1.965   3.108   1.011  0.0563 -2.3824  1.6552
15814TIP3   OH268856   6.211   4.538   3.470 -0.0229 -0.1754  0.8209
15814TIP3    H168857   6.199   4.625   3.509 -0.8028  0.0034  0.1975
15814TIP3    H268858   6.157   4.539   3.391  0.7086 -0.8991  0.2908
15815TIP3   OH268859   1.823   3.820  11.473  0.2051  0.1814  0.1636
15815TIP3    H168860   1.918   3.815  11.488  0.0076 -2.1346  1.0894
15815TIP3    H268861   1.785   3.822  11.560 -0.6146  2.1813 -0.1989
15816TIP3   OH268862   0.717   2.546   3.952 -0.1363  0.0106  0.1780
15816TIP3    H168863   0.654   2.606   3.992  0.0297  0.2542  0.0734
15816TIP3    H268864   0.664   2.472   3.922 -0.6298  0.9805 -1.4676
15817TIP3   OH268865   1.933   4.941  17.044 -0.6585 -0.2465  0.4462
15817TIP3    H168866   1.960   5.001  16.974 -0.0673 -1.4281 -0.3834
15817TIP3    H268867   1.910   4.997  17.117  0.3276  0.9759 -0.1471
15818TIP3   OH268868   2.787   0.322   0.197 -0.0503  0.5049  0.3216
15818TIP3    H168869   2.781   0.359   0.285  1.0844  1.0358  0.1945
15818TIP3    H268870   2.725   0.374   0.146 -0.8229  0.0985  0.8321
15819TIP3   OH268871   6.172   0.149   1.663 -0.5240  0.1585 -0.6482
15819TIP3    H168872   6.081   0.129   1.682 -0.2909 -0.2219  0.1359
15819TIP3    H268873   6.221   0.074   1.696  0.0942  0.4889 -0.7856
15820TIP3   OH268874   4.246   3.796  17.064 -0.3145 -0.0672  0.1936
15820TIP3    H168875   4.215   3.715  17.104  0.0882 -1.2158 -1.6944
15820TIP3    H268876   4.194   3.804  16.983  1.5463  0.0299 -1.0570
15821TIP3   OH268877   3.241   3.084   4.892 -0.0096 -0.5489 -0.4566
15821TIP3    H168878   3.166   3.057   4.945  0.2454  2.1277  1.4579
15821TIP3    H268879   3.301   3.009   4.896 -1.9612 -2.2544 -0.9811
15822TIP3   OH268880   6.520   1.301  14.601  0.5499 -0.5237 -0.0425
15822TIP3    H168881   6.502   1.218  14.646 -0.7889  0.4158  1.2446
15822TIP3    H268882   6.506   1.368  14.667  0.5510  0.8085 -1.3309
15823TIP3   OH268883   5.986   0.949  15.190 -0.0923  0.0321 -0.1338
15823TIP3    H168884   5.991   0.853  15.180 -0.6804 -0.3458  2.5368
15823TIP3    H268885   5.899   0.971  15.157 -1.3962 -0.9244  2.3986
15824TIP3   OH268886   4.952   6.651   4.697  0.3946  0.5257  0.2333
15824TIP3    H168887   4.916   6.600   4.769 -0.8356 -0.9131 -1.3386
15824TIP3    H268888   5.045   6.629   4.697  0.3574  0.3187  1.1867
15825TIP3   OH268889   5.137   1.814   4.966  0.1843 -0.3958  0.7531
15825TIP3    H168890   5.057   1.860   4.941  0.2297 -0.4315  0.5401
15825TIP3    H268891   5.204   1.848   4.906  0.1612 -0.9389  0.4131
15826TIP3   OH268892   6.544   4.503   5.654  0.3800 -0.8066 -0.1366
15826TIP3    H168893   6.514   4.589   5.684 -1.9722 -1.1534 -1.2959
15826TIP3    H268894   6.541   4.508   5.559  0.0657 -2.1982 -0.2286
15827TIP3   OH268895   6.063   1.121   0.248 -0.1044  0.0811 -0.8060
15827TIP3    H168896   6.126   1.050   0.244  1.3515  1.3441 -1.2120
15827TIP3    H268897   6.020   1.121   0.162 -1.1988 -1.2090 -0.2944
15828TIP3   OH268898   3.089   2.035  13.169  0.0279  0.4198  0.0681
15828TIP3    H168899   3.057   1.945  13.169  0.8770  0.0347 -2.5467
15828TIP3    H268900   3.057   2.072  13.251 -1.6040 -1.8134  0.5247
15829TIP3   OH268901   1.534   6.519   4.901 -0.2521 -0.8909  0.1216
15829TIP3    H168902   1.488   6.602   4.905 -0.8662 -1.2757  1.7444
15829TIP3    H268903   1.498   6.475   4.824 -0.8126 -0.1697 -0.0395
15830TIP3   OH268904   1.534   5.922   0.853 -0.2422  0.5151 -0.2349
15830TIP3    H168905   1.506   5.936   0.943 -1.1005 -1.4012 -0.1555
15830TIP3    H268906   1.624   5.891   0.859 -0.4608 -0.0908  0.0280
15831TIP3   OH268907   3.937   1.893   2.628 -0.1026 -0.4372  0.0673
15831TIP3    H168908   3.942   1.841   2.548  1.2067 -0.5172  0.1816
15831TIP3    H268909   3.845   1.918   2.634 -1.3306 -4.4729  1.1283
15832TIP3   OH268910   1.155   6.334   4.114  0.1102  0.8376  0.1339
15832TIP3    H168911   1.151   6.339   4.019 -0.8780  0.3059  0.1398
15832TIP3    H268912   1.083   6.276   4.139  1.6880 -0.8250  1.0611
15833TIP3   OH268913   0.012   2.032  16.100  0.3489 -0.8219 -0.4351
15833TIP3    H168914   0.029   2.099  16.034  0.7753 -1.6188 -1.1512
15833TIP3    H268915   0.032   2.075  16.183 -2.4747  0.9663 -0.5542
15834TIP3   OH268916   0.443   0.952  11.636 -0.5964 -0.1346 -0.1220
15834TIP3    H168917   0.515   0.948  11.699  0.0970 -0.8576 -0.9295
15834TIP3    H268918   0.365   0.932  11.687 -0.3129  1.1597  0.8708
15835TIP3   OH268919   0.848   0.987  13.142 -0.6509 -0.0385 -0.5456
15835TIP3    H168920   0.819   0.944  13.061  1.0170  0.1517 -1.2977
15835TIP3    H268921   0.841   1.081  13.123  1.6162  0.0432 -1.2685
15836TIP3   OH268922   1.476   0.077  16.375  0.3063 -0.3049  0.0807
15836TIP3    H168923   1.456   0.044  16.287 -0.2344  0.6672 -0.1851
15836TIP3    H268924   1.470   0.001  16.432 -1.3759 -0.5948 -0.4297
15837TIP3   OH268925   5.395   2.382  16.222  0.3163 -0.5043 -0.0849
15837TIP3    H168926   5.381   2.361  16.314 -0.8627 -0.9920 -0.3471
15837TIP3    H268927   5.488   2.365  16.206  0.2668 -1.6485  0.7135
15838TIP3   OH268928   5.195   2.419   1.694  0.1907  0.0682 -0.0718
15838TIP3    H168929   5.185   2.325   1.679 -1.3235 -0.0696  1.5080
15838TIP3    H268930   5.229   2.426   1.783 -1.1102  1.0149  0.3834
15839TIP3   OH268931   3.825   0.523  16.981 -0.1603 -0.3098  0.0238
15839TIP3    H168932   3.887   0.593  16.961 -0.2271 -0.6536 -1.4656
15839TIP3    H268933   3.873   0.442  16.963 -1.1582 -0.5775 -1.6136
15840TIP3   OH268934   4.468   3.007  11.639 -0.2549 -0.5898 -0.4580
15840TIP3    H168935   4.489   2.915  11.624 -0.8094 -0.7589 -0.2135
15840TIP3    H268936   4.373   3.010  11.642 -0.2170 -0.1914  0.6802
15841TIP3   OH268937   2.050   1.029   1.148 -0.4682 -0.0253  0.2090
15841TIP3    H168938   2.056   1.122   1.170  1.8477 -0.2749  0.8768
15841TIP3    H268939   1.982   1.024   1.081 -1.3313  1.9952  0.8659
15842TIP3   OH268940   5.740   0.980   5.632  0.0525  0.2318 -0.1850
15842TIP3    H168941   5.695   1.051   5.585  0.5478  0.3497 -0.4926
15842TIP3    H268942   5.821   1.020   5.664 -0.1684  0.0833  0.5621
15843TIP3   OH268943   0.070   2.513  13.527  0.2522 -0.6652  0.4958
15843TIP3    H168944   0.117   2.431  13.541  1.2913 -0.5178 -1.6245
15843TIP3    H268945   0.139   2.579  13.522 -0.4062  0.0202  0.2679
15844TIP3   OH268946   2.689   1.140  12.249  0.3999 -0.5329  0.7170
15844TIP3    H168947   2.771   1.130  12.297  0.9069 -0.0244 -0.0318
15844TIP3    H268948   2.715   1.177  12.165 -0.6802  0.3533  0.7610
15845TIP3   OH268949   5.638   0.573  17.125 -0.0109  0.3919  0.3516
15845TIP3    H168950   5.619   0.635  17.055  0.9163 -0.1578 -0.4000
15845TIP3    H268951   5.599   0.491  17.095 -1.9539  0.7232  1.7015
15846TIP3   OH268952   3.968   3.754   5.203 -0.4047 -0.4193  0.4847
15846TIP3    H168953   4.063   3.742   5.216 -0.1974 -0.1614 -0.6752
15846TIP3    H268954   3.943   3.818   5.270  0.1634 -0.7504  1.0294
15847TIP3   OH268955   1.985   0.034  12.021  0.3284  0.3280  0.2034
15847TIP3    H168956   2.068  -0.003  11.992  0.3671  1.0422 -0.6009
15847TIP3    H268957   1.923   0.010  11.953  0.5274  2.4568 -0.7927
15848TIP3   OH268958   5.051   3.998   5.638 -0.0557 -0.1639  0.6404
15848TIP3    H168959   5.079   4.089   5.632  0.4633 -0.3557  0.0298
15848TIP3    H268960   5.131   3.947   5.625 -0.5855 -0.7194 -0.7186
15849TIP3   OH268961   1.286   3.095  12.857 -0.0298  0.7500  0.0807
15849TIP3    H168962   1.290   3.000  12.858 -1.2199  0.6951  0.0270
15849TIP3    H268963   1.230   3.117  12.782 -0.6874  1.4484  0.7574
15850TIP3   OH268964   2.163   5.194  16.130  0.1245  0.2476 -0.5640
15850TIP3    H168965   2.180   5.100  16.118  0.0336 -0.0484  1.2687
15850TIP3    H268966   2.111   5.219  16.054  0.9960 -0.9534 -1.6004
15851TIP3   OH268967   3.804   2.855   1.048 -0.3825  0.1981  0.1422
15851TIP3    H168968   3.834   2.917   1.114 -1.5307  0.4779  0.4066
15851TIP3    H268969   3.840   2.888   0.966 -2.6404  2.4202 -0.0529
15852TIP3   OH268970   3.995   6.648  15.949  0.4865 -0.2205  0.3478
15852TIP3    H168971   3.963   6.672  15.862  0.9067  0.9647  0.5005
15852TIP3    H268972   4.040   6.565  15.935 -0.1779 -0.4714 -0.4019
15853TIP3   OH268973   1.547   5.770  13.654  0.4269 -0.4649  0.2314
15853TIP3    H168974   1.510   5.689  13.619 -0.1961 -0.3299  0.5577
15853TIP3    H268975   1.503   5.840  13.605 -2.5509 -0.1253  2.9713
15854TIP3   OH268976   5.929   3.231  16.824  0.6318 -0.0227  0.3335
15854TIP3    H168977   5.858   3.294  16.811  0.1956 -0.7772 -1.1475
15854TIP3    H268978   5.939   3.187  16.740  2.6549 -0.1835  0.5963
15855TIP3   OH268979   4.689   6.752  12.011 -0.0779  0.2880 -0.3842
15855TIP3    H168980   4.686   6.667  12.056 -0.5366  0.2199 -0.5342
15855TIP3    H268981   4.639   6.811  12.068 -1.4840 -0.0202 -1.2445
15856TIP3   OH268982   4.018   5.082  14.702  0.1002 -0.1510 -0.5314
15856TIP3    H168983   4.066   5.052  14.779  0.6340  1.0659 -0.3664
15856TIP3    H268984   3.931   5.105  14.736  0.4760  0.8113 -0.1873
15857TIP3   OH268985   4.898   4.916   5.174  0.2708  0.0400 -0.5558
15857TIP3    H168986   4.835   4.900   5.103  0.9584  0.7539 -1.3461
15857TIP3    H268987   4.850   4.896   5.254 -1.3243  1.6412 -1.0680
15858TIP3   OH268988   3.429   6.769  16.560 -0.3488  0.1470  0.1834
15858TIP3    H168989   3.472   6.854  16.545  1.3639 -0.6817  0.1719
15858TIP3    H268990   3.486   6.706  16.516  0.4327 -1.4419  3.2168
15859TIP3   OH268991   2.150   3.359  14.628 -0.3601  0.2895  0.0304
15859TIP3    H168992   2.169   3.351  14.721  1.8445  0.5109 -0.3448
15859TIP3    H268993   2.195   3.285  14.588 -0.4142  0.7775 -0.9591
15860TIP3   OH268994   5.549   2.030  11.983 -0.7625 -0.0801  0.4475
15860TIP3    H168995   5.624   2.065  11.934 -1.1159  2.2718  1.4680
15860TIP3    H268996   5.588   1.964  12.040  0.2292 -0.2148 -0.3407
15861TIP3   OH268997   3.368   3.016  12.714  0.0518 -0.0463 -0.1112
15861TIP3    H168998   3.285   3.026  12.666  0.1458  0.9979 -0.0919
15861TIP3    H268999   3.429   2.982  12.650 -0.1042  0.2955 -0.4461
15862TIP3   OH269000   1.725   6.385   2.411 -0.0190 -0.1188 -0.2726
15862TIP3    H169001   1.805   6.349   2.448  0.2410  0.4637 -0.2521
15862TIP3    H269002   1.660   6.315   2.421  0.2529 -0.2699  0.5441
15863TIP3   OH269003   6.534   0.495   2.051  0.2760 -0.2465  0.1683
15863TIP3    H169004   6.579   0.529   2.128 -1.3960  2.4911  0.0426
15863TIP3    H269005   6.545   0.563   1.984 -1.8768 -0.5943 -0.6288
15864TIP3   OH269006   4.814   1.734  15.713 -0.1203 -0.0204  0.4371
15864TIP3    H169007   4.813   1.806  15.650  0.1889 -1.8307 -1.7517
15864TIP3    H269008   4.793   1.776  15.797 -1.0044  2.4300 -0.8930
15865TIP3   OH269009   0.635   4.823  12.280  0.5486 -0.3068 -0.4640
15865TIP3    H169010   0.652   4.815  12.374 -0.0660  1.7549 -0.1184
15865TIP3    H269011   0.546   4.789  12.269  0.0801  0.7485 -0.0309
15866TIP3   OH269012   6.747   4.292   5.778  0.2260  0.0510 -0.0370
15866TIP3    H169013   6.716   4.202   5.776  0.9298 -0.1948 -0.2208
15866TIP3    H269014   6.667   4.345   5.773 -0.1378 -0.5646 -1.4123
15867TIP3   OH269015   0.507   4.632  16.027 -0.0001 -0.2431  0.3098
15867TIP3    H169016   0.437   4.568  16.037 -0.2377 -0.3463 -1.5510
15867TIP3    H269017   0.576   4.602  16.086 -0.1739 -2.1524 -0.3807
15868TIP3   OH269018   3.598   4.941  14.903 -0.1653 -0.1420 -1.0820
15868TIP3    H169019   3.523   4.985  14.943 -0.3274 -0.2353 -1.2785
15868TIP3    H269020   3.558   4.873  14.848  0.0467  0.0553 -1.4860
15869TIP3   OH269021   4.222   4.701   5.219 -0.6819 -0.6139 -0.1990
15869TIP3    H169022   4.139   4.748   5.231 -0.8769 -1.4364  2.3649
15869TIP3    H269023   4.284   4.769   5.193 -1.2231  0.9105  2.1459
15870TIP3   OH269024   3.222   5.121   0.981  0.5940  0.5174  0.3371
15870TIP3    H169025   3.139   5.077   0.999  0.4681  0.0021 -1.3241
15870TIP3    H269026   3.283   5.049   0.964  0.2833  0.8764 -2.8750
15871TIP3   OH269027   6.173   4.609   6.293 -0.3443 -0.1137 -0.3326
15871TIP3    H169028   6.080   4.629   6.304 -0.1218  0.4909  0.6360
15871TIP3    H269029   6.185   4.525   6.337 -0.2935  0.1904  0.2476
15872TIP3   OH269030   3.288   4.394  11.448 -0.0749  0.1885 -0.0657
15872TIP3    H169031   3.361   4.451  11.469 -0.8150  1.1348  0.0147
15872TIP3    H269032   3.210   4.446  11.469 -0.7739 -1.1525  0.8208
15873TIP3   OH269033   1.107   5.441   0.812 -0.8628  0.0950  0.0972
15873TIP3    H169034   1.136   5.364   0.861 -0.6490  1.0220  1.4891
15873TIP3    H269035   1.188   5.479   0.777 -0.9139  0.0232 -0.1044
15874TIP3   OH269036   0.394   4.305   5.284  0.3051  0.1675  0.1540
15874TIP3    H169037   0.458   4.363   5.325  1.1180  0.6724 -1.7174
15874TIP3    H269038   0.406   4.221   5.328  1.7761  0.4420  0.3307
15875TIP3   OH269039   0.983   0.085   1.770 -0.8777  0.1390 -0.4591
15875TIP3    H169040   0.914   0.020   1.757 -0.0318 -0.6880 -0.8659
15875TIP3    H269041   1.057   0.052   1.720  1.0016 -0.8159  2.6529
15876TIP3   OH269042   0.165   5.751  17.069 -0.6121 -0.2957  0.3146
15876TIP3    H169043   0.101   5.788  17.008 -0.5952  0.8569  0.9639
15876TIP3    H269044   0.114   5.720  17.143 -0.4917 -0.1382  0.4651
15877TIP3   OH269045   6.252   5.778  12.674  0.1906  0.2575 -0.2906
15877TIP3    H169046   6.167   5.735  12.684  0.7498 -0.6448  0.8069
15877TIP3    H269047   6.306   5.714  12.628  1.4979 -1.0200  2.7173
15878TIP3   OH269048   6.132   2.186   1.141 -0.6693 -0.0273 -0.2860
15878TIP3    H169049   6.183   2.127   1.085 -0.4840 -0.2976  0.1616
15878TIP3    H269050   6.041   2.164   1.123 -0.5951 -0.7737  0.2217
15879TIP3   OH269051   2.930   6.615   0.809  0.1143  0.2164  0.1107
15879TIP3    H169052   3.004   6.672   0.789 -0.0155  0.3005 -0.1352
15879TIP3    H269053   2.860   6.675   0.835 -0.6549  0.3371 -2.0701
15880TIP3   OH269054   6.376   4.525  16.332 -0.1577 -0.3918 -0.0482
15880TIP3    H169055   6.349   4.616  16.335  0.6644 -0.1185 -0.5807
15880TIP3    H269056   6.342   4.493  16.248  1.3695  0.0381 -0.8661
15881TIP3   OH269057   2.778   0.352  12.285 -0.3758 -0.1286  0.0303
15881TIP3    H169058   2.752   0.377  12.197 -0.1137 -1.2736 -0.3815
15881TIP3    H269059   2.778   0.434  12.334  0.3736  0.6643 -1.2478
15882TIP3   OH269060   6.789   1.030  14.715  0.1885  0.7678 -0.5062
15882TIP3    H169061   6.708   1.062  14.755  1.3753  0.6738  2.2045
15882TIP3    H269062   6.771   0.939  14.694  0.7244 -0.6470  4.1223
15883TIP3   OH269063   5.146   6.087  12.692 -0.6543 -0.0003 -0.1407
15883TIP3    H169064   5.205   6.064  12.764  0.2170  0.9004 -0.5499
15883TIP3    H269065   5.120   6.003  12.656  0.6380 -0.4217 -0.1460
15884TIP3   OH269066   0.743   0.238   0.774 -0.0294  0.5611  0.0410
15884TIP3    H169067   0.657   0.270   0.801  0.7470  2.9822 -0.1527
15884TIP3    H269068   0.762   0.285   0.692  1.8411  0.7561  0.5441
15885TIP3   OH269069   4.963   6.016   0.484  0.1589  0.3261 -0.1114
15885TIP3    H169070   4.945   6.010   0.390  1.4376  0.5773 -0.3934
15885TIP3    H269071   4.939   5.930   0.518  0.4423 -0.0396 -0.8098
15886TIP3   OH269072   5.581   3.807  16.043  0.0974  0.1281 -0.1391
15886TIP3    H169073   5.536   3.728  16.071  0.4866  0.2630  0.9357
15886TIP3    H269074   5.604   3.852  16.125 -1.1928  1.9664 -0.7093
15887TIP3   OH269075   0.955   0.679   4.366 -0.2943 -0.1747 -0.4115
15887TIP3    H169076   0.988   0.768   4.383 -1.4186  0.2951 -0.6336
15887TIP3    H269077   0.974   0.631   4.447  0.9965  0.0410 -0.5572
15888TIP3   OH269078   3.646   5.490  16.736 -0.4884  0.5715  0.6725
15888TIP3    H169079   3.589   5.489  16.813  0.2162  2.1548  1.2759
15888TIP3    H269080   3.605   5.553  16.677  0.4331  1.5081  0.9883
15889TIP3   OH269081   4.270   0.607  17.085  0.2341 -0.3636 -0.3308
15889TIP3    H169082   4.299   0.656  17.008 -0.4127 -1.2099 -1.1199
15889TIP3    H269083   4.287   0.667  17.158  0.3863  0.6487 -1.1691
15890TIP3   OH269084   3.670   6.396  16.043 -0.3657 -0.8748 -0.1523
15890TIP3    H169085   3.744   6.451  16.068 -0.2303 -0.9195 -0.4476
15890TIP3    H269086   3.599   6.422  16.102 -0.1040 -0.8542  0.1512
15891TIP3   OH269087   0.044   4.458   1.183 -0.6282  0.7042  0.1934
15891TIP3    H169088  -0.044   4.470   1.148 -0.4361  1.1416 -0.1465
15891TIP3    H269089   0.076   4.379   1.141 -0.4746  1.1143 -0.4719
15892TIP3   OH269090   5.460   6.328   4.567  0.0842  0.3096 -0.4384
15892TIP3    H169091   5.521   6.376   4.623 -0.7090  0.5948  0.1954
15892TIP3    H269092   5.514   6.260   4.526  1.3373  1.9083 -1.6237
15893TIP3   OH269093   3.410   0.488   1.941 -0.2740  0.7447  0.0367
15893TIP3    H169094   3.329   0.463   1.897  1.1628 -0.2231 -2.2097
15893TIP3    H269095   3.453   0.548   1.880  0.1300  2.3137  1.7720
15894TIP3   OH269096   4.724   1.331   3.337 -0.0021  0.1058  0.3179
15894TIP3    H169097   4.808   1.329   3.384  0.2324  0.8454 -0.0655
15894TIP3    H269098   4.680   1.410   3.370  0.1953  0.6744 -0.7506
15895TIP3   OH269099   2.062   1.944  11.671 -0.6099  0.1748 -0.5870
15895TIP3    H169100   2.063   1.983  11.758 -1.4300  1.0018 -0.9246
15895TIP3    H269101   2.140   1.889  11.668 -1.0799 -0.6414  1.0000
15896TIP3   OH269102   3.131   1.743   4.835 -0.1920  0.2456 -0.3003
15896TIP3    H169103   3.102   1.671   4.779 -0.3275  0.8099 -0.9493
15896TIP3    H269104   3.121   1.821   4.782  0.3505  0.7046  0.2650
15897TIP3   OH269105   1.009   0.026  11.149  0.4587  0.3662  0.0686
15897TIP3    H169106   0.975   0.055  11.234  3.5838  0.2888  1.4858
15897TIP3    H269107   1.065  -0.048  11.169 -1.0924 -1.6976 -2.5448
15898TIP3   OH269108   4.737   1.889  14.707  0.1537  0.3911  0.1661
15898TIP3    H169109   4.829   1.867  14.721  0.2570  0.0161 -0.9460
15898TIP3    H269110   4.739   1.954  14.637 -0.5201 -1.7914 -2.0425
15899TIP3   OH269111   2.323   1.206  12.519  0.5246  0.1130 -0.0033
15899TIP3    H169112   2.296   1.131  12.465  0.3780  0.0111  0.2062
15899TIP3    H269113   2.410   1.183  12.550  0.4607  0.0065  0.0993
15900TIP3   OH269114   3.182   0.024   1.607 -0.6046  0.0042  0.3144
15900TIP3    H169115   3.220   0.038   1.520  1.6448  0.4083  1.2893
15900TIP3    H269116   3.115   0.091   1.615  0.2177  0.9648 -0.5507
15901TIP3   OH269117   2.733   6.396   4.197  0.1829  0.0251  0.0518
15901TIP3    H169118   2.783   6.416   4.276 -1.0585  0.9030  0.6637
15901TIP3    H269119   2.682   6.475   4.181 -1.6303 -1.1018 -0.0377
15902TIP3   OH269120   6.070   1.153  11.594  0.1912 -0.0051  0.4160
15902TIP3    H169121   6.150   1.196  11.623 -0.6938  1.5410  0.6852
15902TIP3    H269122   6.022   1.133  11.674 -0.0767 -0.1363  0.2273
15903TIP3   OH269123   1.229   3.168   2.895 -0.0324  0.0558 -0.0936
15903TIP3    H169124   1.271   3.082   2.899 -2.1333 -0.9726  2.3246
15903TIP3    H269125   1.292   3.227   2.937  0.7386 -0.5892 -0.3028
15904TIP3   OH269126   1.307   0.058   3.390 -0.0258 -0.5056  0.0926
15904TIP3    H169127   1.337   0.133   3.338  2.9112 -0.8052  1.1528
15904TIP3    H269128   1.306  -0.015   3.328 -2.6145  0.2619 -0.8754
15905TIP3   OH269129   3.022   6.036  11.625  0.1805 -0.5833 -0.3739
15905TIP3    H169130   2.934   6.072  11.614  0.3874  0.7082  1.6919
15905TIP3    H269131   3.080   6.106  11.595  0.5378 -1.0595 -0.8154
15906TIP3   OH269132   6.499   0.509   5.933  0.2098  0.5458 -0.1332
15906TIP3    H169133   6.590   0.482   5.921 -0.0818 -0.5082 -0.0025
15906TIP3    H269134   6.448   0.441   5.890 -0.6683 -0.6377  2.5696
15907TIP3   OH269135   1.675   5.610   2.777 -0.0948  0.5758 -0.2941
15907TIP3    H169136   1.727   5.686   2.805  0.8551 -0.8904  2.2287
15907TIP3    H269137   1.738   5.556   2.729 -0.9397  1.6008 -2.6986
15908TIP3   OH269138   6.344   2.909   5.050  0.1337  0.4731  0.3066
15908TIP3    H169139   6.339   2.844   4.980  0.1526  1.2107 -0.4043
15908TIP3    H269140   6.359   2.858   5.130  1.7510 -0.2773 -0.4390
15909TIP3   OH269141   2.381   6.312   2.489  0.4389  0.2427  0.2466
15909TIP3    H169142   2.342   6.400   2.495  1.4039  0.7617 -0.7571
15909TIP3    H269143   2.439   6.307   2.565 -1.3207 -0.4464  1.6181
15910TIP3   OH269144   0.092   4.579  11.171  0.0939  0.4568  0.0592
15910TIP3    H169145   0.100   4.593  11.265 -0.3552 -0.7588  0.2991
15910TIP3    H269146   0.047   4.657  11.139  1.7532  1.6640  0.5640
15911TIP3   OH269147   0.647   2.812   2.742  0.2048  0.2006 -0.2101
15911TIP3    H169148   0.662   2.831   2.835  1.8326  1.9574 -0.7553
15911TIP3    H269149   0.554   2.832   2.729 -0.0775 -0.1665  1.0484
15912TIP3   OH269150   3.052   2.928  15.730  0.3567  0.2104 -0.3117
15912TIP3    H169151   3.026   3.017  15.752  0.7293  0.2284  0.0631
15912TIP3    H269152   2.979   2.895  15.677 -0.6273  0.1223  1.0372
15913TIP3   OH269153   0.223   0.477  10.628  0.0665 -0.0123  0.2205
15913TIP3    H169154   0.304   0.430  10.605 -0.4367 -0.8156  0.0716
15913TIP3    H269155   0.240   0.568  10.601  0.7394 -0.2695 -0.2564
15914TIP3   OH269156   6.205   1.944   2.013  0.0186  0.1343  0.3832
15914TIP3    H169157   6.133   1.962   2.073  1.0013 -1.6421  2.2362
15914TIP3    H269158   6.266   2.016   2.026 -1.1560  1.4388 -0.9078
15915TIP3   OH269159   0.523   3.513  14.305 -0.0578 -0.4297 -0.3001
15915TIP3    H169160   0.613   3.517  14.336  0.1530 -0.7803 -0.8549
15915TIP3    H269161   0.525   3.553  14.218 -0.6278  0.4747  0.0845
15916TIP3   OH269162   5.463   4.205   3.575  0.2042 -0.0308 -0.5128
15916TIP3    H169163   5.518   4.246   3.507 -0.8712  1.5416 -0.5003
15916TIP3    H269164   5.374   4.230   3.552 -0.2779 -0.3079  0.9319
15917TIP3   OH269165   3.058   0.313  11.622  0.2654 -0.3942 -0.1761
15917TIP3    H169166   3.147   0.299  11.591 -0.4323 -1.6233 -1.7321
15917TIP3    H269167   3.034   0.399  11.589  0.2634 -0.8206 -1.3240
15918TIP3   OH269168   3.999   4.578  13.400 -0.5299 -0.2860  0.4665
15918TIP3    H169169   3.909   4.577  13.368 -0.6209 -1.3083  0.7198
15918TIP3    H269170   4.009   4.664  13.440 -1.1111  0.1692 -0.3474
15919TIP3   OH269171   4.269   5.674  13.841 -0.0149  0.2688 -1.1012
15919TIP3    H169172   4.257   5.665  13.936  0.9060 -1.6151 -1.1302
15919TIP3    H269173   4.342   5.616  13.820 -1.6491 -1.1490 -3.3046
15920TIP3   OH269174   2.622   4.651  16.222  0.4394  0.5653 -0.1791
15920TIP3    H169175   2.596   4.667  16.131 -2.3455  2.2172  0.7738
15920TIP3    H269176   2.562   4.583  16.253  1.3751  0.0021  0.4344
15921TIP3   OH269177   4.301   6.768   4.525  0.3683 -0.0844  0.3246
15921TIP3    H169178   4.320   6.675   4.513  0.1643 -0.2281  1.0350
15921TIP3    H269179   4.338   6.788   4.611 -0.0900  0.3502  0.4209
15922TIP3   OH269180   1.757   2.544   4.536  0.2429  0.0917  0.0876
15922TIP3    H169181   1.718   2.572   4.618  1.5061 -1.4193  1.2804
15922TIP3    H269182   1.754   2.621   4.479  1.2449  1.8410  2.2710
15923TIP3   OH269183   4.457   4.251  12.505 -0.1389 -0.3175  0.6372
15923TIP3    H169184   4.476   4.311  12.577 -0.9537  0.3828  0.2832
15923TIP3    H269185   4.490   4.166  12.535  2.1525  0.5068  0.6595
15924TIP3   OH269186   3.578   4.059   0.784 -0.1906  0.0689 -0.1680
15924TIP3    H169187   3.656   4.041   0.731 -0.0115  0.9213 -0.2077
15924TIP3    H269188   3.612   4.082   0.870 -0.2450  2.5697 -0.7528
15925TIP3   OH269189   6.700   5.078  10.633 -0.4158 -0.1406 -0.4024
15925TIP3    H169190   6.608   5.093  10.610 -0.5960 -1.1379 -0.3808
15925TIP3    H269191   6.706   4.983  10.647  0.6840 -0.1350 -0.7185
15926TIP3   OH269192   2.435   0.268   5.143  0.5052 -0.0710  0.0330
15926TIP3    H169193   2.401   0.351   5.109  1.8151  0.0104 -1.1888
15926TIP3    H269194   2.368   0.238   5.204 -0.6475  1.1845 -0.5520
15927TIP3   OH269195   5.945   3.580   4.993 -0.4330 -0.2263  0.3258
15927TIP3    H169196   5.898   3.518   4.938 -1.7256  0.3278  0.7381
15927TIP3    H269197   5.932   3.547   5.082 -1.8300  1.0153  0.6243
15928TIP3   OH269198   5.807   2.253   1.323 -0.2783  0.3841 -0.8494
15928TIP3    H169199   5.742   2.183   1.327  0.3318 -0.1681 -0.1555
15928TIP3    H269200   5.845   2.255   1.411  3.3074 -1.9400 -2.0588
15929TIP3   OH269201   5.777   4.483  13.047 -0.2331  0.0943 -0.2211
15929TIP3    H169202   5.865   4.444  13.045  0.3053  1.1666  1.1708
15929TIP3    H269203   5.719   4.408  13.063  0.4631 -0.5563 -0.6419
15930TIP3   OH269204   0.242   3.355   3.135  0.2339 -0.1767  0.4527
15930TIP3    H169205   0.154   3.367   3.100 -0.0006 -1.5915  0.5235
15930TIP3    H269206   0.246   3.416   3.209 -1.1102 -0.9332  1.1901
15931TIP3   OH269207   2.865   2.693  14.509  0.2927 -0.9493 -0.2134
15931TIP3    H169208   2.927   2.654  14.571  1.2259  0.3651 -0.2692
15931TIP3    H269209   2.854   2.627  14.442  0.5573 -1.7549  0.5142
15932TIP3   OH269210   0.109   0.749   5.387  0.2831  0.0153 -0.0252
15932TIP3    H169211   0.122   0.682   5.454 -0.7963  1.6241  1.8872
15932TIP3    H269212   0.021   0.783   5.403  1.1123  2.5157 -0.3067
15933TIP3   OH269213   1.234   3.467  14.081 -0.2684 -0.4344  0.1702
15933TIP3    H169214   1.313   3.450  14.030 -0.0288  0.3900  0.2479
15933TIP3    H269215   1.167   3.413  14.040  0.1416 -0.5136 -0.4098
15934TIP3   OH269216   0.402   4.587  14.591 -0.2761 -0.2274  0.0927
15934TIP3    H169217   0.331   4.587  14.527 -0.7361 -0.6446  0.5962
15934TIP3    H269218   0.480   4.565  14.540 -0.1372  2.2023 -0.8435
15935TIP3   OH269219   1.565   0.819  16.209  0.2012 -0.3667  0.1525
15935TIP3    H169220   1.596   0.823  16.118 -0.0625  0.4897  0.0918
15935TIP3    H269221   1.558   0.910  16.236 -1.5122 -0.5536  0.4215
15936TIP3   OH269222   0.335   0.883   1.392 -0.8312 -0.5156 -0.2693
15936TIP3    H169223   0.423   0.846   1.388 -1.0605 -0.9561 -2.1885
15936TIP3    H269224   0.278   0.815   1.356 -1.2967  1.4938 -3.8406
15937TIP3   OH269225   3.142   0.008   5.260  0.1179 -0.2140  0.0939
15937TIP3    H169226   3.214  -0.023   5.204  0.8028  0.7079  0.4445
15937TIP3    H269227   3.183   0.028   5.344 -0.8807 -1.4647  0.9216
15938TIP3   OH269228   0.459   2.302  11.816  0.1598 -0.2995 -1.1239
15938TIP3    H169229   0.429   2.370  11.756 -0.7581 -0.4693 -0.8682
15938TIP3    H269230   0.528   2.257  11.768  1.8535  1.7382 -0.7369
15939TIP3   OH269231   0.932   3.085   3.090 -0.3435 -0.0740 -0.4280
15939TIP3    H169232   0.989   3.028   3.140 -0.0814  0.4215 -0.1564
15939TIP3    H269233   0.965   3.173   3.106 -0.5261  0.1311 -1.1187
15940TIP3   OH269234   5.655   0.731   0.339 -0.0567  0.0599 -0.0862
15940TIP3    H169235   5.667   0.638   0.319 -0.3157 -0.4596  1.9738
15940TIP3    H269236   5.678   0.776   0.257  1.3714 -1.7240 -0.7461
15941TIP3   OH269237   5.546   1.228   1.763  0.0219 -0.4643 -0.4642
15941TIP3    H169238   5.483   1.253   1.695  0.8233  1.3176 -0.5905
15941TIP3    H269239   5.613   1.296   1.760 -0.1709 -0.0309  2.4409
15942TIP3   OH269240   1.422   0.035   4.506  0.9004 -0.2297  0.4081
15942TIP3    H169241   1.439   0.092   4.430 -0.4622 -0.2164  0.0921
15942TIP3    H269242   1.389  -0.046   4.468  0.2110 -0.2233  0.9748
15943TIP3   OH269243   0.199   1.821   2.665 -0.1186 -0.4414  0.2689
15943TIP3    H169244   0.178   1.879   2.738 -0.4038  1.0765 -0.9816
15943TIP3    H269245   0.293   1.805   2.673  0.1043  0.7704  0.2513
15944TIP3   OH269246   5.038   1.998   3.283 -0.2964  0.2566  0.1606
15944TIP3    H169247   5.004   1.935   3.219  1.8208 -1.8753  1.0053
15944TIP3    H269248   5.012   1.963   3.368 -1.6950  2.2078  0.6029
15945TIP3   OH269249   4.268   3.236  10.892  0.0824 -0.8912 -0.1642
15945TIP3    H169250   4.290   3.329  10.885  0.8638 -1.1755 -2.8830
15945TIP3    H269251   4.175   3.235  10.913 -0.1505  0.5474 -0.9853
15946TIP3   OH269252   1.167   2.778   0.811  0.0515  0.5965 -0.5668
15946TIP3    H169253   1.108   2.837   0.857 -0.0970 -0.7891  1.1220
15946TIP3    H269254   1.242   2.769   0.869  0.5970  0.0379 -1.3331
15947TIP3   OH269255   1.095   3.094  12.647 -0.5308 -0.0406  0.0915
15947TIP3    H169256   1.101   3.134  12.560 -0.5865  0.0712  0.1399
15947TIP3    H269257   1.012   3.124  12.682 -0.6163 -0.2714  0.0917
15948TIP3   OH269258   5.563   5.683   4.556 -0.2675 -0.1742 -1.2047
15948TIP3    H169259   5.492   5.624   4.533 -1.0482 -0.2145  1.0649
15948TIP3    H269260   5.608   5.700   4.473 -1.7013 -1.7161 -2.3653
15949TIP3   OH269261   0.379   0.583  11.798  0.1971 -0.3643 -0.0577
15949TIP3    H169262   0.428   0.662  11.778  0.3045 -1.0844 -3.1426
15949TIP3    H269263   0.443   0.512  11.791 -0.8010 -1.1239 -2.1892
15950TIP3   OH269264   2.313   4.897  16.794  0.6151 -0.2158 -0.1191
15950TIP3    H169265   2.264   4.980  16.789  1.3565  0.1641 -1.8748
15950TIP3    H269266   2.308   4.861  16.705  0.4906 -1.9774  0.5641
15951TIP3   OH269267   4.561   4.566  10.585 -0.4884  0.5016  0.2535
15951TIP3    H169268   4.496   4.507  10.622  0.1858  0.0835  0.8095
15951TIP3    H269269   4.511   4.627  10.531 -1.1349 -1.0207 -0.9331
15952TIP3   OH269270   5.659   5.615   1.469 -0.1608  0.4987 -0.0805
15952TIP3    H169271   5.637   5.618   1.375  1.1564 -0.4072 -0.4446
15952TIP3    H269272   5.669   5.707   1.494  0.9377  0.7225 -1.2235
15953TIP3   OH269273   4.542   4.715  16.223  0.2311  0.1871 -0.6696
15953TIP3    H169274   4.527   4.664  16.143  2.1855  0.5007 -1.2924
15953TIP3    H269275   4.546   4.806  16.193  2.1616  0.2137 -0.4437
15954TIP3   OH269276   1.955   4.628   4.759  1.2594  0.0101 -0.1992
15954TIP3    H169277   2.021   4.698   4.762 -0.6778  1.9417  1.5683
15954TIP3    H269278   1.973   4.575   4.836  1.0292  0.3167  0.0735
15955TIP3   OH269279   0.828   5.753  13.612  0.6802 -0.3121  0.3413
15955TIP3    H169280   0.794   5.747  13.523  0.2288 -1.1214  0.5635
15955TIP3    H269281   0.893   5.683  13.618 -0.1447 -1.0424  1.0089
15956TIP3   OH269282   0.176   2.932   2.391  0.0060 -0.2576 -0.1465
15956TIP3    H169283   0.250   2.887   2.351 -0.5155  0.2691 -1.8192
15956TIP3    H269284   0.189   3.025   2.370 -0.8209 -0.0880  0.0257
15957TIP3   OH269285   1.239   0.433  15.960 -0.2051  0.5721 -0.0058
15957TIP3    H169286   1.291   0.353  15.956 -0.6479  0.2490  0.5385
15957TIP3    H269287   1.169   0.413  16.022 -0.6724  1.1782 -0.3267
15958TIP3   OH269288   2.148   5.550   6.248 -0.2368  0.2078  0.1333
15958TIP3    H169289   2.076   5.612   6.259 -0.9630 -0.6701  0.4591
15958TIP3    H269290   2.158   5.510   6.334 -0.8944 -1.3101 -0.4581
15959TIP3   OH269291   4.131   1.503  10.687  0.2843 -0.2886 -0.3062
15959TIP3    H169292   4.176   1.441  10.745  0.5877 -0.3621 -0.6131
15959TIP3    H269293   4.046   1.463  10.670  0.6853 -0.9028 -0.9448
15960TIP3   OH269294   6.204   0.546   2.644 -0.5451  0.8327  0.0040
15960TIP3    H169295   6.199   0.506   2.731  0.0795 -0.4971 -0.5462
15960TIP3    H269296   6.139   0.616   2.646 -2.7394 -1.1185  0.5501
15961TIP3   OH269297   0.702   0.579  14.549 -0.8497 -0.0575 -0.1232
15961TIP3    H169298   0.739   0.576  14.460  0.8478  0.8747  0.5138
15961TIP3    H269299   0.710   0.670  14.575  1.0178 -0.6962  1.8951
15962TIP3   OH269300   3.933   2.415   6.389 -0.5978 -0.7881  0.0917
15962TIP3    H169301   4.013   2.462   6.414 -0.5469 -1.2835  0.8639
15962TIP3    H269302   3.877   2.483   6.350 -0.2081 -0.2386  0.4715
15963TIP3   OH269303   0.114   1.677  12.895 -0.3376  0.2918  0.2804
15963TIP3    H169304   0.021   1.652  12.896 -0.4670  0.7269  1.4595
15963TIP3    H269305   0.159   1.602  12.933 -0.4429  0.8171  1.4916
15964TIP3   OH269306   3.049   1.672   4.113  0.0644  0.1847  0.2540
15964TIP3    H169307   3.002   1.739   4.161 -1.5769 -1.3413  0.9139
15964TIP3    H269308   2.987   1.599   4.108  1.4781 -0.9918 -1.1055
15965TIP3   OH269309   6.741   4.343   3.428  0.4514  0.6343  0.8021
15965TIP3    H169310   6.694   4.264   3.456  1.5318 -0.1778  0.3893
15965TIP3    H269311   6.748   4.334   3.333 -0.5682  1.8958  0.5841
15966TIP3   OH269312   5.523   4.314  13.069 -0.0191 -0.2832 -0.6693
15966TIP3    H169313   5.470   4.236  13.051  2.2949 -1.7231 -1.7278
15966TIP3    H269314   5.472   4.363  13.133 -1.9148 -2.2922 -0.5057
15967TIP3   OH269315   6.096   3.169  12.416 -0.3639  0.0935  0.7646
15967TIP3    H169316   6.103   3.145  12.324 -0.8771  2.3545  0.0612
15967TIP3    H269317   6.187   3.184  12.444 -0.1659 -1.0905  0.8006
15968TIP3   OH269318   4.421   4.490   6.378 -0.1001  0.1264 -0.1802
15968TIP3    H169319   4.489   4.547   6.343 -0.9210  2.7448  2.1285
15968TIP3    H269320   4.435   4.491   6.473 -1.7651 -1.4299  0.1421
15969TIP3   OH269321   0.694   1.275   5.730 -0.1896  0.4874 -0.3545
15969TIP3    H169322   0.712   1.344   5.794 -1.4443 -0.9131  1.6187
15969TIP3    H269323   0.706   1.318   5.645  3.1390  2.0384  0.7001
15970TIP3   OH269324   1.485   3.422  11.332 -0.1940  0.7536  0.7537
15970TIP3    H169325   1.406   3.476  11.329 -1.0704 -0.5359 -0.2935
15970TIP3    H269326   1.522   3.428  11.244 -1.0627 -1.3860  0.1904
15971TIP3   OH269327   5.055   0.698   4.423  0.1605 -0.2855 -0.6878
15971TIP3    H169328   4.968   0.695   4.462  0.3903 -1.9871 -0.2402
15971TIP3    H269329   5.103   0.763   4.475 -0.6236  0.1665 -0.5182
15972TIP3   OH269330   4.897   3.390  13.833  1.1304  0.3881  0.6089
15972TIP3    H169331   4.879   3.298  13.814  0.4186  0.6658 -0.1183
15972TIP3    H269332   4.993   3.395  13.835  1.2624  0.0969 -1.8874
15973TIP3   OH269333   3.680   6.553   3.493  0.3220  0.0068  0.0944
15973TIP3    H169334   3.724   6.469   3.510  1.7642  0.4470 -1.2879
15973TIP3    H269335   3.741   6.601   3.438 -1.2216  1.3155 -0.5321
15974TIP3   OH269336   0.223   6.650  12.370 -0.2199 -0.5458 -0.1108
15974TIP3    H169337   0.260   6.565  12.396  0.7421 -0.1323 -0.0682
15974TIP3    H269338   0.184   6.634  12.284 -2.7500 -1.7417  1.1730
15975TIP3   OH269339   6.019   1.152   3.724  0.4055 -0.0859 -0.2523
15975TIP3    H169340   6.033   1.181   3.634  2.6306  0.2073  0.1277
15975TIP3    H269341   5.924   1.150   3.734  0.0590  3.5631 -1.4109
15976TIP3   OH269342   2.469   2.579   1.402 -0.0811 -0.1728  0.1329
15976TIP3    H169343   2.473   2.489   1.370  0.2674 -0.3786  0.7509
15976TIP3    H269344   2.499   2.575   1.492  2.7415  0.9385 -0.6299
15977TIP3   OH269345   4.236   5.121   3.603  0.1390 -0.0741  0.0122
15977TIP3    H169346   4.288   5.130   3.523  0.8589 -0.0577  0.4664
15977TIP3    H269347   4.232   5.210   3.639  1.6906 -0.4077  1.1143
15978TIP3   OH269348   3.386   5.020  14.608  0.3816 -0.3215 -0.7120
15978TIP3    H169349   3.474   5.039  14.575  1.0970  1.4284  1.9126
15978TIP3    H269350   3.395   4.937  14.653  0.6815 -0.1695 -0.4890
15979TIP3   OH269351   0.155   5.363   1.093 -0.5734  0.0394 -0.6897
15979TIP3    H169352   0.137   5.415   1.172 -0.9694  1.2796 -1.5619
15979TIP3    H269353   0.083   5.300   1.089 -0.7398  0.1975 -0.2376
15980TIP3   OH269354   0.176   4.634   1.005 -0.2839  0.0916  0.3075
15980TIP3    H169355   0.264   4.649   1.041  0.8493 -2.6085 -1.0647
15980TIP3    H269356   0.131   4.582   1.072 -0.2899  0.1485  0.3477
15981TIP3   OH269357   2.923   3.315  12.206  0.0504  0.7024  0.4364
15981TIP3    H169358   2.928   3.358  12.121 -0.2044 -1.4282 -0.7054
15981TIP3    H269359   2.843   3.350  12.245 -0.2324  1.1533 -0.5145
15982TIP3   OH269360   3.753   6.232   1.243 -0.1636 -0.1172  0.3243
15982TIP3    H169361   3.666   6.195   1.258  0.0393 -0.6203  0.2983
15982TIP3    H269362   3.792   6.174   1.177  0.4598 -0.3308  0.8737
15983TIP3   OH269363   0.015   2.488   1.098  0.6269  0.1173 -0.1209
15983TIP3    H169364  -0.065   2.471   1.148  0.9238  0.2890  0.4189
15983TIP3    H269365   0.038   2.578   1.118  0.3429  0.4425 -1.1623
15984TIP3   OH269366   4.385   1.242   1.889 -0.7855  0.2281 -0.3298
15984TIP3    H169367   4.300   1.198   1.902 -0.3729 -0.8128 -0.9457
15984TIP3    H269368   4.419   1.202   1.808  0.8151 -0.2408  0.5365
15985TIP3   OH269369   4.604   6.280  11.579 -0.5277  0.4421  0.2744
15985TIP3    H169370   4.574   6.305  11.491 -1.2078 -1.6130 -0.1328
15985TIP3    H269371   4.686   6.328  11.590 -0.0236  0.1814 -1.8044
15986TIP3   OH269372   5.636   4.223   5.700 -0.0582  0.1273 -0.1224
15986TIP3    H169373   5.701   4.158   5.728  0.4432  1.2735  1.5578
15986TIP3    H269374   5.689   4.295   5.665 -0.5327  0.2388 -0.6174
15987TIP3   OH269375   4.810   0.239  12.869  0.7601  0.0848 -0.1082
15987TIP3    H169376   4.755   0.314  12.847  2.2333  0.7964 -1.5217
15987TIP3    H269377   4.890   0.277  12.906  2.0225 -0.6812 -1.9284
15988TIP3   OH269378   4.465   4.560  13.768 -0.4076  0.1601  0.2326
15988TIP3    H169379   4.404   4.586  13.837  1.1080  0.6492  1.4376
15988TIP3    H269380   4.469   4.465  13.774 -0.1461  0.2164  0.9328
15989TIP3   OH269381   5.414   1.775   4.028  0.2610 -0.4799  0.0320
15989TIP3    H169382   5.502   1.739   4.021 -0.1538 -2.1462  2.3203
15989TIP3    H269383   5.374   1.726   4.099 -2.0746  1.1779 -0.0446
15990TIP3   OH269384   0.417   5.242  12.417  0.0861  0.3865  0.4002
15990TIP3    H169385   0.396   5.195  12.336  1.1457  1.7225 -0.7098
15990TIP3    H269386   0.370   5.195  12.485  0.3321 -1.6935 -0.7781
15991TIP3   OH269387   1.144   1.277   5.812  0.3587 -0.1812 -0.0448
15991TIP3    H169388   1.114   1.210   5.750 -0.3117  1.0717 -1.1335
15991TIP3    H269389   1.064   1.303   5.858  1.0216 -1.8887  2.2251
15992TIP3   OH269390   0.907   1.726  15.780 -0.0272  0.2508  0.4544
15992TIP3    H169391   1.000   1.730  15.800  0.2037 -1.9367  0.0901
15992TIP3    H269392   0.864   1.722  15.865  0.3641 -0.7190  0.6120
15993TIP3   OH269393   3.258   2.559   4.516  0.3192  0.2254  0.0807
15993TIP3    H169394   3.348   2.548   4.546  0.8124 -0.0010 -1.3991
15993TIP3    H269395   3.213   2.601   4.589  1.7964  1.0103  0.5727
15994TIP3   OH269396   5.343   2.274   5.329 -0.1334 -0.2952 -0.1922
15994TIP3    H169397   5.338   2.364   5.360  2.1968  0.1359 -0.8383
15994TIP3    H269398   5.346   2.281   5.233  0.4118 -1.0130 -0.2379
15995TIP3   OH269399   2.990   0.584   2.611  0.1019 -0.3454  0.2065
15995TIP3    H169400   3.058   0.529   2.572  0.3687  1.0946 -1.4774
15995TIP3    H269401   2.991   0.664   2.559 -2.2638  0.1074  0.7571
15996TIP3   OH269402   3.195   6.533   4.942 -0.1438 -0.1616  0.4721
15996TIP3    H169403   3.123   6.543   5.005  0.4880  0.7455  1.0777
15996TIP3    H269404   3.228   6.622   4.930  1.6910 -0.7141  1.2027
15997TIP3   OH269405   1.697   6.453   0.603  0.6903  0.1589  0.2534
15997TIP3    H169406   1.764   6.426   0.667 -0.1641 -0.1271  1.0487
15997TIP3    H269407   1.660   6.371   0.571  0.6796  0.3177 -0.1410
15998TIP3   OH269408   6.486   4.939  12.964  0.7696  0.8343  0.1971
15998TIP3    H169409   6.543   4.862  12.962 -0.3074  0.0379 -0.4532
15998TIP3    H269410   6.453   4.947  12.875 -0.4553  1.0404  0.6551
15999TIP3   OH269411   6.759   6.126   2.825  0.0648 -0.3628 -0.1675
15999TIP3    H169412   6.793   6.179   2.898 -0.8492 -0.0741  0.0616
15999TIP3    H269413   6.836   6.107   2.772  0.4852  0.8611 -0.0371
16000TIP3   OH269414   5.584   2.724   1.453  0.4816  0.1263  0.1202
16000TIP3    H169415   5.615   2.633   1.451  1.0327  0.2742  1.2097
16000TIP3    H269416   5.513   2.726   1.389  1.0509 -0.8519 -0.5846
16001TIP3   OH269417   5.759   6.596  12.051 -0.2943  0.2046  0.0622
16001TIP3    H169418   5.688   6.661  12.055  0.6891  1.2269  2.7079
16001TIP3    H269419   5.755   6.551  12.135  0.9595 -1.0965 -0.5408
16002TIP3   OH269420   6.357   2.458  15.624 -0.1180  0.1363 -0.3106
16002TIP3    H169421   6.267   2.464  15.592  0.0146  0.0375 -0.7136
16002TIP3    H269422   6.371   2.365  15.637  0.0354  0.1186 -0.5832
16003TIP3   OH269423   5.328   0.506   2.152  0.5477 -0.2233  0.0786
16003TIP3    H169424   5.371   0.475   2.072  0.5339 -1.0625  0.3873
16003TIP3    H269425   5.260   0.565   2.121  1.7168  0.8839 -0.4297
16004TIP3   OH269426   2.375   4.079   6.866 -0.6461 -0.2625  0.2067
16004TIP3    H169427   2.280   4.092   6.863 -0.5826  0.0621 -0.7102
16004TIP3    H269428   2.397   4.048   6.778  0.2195  0.5051  0.1399
16005TIP3   OH269429   5.056   1.348  14.516 -0.4224  0.6154 -0.1624
16005TIP3    H169430   4.989   1.298  14.468  0.2494  0.6206 -1.1312
16005TIP3    H269431   5.123   1.367  14.450 -0.4095  2.3388  0.3168
16006TIP3   OH269432   1.752   3.180  12.444  0.4992  0.7240 -0.0467
16006TIP3    H169433   1.844   3.158  12.460  0.3429  0.2252  0.2057
16006TIP3    H269434   1.725   3.229  12.521  0.0426 -0.7527  0.7620
16007TIP3   OH269435   3.572   0.290  15.949  0.2691  0.0095 -0.3223
16007TIP3    H169436   3.623   0.214  15.924  0.6403 -0.0455  0.5614
16007TIP3    H269437   3.587   0.354  15.879  0.8743 -0.3144 -0.4920
16008TIP3   OH269438   3.469   6.415  11.405 -0.4079  0.5268 -0.0202
16008TIP3    H169439   3.377   6.389  11.406 -1.0541  2.6446 -0.4615
16008TIP3    H269440   3.502   6.390  11.491 -0.5588 -2.8179 -0.7850
16009TIP3   OH269441   2.246   2.810   0.541 -0.1753 -0.2058 -0.2848
16009TIP3    H169442   2.279   2.889   0.499 -0.7808 -0.2036 -0.7681
16009TIP3    H269443   2.324   2.759   0.562  0.3112  1.0271  1.0956
16010TIP3   OH269444   4.032   0.753  14.651  0.5299  0.3128  0.5157
16010TIP3    H169445   4.120   0.719  14.667  1.0127  1.4921  0.5251
16010TIP3    H269446   3.999   0.775  14.739  0.5652  0.6572  0.4447
16011TIP3   OH269447   1.103   3.757   2.056 -0.6548 -0.0268 -0.3753
16011TIP3    H169448   1.094   3.759   1.960  1.7294  1.5860 -0.6402
16011TIP3    H269449   1.153   3.678   2.073 -2.0478 -0.9221 -0.3183
16012TIP3   OH269450   6.229   4.903  14.228  0.1662  0.4739  0.0056
16012TIP3    H169451   6.253   4.962  14.156  2.3397  0.3643  0.5745
16012TIP3    H269452   6.154   4.946  14.270  1.0643  2.3512 -0.1979
16013TIP3   OH269453   0.143   6.409   4.301 -0.1368  0.0036  0.3264
16013TIP3    H169454   0.085   6.481   4.322 -0.7087  0.7263 -3.0538
16013TIP3    H269455   0.085   6.334   4.287 -0.0331  0.0649 -0.5035
16014TIP3   OH269456   3.380   6.281  14.421  0.0028  0.2530 -0.3738
16014TIP3    H169457   3.473   6.303  14.416 -0.3161  1.4796 -1.2327
16014TIP3    H269458   3.335   6.364  14.409 -1.2265 -0.5519 -1.5369
16015TIP3   OH269459   5.321   5.759   2.948 -0.6642  0.0284  0.2182
16015TIP3    H169460   5.241   5.777   2.996  0.2512  0.9337  1.4445
16015TIP3    H269461   5.338   5.838   2.897 -0.6432 -0.2252 -0.1751
16016TIP3   OH269462   3.255   0.227  11.103 -0.7034  0.0943 -0.0786
16016TIP3    H169463   3.173   0.179  11.112 -1.1094  0.7247 -0.3425
16016TIP3    H269464   3.256   0.256  11.012  1.3339 -2.5897 -1.0438
16017TIP3   OH269465   3.321   2.537  16.734  0.6694 -0.2586  0.0025
16017TIP3    H169466   3.293   2.476  16.665  0.1548 -0.8921  0.7532
16017TIP3    H269467   3.277   2.619  16.712  0.7367 -0.3719 -0.5778
16018TIP3   OH269468   6.297   2.993  13.181 -0.1048 -0.4190 -0.1068
16018TIP3    H169469   6.234   2.921  13.173  0.9156 -1.4698  0.8362
16018TIP3    H269470   6.312   3.023  13.092 -1.0498 -0.9447 -0.4486
16019TIP3   OH269471   5.988   2.914   0.856  0.0298 -0.0232  0.1655
16019TIP3    H169472   6.070   2.932   0.900  0.0373  1.0295 -0.2547
16019TIP3    H269473   5.924   2.905   0.926  0.0927  1.3450  0.4244
16020TIP3   OH269474   0.966   5.656   5.733 -0.1029  0.5105 -0.1115
16020TIP3    H169475   0.961   5.683   5.825  1.5866  0.7291 -0.0426
16020TIP3    H269476   1.045   5.602   5.729  0.8872  1.9559 -1.7514
16021TIP3   OH269477   2.052   0.701   1.375  0.0929 -0.2426 -0.3738
16021TIP3    H169478   2.137   0.667   1.347 -0.3728 -0.3830 -1.6723
16021TIP3    H269479   2.067   0.731   1.465  1.8682  1.0249 -1.0480
16022TIP3   OH269480   1.114   0.665  17.102 -0.7982  0.0255 -0.1904
16022TIP3    H169481   1.059   0.694  17.029 -1.9613 -2.7891 -0.5576
16022TIP3    H269482   1.178   0.607  17.062 -2.3296 -2.6986  1.0591
16023TIP3   OH269483   3.867   2.894  15.531  0.3512  0.3884  0.0163
16023TIP3    H169484   3.773   2.877  15.535  0.5856 -1.2646 -0.5900
16023TIP3    H269485   3.894   2.859  15.446  2.0070 -2.0490  1.4165
16024TIP3   OH269486   5.779   3.770   0.413 -0.1156  0.2520 -0.2340
16024TIP3    H169487   5.763   3.846   0.356 -0.6072 -0.4104 -1.0025
16024TIP3    H269488   5.855   3.795   0.465  0.2230  0.9704 -1.0400
16025TIP3   OH269489   5.282   0.620  15.841 -0.9489  0.2247  0.0309
16025TIP3    H169490   5.352   0.683  15.858 -1.7654  1.6984 -1.7477
16025TIP3    H269491   5.224   0.629  15.917  0.2878 -0.3712  1.0846
16026TIP3   OH269492   5.354   0.181   4.107  0.4149 -0.3705 -0.4962
16026TIP3    H169493   5.346   0.120   4.180  3.6467  0.3595  0.6399
16026TIP3    H269494   5.368   0.266   4.148  1.1032  0.2815 -1.9979
16027TIP3   OH269495   0.319   5.324   2.938  0.2694 -0.2891 -0.3046
16027TIP3    H169496   0.273   5.242   2.957  0.2816  0.0059  1.0524
16027TIP3    H269497   0.249   5.388   2.922  0.1747  0.0842  1.4430
16028TIP3   OH269498   6.491   6.140   4.497  0.4116  0.0409  0.5136
16028TIP3    H169499   6.468   6.130   4.404  0.4104  2.1142  0.2566
16028TIP3    H269500   6.564   6.079   4.510 -0.7071 -1.5644 -0.3814
16029TIP3   OH269501   1.823   1.364   5.545  0.0254 -0.4517  0.1851
16029TIP3    H169502   1.874   1.329   5.619 -3.1470 -0.7512  2.4435
16029TIP3    H269503   1.838   1.458   5.548  2.1421 -0.6984 -0.6911
16030TIP3   OH269504   0.570   3.707   6.631  0.1069  0.3771 -0.0355
16030TIP3    H169505   0.613   3.793   6.624  0.3244  0.1525 -1.7636
16030TIP3    H269506   0.583   3.666   6.546  0.3102 -1.5439  0.8543
16031TIP3   OH269507   3.928   5.405  11.406  0.1312 -0.0394  0.2104
16031TIP3    H169508   3.885   5.431  11.325 -0.8329 -0.2023  0.6516
16031TIP3    H269509   3.858   5.367  11.459  0.6882  0.3249  1.2301
16032TIP3   OH269510   2.598   3.489  16.270 -0.0739 -0.2841  0.1170
16032TIP3    H169511   2.660   3.452  16.207  0.4850 -1.2124  1.1800
16032TIP3    H269512   2.601   3.430  16.345  0.5780  1.6602  1.7397
16033TIP3   OH269513   2.079   1.473  15.189 -0.3704  0.1692  0.4758
16033TIP3    H169514   2.117   1.529  15.257  0.0788  1.0210 -0.4311
16033TIP3    H269515   1.985   1.476  15.205 -0.5206  2.4982 -0.4416
16034TIP3   OH269516   4.047   0.119  11.415 -0.0646  0.5791  0.2406
16034TIP3    H169517   3.993   0.049  11.380  1.3784 -0.1130 -0.7206
16034TIP3    H269518   4.029   0.194  11.357  0.4669  0.1657 -0.4700
16035TIP3   OH269519   1.101   4.669  17.195 -0.6031  0.2105 -0.1008
16035TIP3    H169520   1.039   4.597  17.194  0.3312 -0.6637  1.4302
16035TIP3    H269521   1.108   4.694  17.287  1.0459  0.5049 -0.2716
16036TIP3   OH269522   4.225   2.468  16.010  0.3007 -0.2564  0.1303
16036TIP3    H169523   4.244   2.470  16.104  1.2522 -2.3170  0.0440
16036TIP3    H269524   4.311   2.458  15.969 -0.2529 -1.1815 -0.8433
16037TIP3   OH269525   3.342   2.420   3.294  0.5469 -0.2805 -0.1334
16037TIP3    H169526   3.299   2.385   3.372  1.2290 -0.2643  0.2642
16037TIP3    H269527   3.433   2.390   3.301  0.2426 -1.7584 -1.8359
16038TIP3   OH269528   1.444   3.576  17.113 -0.5357  0.1608  0.0578
16038TIP3    H169529   1.436   3.545  17.203  0.6617  1.5733  0.6909
16038TIP3    H269530   1.366   3.629  17.099 -1.2193 -0.8623 -0.0965
16039TIP3   OH269531   1.736   0.925   5.420  0.2381  0.2101  0.0231
16039TIP3    H169532   1.831   0.916   5.406  0.2255  1.6824 -1.3140
16039TIP3    H269533   1.717   1.017   5.400 -1.5550 -0.1786 -0.2567
16040TIP3   OH269534   1.975   1.034   4.092 -0.0118 -0.3178 -0.2739
16040TIP3    H169535   2.055   1.042   4.144 -0.0792 -0.2923 -0.1737
16040TIP3    H269536   1.912   1.091   4.135 -0.8951 -2.2802  1.2111
16041TIP3   OH269537   1.837   6.000   4.568 -0.0772  0.2317  0.8668
16041TIP3    H169538   1.805   6.089   4.558  0.8992  0.6095  0.9776
16041TIP3    H269539   1.896   6.004   4.643  2.7156  0.3125 -1.1699
16042TIP3   OH269540   3.359   1.533  16.941 -0.1110  0.2909 -0.0097
16042TIP3    H169541   3.415   1.491  16.876  0.2832  0.7998  0.0010
16042TIP3    H269542   3.414   1.601  16.980 -1.0068  1.4062 -0.6287
16043TIP3   OH269543   3.983   0.339  11.256 -0.0862 -0.3743 -0.0312
16043TIP3    H169544   4.038   0.378  11.188  0.9515 -2.0631 -0.2216
16043TIP3    H269545   3.896   0.378  11.241  0.7453  1.4057 -0.5127
16044TIP3   OH269546   3.210   1.558   3.047  0.0188 -0.4484  0.4195
16044TIP3    H169547   3.291   1.601   3.074 -0.1393  0.3569 -0.3540
16044TIP3    H269548   3.238   1.474   3.010  0.4140 -0.5727  0.9906
16045TIP3   OH269549   5.701   2.902  13.841  0.4591 -0.0948 -0.2043
16045TIP3    H169550   5.724   2.817  13.802 -0.1275 -1.1474  1.5992
16045TIP3    H269551   5.610   2.915  13.816 -0.2187 -1.2292  1.4258
16046TIP3   OH269552   3.975   5.725   6.429  0.8860 -0.3862  0.6859
16046TIP3    H169553   3.903   5.663   6.415  1.4004 -1.0165  0.7863
16046TIP3    H269554   4.032   5.682   6.492  0.9654  0.4434  1.2030
16047TIP3   OH269555   3.512   5.181  16.756 -0.2324 -0.0576 -0.0336
16047TIP3    H169556   3.483   5.156  16.669  0.6537 -1.4215  0.0240
16047TIP3    H269557   3.527   5.275  16.750 -1.2663  0.0672 -1.0153
16048TIP3   OH269558   3.240   0.711   5.833 -0.1149 -0.3706 -0.3483
16048TIP3    H169559   3.200   0.630   5.863 -2.9804  0.9391 -0.3078
16048TIP3    H269560   3.293   0.741   5.907 -1.8306 -0.4786  0.9848
16049TIP3   OH269561   1.764   1.939  11.058  0.0455  0.0355 -0.3119
16049TIP3    H169562   1.746   2.025  11.020 -1.0031  0.9044  2.0282
16049TIP3    H269563   1.856   1.944  11.085  0.1286  0.2270 -0.6169
16050TIP3   OH269564   6.591   3.134  17.037 -0.1095 -0.2871 -0.3636
16050TIP3    H169565   6.627   3.222  17.049 -0.8407 -0.0038 -0.2009
16050TIP3    H269566   6.524   3.127  17.105  0.7580 -1.4220  0.4119
16051TIP3   OH269567   4.160   1.094  14.761 -0.6223  0.1524 -0.4872
16051TIP3    H169568   4.227   1.026  14.757  0.3475  0.7310  2.7709
16051TIP3    H269569   4.193   1.163  14.703  0.1131 -0.7571 -1.1760
16052TIP3   OH269570   5.604   5.695  17.174 -0.5157  1.0477  0.1404
16052TIP3    H169571   5.686   5.653  17.199 -0.6212  0.2266 -0.7976
16052TIP3    H269572   5.540   5.661  17.236 -0.4467  0.3893 -0.1319
16053TIP3   OH269573   5.548   4.684   3.088 -0.3722 -0.2284  0.4768
16053TIP3    H169574   5.565   4.739   3.164 -0.7910  1.8017 -0.8000
16053TIP3    H269575   5.454   4.692   3.073 -0.4986 -1.5974  0.4551
16054TIP3   OH269576   6.217   2.199   1.418  0.1648 -0.2474 -0.9514
16054TIP3    H169577   6.175   2.192   1.332  1.5641 -0.7965 -1.6223
16054TIP3    H269578   6.270   2.278   1.413 -1.3564  0.9241  0.1899
16055TIP3   OH269579   4.056   6.493  15.127  0.2599 -0.3884  0.0244
16055TIP3    H169580   4.125   6.530  15.071 -0.3273  0.6998 -0.0152
16055TIP3    H269581   3.975   6.534  15.095  0.0889  1.8215  2.8776
16056TIP3   OH269582   2.593   3.328   2.786 -0.4239 -0.2157  0.1715
16056TIP3    H169583   2.677   3.350   2.746 -0.6538 -0.7100 -0.5931
16056TIP3    H269584   2.591   3.380   2.866 -0.4141  1.6027 -0.9595
16057TIP3   OH269585   0.885   6.675  16.284 -0.0554 -0.5535  0.7980
16057TIP3    H169586   0.956   6.658  16.345 -0.0662 -0.8733  0.7247
16057TIP3    H269587   0.811   6.625  16.319 -0.1877 -0.3812  0.7675
16058TIP3   OH269588   5.053   4.547   0.148  0.3625  0.0603  0.2622
16058TIP3    H169589   5.060   4.568   0.055 -0.6871  1.1225  0.3952
16058TIP3    H269590   4.983   4.482   0.153  0.2497  0.1860  0.3312
16059TIP3   OH269591   4.347   6.711  14.213 -0.3922 -0.3731  0.5715
16059TIP3    H169592   4.360   6.759  14.295  1.3251 -0.1399  0.1897
16059TIP3    H269593   4.397   6.630  14.224  0.3940 -0.0431 -0.4887
16060TIP3   OH269594   4.657   2.688   1.776 -0.2207 -0.0454 -0.4777
16060TIP3    H169595   4.702   2.728   1.850 -1.5728  0.1070  0.2999
16060TIP3    H269596   4.715   2.704   1.701  0.9988  0.1145  0.4689
16061TIP3   OH269597   0.097   2.586  16.906 -0.2497  0.7519  0.0551
16061TIP3    H169598   0.061   2.555  16.822  1.9798 -2.9771  0.2494
16061TIP3    H269599   0.176   2.634  16.881 -1.1146  2.1748 -0.0362
16062TIP3   OH269600   1.761   2.267   3.656 -0.3084  0.0353 -0.0561
16062TIP3    H169601   1.741   2.309   3.740 -0.4611 -0.4963  0.1714
16062TIP3    H269602   1.736   2.333   3.591  2.8025  1.8290  0.3278
16063TIP3   OH269603   5.411   4.059   2.417 -0.0731 -0.1018 -0.2623
16063TIP3    H169604   5.499   4.029   2.441 -0.4595  0.1797  1.6231
16063TIP3    H269605   5.357   4.036   2.492 -1.5706 -0.0131 -1.2842
16064TIP3   OH269606   1.108   6.146  14.369  0.8850  0.6391 -0.1675
16064TIP3    H169607   1.087   6.121  14.279 -1.7725 -5.0265  1.5350
16064TIP3    H269608   1.027   6.187  14.402  2.0314  3.2208 -0.3156
16065TIP3   OH269609   0.959   5.162  10.382  0.4717 -0.0054 -0.0461
16065TIP3    H169610   0.973   5.080  10.334  2.8041  0.9380 -1.1476
16065TIP3    H269611   0.907   5.217  10.322  1.0821  0.2047 -0.3934
16066TIP3   OH269612   5.391   2.115  12.677  0.1082 -0.3553 -0.8899
16066TIP3    H169613   5.355   2.046  12.621  0.1860 -1.4558  0.3981
16066TIP3    H269614   5.434   2.175  12.615 -1.4753 -0.4929 -2.1970
16067TIP3   OH269615   2.959   0.261  16.254 -0.1818  0.4755  0.0342
16067TIP3    H169616   2.987   0.295  16.169  2.7032 -0.3266  0.5512
16067TIP3    H269617   2.965   0.336  16.313 -1.1876  0.7878 -0.2412
16068TIP3   OH269618   5.046   5.320  16.970 -0.3550 -0.0460  0.7503
16068TIP3    H169619   5.051   5.409  16.936  0.1004 -0.5576 -0.6012
16068TIP3    H269620   5.136   5.288  16.969 -0.6790 -1.0196 -0.2533
16069TIP3   OH269621   1.068   1.031   2.136  0.1127  0.3000 -0.0041
16069TIP3    H169622   1.005   1.091   2.176 -0.7753 -1.2441  1.0277
16069TIP3    H269623   1.024   0.946   2.139 -0.2883  0.0769 -4.8074
16070TIP3   OH269624   0.187   2.817  16.617 -0.4325 -0.0085 -0.5124
16070TIP3    H169625   0.239   2.887  16.577 -0.4217  0.5557  0.4621
16070TIP3    H269626   0.233   2.796  16.698 -1.0185 -0.4090 -0.2808
16071TIP3   OH269627   1.042   3.038   1.405  0.5029  0.0360  0.2700
16071TIP3    H169628   0.965   2.982   1.418 -2.8858  3.9342 -0.9002
16071TIP3    H269629   1.024   3.086   1.324  3.5388  2.2188  0.6828
16072TIP3   OH269630   3.465   0.242   2.186  0.5791  0.1364 -0.6111
16072TIP3    H169631   3.431   0.156   2.209  0.2679  0.1176 -1.1234
16072TIP3    H269632   3.472   0.240   2.091  0.9977  0.5206 -0.5907
16073TIP3   OH269633   2.240   5.217  15.561 -0.7594  0.3103  0.6476
16073TIP3    H169634   2.200   5.286  15.507  0.0872  0.6279  0.4042
16073TIP3    H269635   2.261   5.147  15.499 -0.4490  0.3720  0.6829
16074TIP3   OH269636   1.048   5.567   2.604  0.0421  0.1217  0.2479
16074TIP3    H169637   1.068   5.569   2.511 -0.8493  0.4471  0.0521
16074TIP3    H269638   0.970   5.512   2.611 -0.1156  0.4014  0.7553
16075TIP3   OH269639   1.952   1.000   5.024  0.3931 -0.0940  0.3072
16075TIP3    H169640   1.924   0.969   5.110 -0.1533 -2.3668 -0.6144
16075TIP3    H269641   1.890   1.070   5.002 -0.1220 -0.2242  1.3087
16076TIP3   OH269642   2.710   5.486  13.884  0.0170  0.0089 -0.3266
16076TIP3    H169643   2.674   5.458  13.800  0.1811 -1.1497 -0.0319
16076TIP3    H269644   2.735   5.404  13.927  1.5608  0.6771  0.1129
16077TIP3   OH269645   4.647   0.532   1.533  0.4056  0.0005 -0.3472
16077TIP3    H169646   4.572   0.564   1.582 -2.3514 -4.1463 -1.3519
16077TIP3    H269647   4.640   0.575   1.447 -0.9800 -0.4344 -0.4757
16078TIP3   OH269648   1.371   6.039  14.053  1.1660  0.5368 -0.5037
16078TIP3    H169649   1.276   6.033  14.054  1.2550 -1.7651  0.4425
16078TIP3    H269650   1.397   5.982  13.980  1.8335  1.2676 -0.8510
16079TIP3   OH269651   0.255   2.194   0.415  0.4879 -0.0239 -0.5126
16079TIP3    H169652   0.178   2.138   0.407  0.3786 -0.9354  4.0564
16079TIP3    H269653   0.263   2.237   0.330 -3.8040 -1.4202 -1.8712
16080TIP3   OH269654   3.029   2.483  12.918 -0.4595 -0.4003 -0.2145
16080TIP3    H169655   2.939   2.500  12.889  0.1435  2.1195 -0.8375
16080TIP3    H269656   3.076   2.460  12.838  0.1073  1.5337 -0.4849
16081TIP3   OH269657   5.664   5.370  12.207  0.0983 -0.1363 -0.5678
16081TIP3    H169658   5.731   5.316  12.248  1.6676  1.4651 -0.8951
16081TIP3    H269659   5.648   5.329  12.123 -1.3376 -2.0390  0.5585
16082TIP3   OH269660   5.709   5.998   3.702  0.1261  0.3333  0.1601
16082TIP3    H169661   5.658   5.917   3.692  0.2062  0.3304 -0.2510
16082TIP3    H269662   5.773   5.978   3.769  1.5026 -0.6461 -1.3553
16083TIP3   OH269663   4.879   6.272   3.860  0.8714  0.4818  0.0841
16083TIP3    H169664   4.971   6.249   3.875  0.8273 -2.5847 -3.1089
16083TIP3    H269665   4.881   6.337   3.791  0.7223 -1.3809 -1.7717
16084TIP3   OH269666   4.920   3.137  14.768  0.3782  0.5248 -0.1899
16084TIP3    H169667   4.849   3.193  14.799  1.1652  0.9270  0.9723
16084TIP3    H269668   4.907   3.054  14.813 -2.0002 -1.1147 -3.4409
16085TIP3   OH269669   4.372   2.215  12.848 -0.0965 -0.0240 -0.2527
16085TIP3    H169670   4.358   2.154  12.921 -0.4741  0.9624  0.5267
16085TIP3    H269671   4.348   2.301  12.884 -0.5757  0.4424 -1.6407
16086TIP3   OH269672   3.384   0.738  15.614  0.1706  0.3791 -0.2387
16086TIP3    H169673   3.446   0.685  15.564  0.6770  1.6224 -0.9872
16086TIP3    H269674   3.319   0.676  15.645  1.7238 -0.9553  0.4890
16087TIP3   OH269675   6.712   4.284   1.387  0.0760 -0.3933 -0.1783
16087TIP3    H169676   6.626   4.317   1.413 -1.7279 -2.5289 -2.8319
16087TIP3    H269677   6.748   4.353   1.331 -0.9395 -0.3748 -0.8300
16088TIP3   OH269678   4.633   4.340   1.016  0.6119 -0.4390  0.3534
16088TIP3    H169679   4.597   4.338   0.927 -0.8247  2.8928  0.6910
16088TIP3    H269680   4.728   4.348   1.003  0.5909 -1.7141 -0.7999
16089TIP3   OH269681   3.615   1.273   3.788 -0.1309 -0.3395  0.7913
16089TIP3    H169682   3.618   1.317   3.703 -2.4504 -0.9280  0.3416
16089TIP3    H269683   3.522   1.272   3.811  0.2140 -2.1754  2.2861
16090TIP3   OH269684   1.329   2.448   0.199 -0.8455 -0.1894  0.4417
16090TIP3    H169685   1.261   2.387   0.168 -1.5060  0.8656 -0.2374
16090TIP3    H269686   1.298   2.534   0.173 -0.0806  0.4948  1.6772
16091TIP3   OH269687   2.105   2.481   0.330  0.0225 -0.3542  0.4751
16091TIP3    H169688   2.058   2.412   0.285  1.6762 -0.0834 -1.8727
16091TIP3    H269689   2.037   2.531   0.375 -1.7791 -0.8163 -1.5392
16092TIP3   OH269690   3.309   1.134  14.486 -0.0749 -0.9055  0.4543
16092TIP3    H169691   3.275   1.047  14.467  0.3137 -1.1361  0.8102
16092TIP3    H269692   3.231   1.187  14.503 -0.2256 -1.6850  2.3854
16093TIP3   OH269693   0.889   0.272   4.617 -0.0168  0.2296 -0.2561
16093TIP3    H169694   0.884   0.224   4.699  1.0932 -1.3435 -1.0552
16093TIP3    H269695   0.817   0.236   4.564  0.5136 -0.2401 -0.6774
16094TIP3   OH269696   1.242   0.256   2.119 -0.1013  0.1874  0.2365
16094TIP3    H169697   1.256   0.306   2.039 -2.3710 -2.2098 -1.8787
16094TIP3    H269698   1.330   0.243   2.155  1.2182  0.0678 -2.7467
16095TIP3   OH269699   0.788   6.212  15.361 -0.0686  0.0821  0.3429
16095TIP3    H169700   0.829   6.190  15.277  0.6305  0.6617  0.5167
16095TIP3    H269701   0.773   6.306  15.356  0.8899  0.2969  1.2439
16096TIP3   OH269702   4.826   4.959  16.801 -0.6677  0.1357 -0.3473
16096TIP3    H169703   4.764   4.950  16.729 -1.0735  0.9470 -0.1060
16096TIP3    H269704   4.860   5.048  16.793  0.1946 -0.1720 -0.2522
16097TIP3   OH269705   6.645   6.332   3.456  0.3219  0.3112 -0.5288
16097TIP3    H169706   6.563   6.313   3.411 -0.4172 -0.5768  1.1035
16097TIP3    H269707   6.618   6.379   3.535  0.9290 -3.1737  1.9453
16098TIP3   OH269708   5.659   2.370  11.816  0.4453  0.3195  0.3860
16098TIP3    H169709   5.701   2.434  11.759 -0.2707  0.6217  0.1768
16098TIP3    H269710   5.607   2.316  11.757  2.4742 -1.6820  0.3190
16099TIP3   OH269711   2.593   5.133  14.241 -0.0101  0.0997 -0.1618
16099TIP3    H169712   2.619   5.179  14.321 -3.7898 -1.4352  2.2505
16099TIP3    H269713   2.628   5.045  14.251 -0.7803 -0.1948  0.0348
16100TIP3   OH269714   3.924   6.526   5.167  0.6475 -0.1536 -0.2307
16100TIP3    H169715   3.993   6.461   5.153  0.7880 -0.0960  0.1786
16100TIP3    H269716   3.962   6.588   5.229 -0.2927 -0.9460  1.1994
16101TIP3   OH269717   5.828   2.445   4.456  0.2019  0.2338 -0.6227
16101TIP3    H169718   5.767   2.471   4.387 -0.2528 -1.5806 -0.9524
16101TIP3    H269719   5.874   2.369   4.420  1.1107  0.2398  0.4616
16102TIP3   OH269720   2.965   6.695   0.501  0.1710 -0.0611  0.1245
16102TIP3    H169721   2.876   6.707   0.535 -0.1315 -3.3609  0.7978
16102TIP3    H269722   3.020   6.689   0.579  0.8095  0.5883 -0.2590
16103TIP3   OH269723   0.886   0.027  12.961 -0.2598 -0.5626 -0.3597
16103TIP3    H169724   0.866  -0.061  12.928 -0.7966  0.1054 -1.8552
16103TIP3    H269725   0.809   0.050  13.014  0.4926 -1.5248  1.2519
16104TIP3   OH269726   6.393   2.327  12.506 -0.3988 -0.3636  0.2037
16104TIP3    H169727   6.473   2.378  12.496 -0.5674 -0.0346  0.5534
16104TIP3    H269728   6.347   2.367  12.579 -1.6806  0.4923 -1.0240
16105TIP3   OH269729   1.229   5.562   6.052 -0.3337  0.1912  0.0254
16105TIP3    H169730   1.204   5.603   6.135 -0.9868 -2.3044  1.1590
16105TIP3    H269731   1.294   5.496   6.077  0.7282  0.5133 -1.7104
16106TIP3   OH269732   1.284   1.193  11.673 -0.4012 -0.5891  0.2486
16106TIP3    H169733   1.321   1.176  11.586 -0.7345 -0.8568  0.1601
16106TIP3    H269734   1.340   1.263  11.709 -0.2348 -0.5079 -0.1607
16107TIP3   OH269735   0.466   4.888  15.920  0.3564 -0.4498  0.1878
16107TIP3    H169736   0.472   4.873  15.826 -1.3295 -0.6268  0.0808
16107TIP3    H269737   0.442   4.803  15.956  0.1868 -0.1936  0.6886
16108TIP3   OH269738   3.094   3.158  12.330  0.2536 -0.2057  0.4261
16108TIP3    H169739   3.052   3.209  12.260  0.2037 -0.3089  0.3802
16108TIP3    H269740   3.188   3.168  12.313  0.2948  1.0873  1.2881
16109TIP3   OH269741   4.585   3.056  10.728  0.4786  0.3483  0.5779
16109TIP3    H169742   4.672   3.094  10.715 -0.1791  1.7889  0.1431
16109TIP3    H269743   4.552   3.098  10.808 -0.3447  0.8924 -0.0237
16110TIP3   OH269744   0.436   1.043  15.018 -0.6694 -0.2769  0.2056
16110TIP3    H169745   0.397   0.976  15.074 -0.6659 -1.0913 -0.7425
16110TIP3    H269746   0.503   0.996  14.968  0.2237  0.7017  0.4383
16111TIP3   OH269747   5.411   6.061  11.856 -0.1424  0.1796 -0.0061
16111TIP3    H169748   5.498   6.088  11.826 -0.1267  0.3312  0.1770
16111TIP3    H269749   5.422   6.042  11.949 -0.4942  1.0499  0.2271
16112TIP3   OH269750   0.704   4.783  14.554 -0.5251  0.4224  0.0117
16112TIP3    H169751   0.636   4.750  14.612 -2.5375  0.0737 -2.3840
16112TIP3    H269752   0.784   4.739  14.583 -1.5745 -0.3150  1.9629
16113TIP3   OH269753   0.257   5.472  14.316  0.5189  0.0007 -0.4508
16113TIP3    H169754   0.329   5.483  14.378  0.5266  0.8494 -0.5984
16113TIP3    H269755   0.245   5.377  14.310  1.5901 -0.1584 -0.3794
16114TIP3   OH269756   3.846   4.592  16.442 -0.5961 -0.1509  0.1851
16114TIP3    H169757   3.912   4.597  16.511 -0.6236 -0.2033  0.2155
16114TIP3    H269758   3.765   4.569  16.489  0.0882 -4.1329 -0.2240
16115TIP3   OH269759   0.511   5.846  12.687  0.4709 -0.0068  0.0444
16115TIP3    H169760   0.447   5.786  12.724 -1.5085  2.0074  0.1459
16115TIP3    H269761   0.596   5.817  12.721 -0.2605 -3.1104 -0.5305
16116TIP3   OH269762   5.077   1.580   2.375  0.6341 -0.5333 -0.3603
16116TIP3    H169763   5.073   1.667   2.337  0.0167  0.7291  2.3406
16116TIP3    H269764   5.170   1.561   2.383  0.8184  0.6489  0.5534
16117TIP3   OH269765   4.358   3.510  12.064 -0.3934  0.6735  0.3038
16117TIP3    H169766   4.395   3.428  12.095 -0.6207  0.5574  0.2691
16117TIP3    H269767   4.264   3.501  12.079 -0.5526  0.4648 -0.7671
16118TIP3   OH269768   1.594   2.446   2.709  0.1916  0.3703 -0.3656
16118TIP3    H169769   1.625   2.457   2.619  1.5595  0.8420  0.1257
16118TIP3    H269770   1.606   2.352   2.727  1.2115  0.5130 -0.2482
16119TIP3   OH269771   1.266   2.128  12.162 -0.5499 -1.1976  0.5593
16119TIP3    H169772   1.285   2.208  12.114 -0.8279 -2.0327 -1.0379
16119TIP3    H269773   1.270   2.153  12.254 -1.6942  0.8813  0.1032
16120TIP3   OH269774   5.976   4.403  12.111 -0.7087  0.0522 -0.4975
16120TIP3    H169775   5.967   4.497  12.125 -1.5426 -0.1911  0.8201
16120TIP3    H269776   5.921   4.364  12.179  1.0730 -1.4264  0.1574
16121TIP3   OH269777   5.125   1.895   2.575 -0.6569 -0.3207  0.2374
16121TIP3    H169778   5.185   1.958   2.534  1.0643 -2.2326 -0.3051
16121TIP3    H269779   5.060   1.950   2.618  1.2197  1.8721  0.4929
16122TIP3   OH269780   5.947   5.702   3.287 -0.0842  0.1986 -0.0374
16122TIP3    H169781   5.937   5.608   3.274  2.4338 -0.0045 -1.0998
16122TIP3    H269782   5.875   5.741   3.237  0.6930 -1.1188 -2.3121
16123TIP3   OH269783   1.485   1.967  12.151  0.1876  0.2731  0.7559
16123TIP3    H169784   1.555   2.025  12.181  0.6462 -0.6685  1.5481
16123TIP3    H269785   1.407   2.021  12.152  0.7552  1.1061  0.6874
16124TIP3   OH269786   3.218   0.847   1.250  0.4247 -0.1248 -0.2886
16124TIP3    H169787   3.167   0.905   1.307  2.8565  3.0961 -1.1352
16124TIP3    H269788   3.183   0.861   1.163  0.8991 -0.0423 -0.4716
16125TIP3   OH269789   0.023   1.374   6.262  0.2522  0.3281  0.1133
16125TIP3    H169790   0.016   1.357   6.356 -0.1894 -0.2399 -0.0237
16125TIP3    H269791   0.117   1.386   6.247  0.3438  0.2240  0.5893
16126TIP3   OH269792   4.392   4.369   5.890  0.2773 -0.2074  0.4810
16126TIP3    H169793   4.333   4.438   5.920  0.8099  0.8728 -0.8584
16126TIP3    H269794   4.472   4.381   5.940  0.5930  0.5690 -0.1873
16127TIP3   OH269795   4.281   1.802   0.776  0.0689 -0.0332 -0.1158
16127TIP3    H169796   4.343   1.870   0.752  0.0338 -0.3459 -1.1416
16127TIP3    H269797   4.322   1.757   0.850  0.9366 -0.0621 -0.6046
16128TIP3   OH269798   2.680   5.169   6.357  0.4551 -0.9730 -0.2395
16128TIP3    H169799   2.729   5.225   6.417 -0.7370  0.7194 -0.7616
16128TIP3    H269800   2.616   5.125   6.413  0.4243 -0.6631 -0.0237
16129TIP3   OH269801   5.568   1.855  16.059  0.2376 -0.2192  0.2015
16129TIP3    H169802   5.535   1.937  16.022 -1.1811 -0.4226  0.9539
16129TIP3    H269803   5.504   1.790  16.033  1.4306 -1.1474 -0.5081
16130TIP3   OH269804   3.722   4.757   0.842 -0.1220 -0.0096  0.0567
16130TIP3    H169805   3.636   4.728   0.813 -0.5065  0.7344  0.4159
16130TIP3    H269806   3.770   4.773   0.761  0.8907 -3.6830 -0.2197
16131TIP3   OH269807   4.760   5.873   3.781  0.1440  0.3156  0.1917
16131TIP3    H169808   4.681   5.844   3.828 -0.4084  0.5697 -0.5553
16131TIP3    H269809   4.734   5.874   3.689  1.6190 -1.4850 -0.3046
16132TIP3   OH269810   4.579   6.033  11.720 -0.4867  0.1520 -0.1401
16132TIP3    H169811   4.561   6.126  11.708 -0.1186  0.3027  0.4283
16132TIP3    H269812   4.555   5.992  11.637 -1.8096  0.5767  0.0105
16133TIP3   OH269813   4.391   6.629   0.222  0.0768  0.5214  0.3460
16133TIP3    H169814   4.329   6.702   0.222  0.0165  0.7429 -4.1272
16133TIP3    H269815   4.464   6.660   0.170  2.0713 -1.2415  1.9169
16134TIP3   OH269816   2.863   5.566  10.707  0.1250 -0.1397  0.3074
16134TIP3    H169817   2.769   5.549  10.717  0.0195 -0.5225 -1.0794
16134TIP3    H269818   2.905   5.498  10.761 -0.3842 -0.7093  0.0025
16135TIP3   OH269819   2.933   0.100   3.938  0.0811  0.1947  0.2480
16135TIP3    H169820   2.849   0.135   3.908  0.7532  1.6642 -0.0028
16135TIP3    H269821   2.998   0.140   3.880  0.9183 -1.4568 -0.0126
16136TIP3   OH269822   5.512   5.121   4.205  0.4237 -0.2667  0.6322
16136TIP3    H169823   5.596   5.081   4.183 -0.0623 -1.1317  0.3366
16136TIP3    H269824   5.451   5.048   4.212  0.1497  0.1255  3.0745
16137TIP3   OH269825   5.231   1.669  14.391 -0.2765 -0.2115 -0.2287
16137TIP3    H169826   5.166   1.611  14.352  1.2579 -1.7305 -0.6622
16137TIP3    H269827   5.262   1.722  14.318  1.5855 -2.0903 -0.9260
16138TIP3   OH269828   0.412   0.649  15.995 -0.4159  0.3953  0.5637
16138TIP3    H169829   0.355   0.709  16.044  2.3480  4.4344 -0.6569
16138TIP3    H269830   0.486   0.633  16.053 -0.5467 -0.9383  0.3948
16139TIP3   OH269831   5.962   3.101   6.223  0.0185 -0.1424 -0.4979
16139TIP3    H169832   6.026   3.171   6.206 -0.0673  0.1699  0.4167
16139TIP3    H269833   5.899   3.140   6.283 -0.7106 -0.6418 -0.9205
16140TIP3   OH269834   5.468   5.128   2.343  0.8492 -0.0869  0.5033
16140TIP3    H169835   5.474   5.137   2.438  0.9978 -1.7014  0.6716
16140TIP3    H269836   5.410   5.053   2.329 -1.1069  1.5517 -0.7539
16141TIP3   OH269837   4.718   5.343  15.957  0.1005 -0.0281  0.4436
16141TIP3    H169838   4.626   5.319  15.948 -0.0847  1.3021 -2.5527
16141TIP3    H269839   4.718   5.439  15.951  1.6219  0.0622  1.3912
16142TIP3   OH269840   3.289   6.475  12.906 -0.5119  0.4189  0.2261
16142TIP3    H169841   3.304   6.552  12.853 -0.2143  0.1943 -0.0179
16142TIP3    H269842   3.375   6.452  12.941 -0.5772  0.1265  0.2011
16143TIP3   OH269843   1.934   0.766  13.510 -0.4174 -0.0298 -0.3948
16143TIP3    H169844   1.974   0.792  13.426 -0.0322  0.4009 -0.0823
16143TIP3    H269845   2.003   0.719  13.556  0.1745  1.8288  0.6885
16144TIP3   OH269846   5.397   2.233  17.140 -0.4899 -0.0014  0.3231
16144TIP3    H169847   5.389   2.137  17.146  0.4024  0.0082  2.6273
16144TIP3    H269848   5.487   2.251  17.166 -0.0472  1.4030 -1.9425
16145TIP3   OH269849   0.739   6.082  16.593  0.0015  0.3761  0.1673
16145TIP3    H169850   0.681   6.153  16.564 -0.6083 -0.1870 -0.0029
16145TIP3    H269851   0.822   6.101  16.550 -0.6196  0.0818 -1.2241
16146TIP3   OH269852   1.682   5.856   3.980  0.1412 -0.0154  0.0346
16146TIP3    H169853   1.638   5.909   4.047 -2.0355 -0.6491 -0.7905
16146TIP3    H269854   1.640   5.770   3.986 -0.7426  0.1293 -2.6026
16147TIP3   OH269855   1.301   6.345   6.509 -0.4575  0.2170 -0.1394
16147TIP3    H169856   1.246   6.369   6.435  0.3402  1.8108 -0.2584
16147TIP3    H269857   1.268   6.260   6.537 -0.9869 -0.2725 -2.1000
16148TIP3   OH269858   1.619   2.933  11.473  0.3185  0.4413 -0.4917
16148TIP3    H169859   1.595   2.871  11.542  0.2428  0.6658 -0.3193
16148TIP3    H269860   1.580   2.896  11.394  0.0162  0.4254 -0.3358
16149TIP3   OH269861   4.353   2.077   5.930 -0.3692  0.1125  0.1666
16149TIP3    H169862   4.311   2.141   5.988  1.1676  0.4949  0.9016
16149TIP3    H269863   4.447   2.093   5.940  0.0441 -1.9921  0.0672
16150TIP3   OH269864   4.444   2.885   2.482  1.0470 -0.0166 -0.4814
16150TIP3    H169865   4.445   2.789   2.487  2.1350  0.0375  1.2125
16150TIP3    H269866   4.365   2.911   2.529  0.1394 -0.0777 -1.9109
16151TIP3   OH269867   2.325   5.962  14.421 -0.1373 -0.3260 -0.4646
16151TIP3    H169868   2.259   5.992  14.483  1.0348 -1.0305  1.1736
16151TIP3    H269869   2.297   5.874  14.396  0.0027 -0.4858 -0.0506
16152TIP3   OH269870   5.267   1.079  12.411 -0.1143 -0.2638 -0.4347
16152TIP3    H169871   5.296   1.131  12.486  2.1697  0.2252 -1.5723
16152TIP3    H269872   5.232   1.143  12.349  0.0219 -0.4016 -0.6570
16153TIP3   OH269873   6.100   3.505  13.416 -0.1627  0.0861  0.1012
16153TIP3    H169874   6.093   3.410  13.418 -1.4494  0.1561  1.3610
16153TIP3    H269875   6.070   3.533  13.503  1.8364  1.5700  0.3815
16154TIP3   OH269876   0.458   1.237  15.396 -0.2876 -0.0719  0.0696
16154TIP3    H169877   0.486   1.323  15.428  1.0988  0.5502 -2.5662
16154TIP3    H269878   0.536   1.182  15.407  0.0403  0.0143 -1.5291
16155TIP3   OH269879   4.281   2.845   5.737  0.1517 -0.5664 -0.0337
16155TIP3    H169880   4.239   2.925   5.767 -0.9647 -1.3719  0.6441
16155TIP3    H269881   4.224   2.813   5.666 -0.6349 -1.8674  1.1409
16156TIP3   OH269882   6.632   3.784  13.119 -0.2733 -0.0033  0.3444
16156TIP3    H169883   6.563   3.726  13.152  0.3638 -0.1479  1.4609
16156TIP3    H269884   6.585   3.862  13.090 -1.0327 -0.6277 -0.1505
16157TIP3   OH269885   5.997   2.562   4.641  0.4974  0.4001 -0.6390
16157TIP3    H169886   5.925   2.603   4.688  0.3442 -0.2833 -0.2659
16157TIP3    H269887   5.956   2.517   4.568  0.6216  0.5468 -0.8018
16158TIP3   OH269888   1.089   5.741  11.029  0.1379 -0.7212  0.8444
16158TIP3    H169889   1.112   5.834  11.028  0.9446 -0.8522  2.7924
16158TIP3    H269890   1.141   5.703  10.958 -0.6936  0.3854 -0.4012
16159TIP3   OH269891   2.659   5.453   3.836 -0.7887  0.4467  0.3217
16159TIP3    H169892   2.696   5.467   3.749  2.1199  0.0518  1.3905
16159TIP3    H269893   2.677   5.535   3.882  0.3662 -0.3689  1.3776
16160TIP3   OH269894   4.608   4.279   1.785  0.1188 -0.1415  0.1242
16160TIP3    H169895   4.579   4.197   1.826 -1.7097  0.2371 -0.2956
16160TIP3    H269896   4.620   4.339   1.858 -0.4974 -0.2391  0.3176
16161TIP3   OH269897   3.068   2.145   0.676  0.2419 -0.1701 -0.1651
16161TIP3    H169898   3.053   2.077   0.611 -1.0438 -0.7973  0.7632
16161TIP3    H269899   3.043   2.106   0.759  1.8544  0.6177  0.7463
16162TIP3   OH269900   0.834   0.819   0.961  0.0863  0.7799  0.0013
16162TIP3    H169901   0.876   0.738   0.932  1.7369  0.9114  1.8644
16162TIP3    H269902   0.745   0.813   0.926  0.3074 -1.5893 -0.3420
16163TIP3   OH269903   4.452   0.613   1.754 -0.4967 -0.3845  0.3134
16163TIP3    H169904   4.489   0.647   1.835 -1.0532  1.4583 -0.1618
16163TIP3    H269905   4.377   0.561   1.782 -2.2650  2.2957  0.9630
16164TIP3   OH269906   6.382   6.207   5.846  0.2911  0.3466  0.3832
16164TIP3    H169907   6.465   6.236   5.809  0.7501 -0.7492  0.5189
16164TIP3    H269908   6.353   6.281   5.900 -0.1761  1.8112 -1.7297
16165TIP3   OH269909   4.359   2.599   3.396  0.5303  0.7249  0.7623
16165TIP3    H169910   4.304   2.593   3.474  0.5950 -0.7416  0.7163
16165TIP3    H269911   4.388   2.690   3.394 -0.6882  1.1526  1.6066
16166TIP3   OH269912   3.646   2.189  10.256 -0.0247  0.5467 -0.0485
16166TIP3    H169913   3.717   2.247  10.282  0.1502  0.9630 -1.3748
16166TIP3    H269914   3.591   2.242  10.198  1.0395 -1.0214 -2.6571
16167TIP3   OH269915   5.393   4.226   0.414 -0.2661  0.3802 -0.5310
16167TIP3    H169916   5.468   4.181   0.452 -0.8064 -0.1405 -0.0603
16167TIP3    H269917   5.346   4.263   0.489 -0.0099  1.4673 -0.8838
16168TIP3   OH269918   5.657   4.396  16.752  0.7430  0.3565  0.4731
16168TIP3    H169919   5.706   4.449  16.690  1.5477 -0.6200  0.2453
16168TIP3    H269920   5.565   4.412  16.730  1.0078  0.3967 -0.6539
16169TIP3   OH269921   2.997   1.509   1.799 -0.1195 -0.3053 -0.1868
16169TIP3    H169922   3.007   1.595   1.838  0.6697  0.4053 -1.8312
16169TIP3    H269923   3.070   1.458   1.834  0.2304  0.1401 -0.2486
16170TIP3   OH269924   3.286   5.511   0.280 -0.1141  0.0834 -1.0167
16170TIP3    H169925   3.298   5.416   0.283  1.7813  0.2185 -2.3243
16170TIP3    H269926   3.195   5.523   0.251 -0.1714 -1.3437 -1.4936
16171TIP3   OH269927   2.357   4.445  11.728  0.1064 -0.2604  0.2449
16171TIP3    H169928   2.418   4.451  11.801  0.5153 -0.0211 -0.1054
16171TIP3    H269929   2.365   4.529  11.683 -0.5892 -0.1736  0.2691
16172TIP3   OH269930   2.853   1.087  11.798 -0.3568 -0.4083  0.4948
16172TIP3    H169931   2.901   1.141  11.735 -0.1531 -1.1668 -0.0063
16172TIP3    H269932   2.781   1.144  11.827  0.6244  0.6144  0.9963
16173TIP3   OH269933   3.748   4.348   4.080 -0.1254 -0.3430  0.1405
16173TIP3    H169934   3.678   4.385   4.026  0.3984 -0.8239 -0.8967
16173TIP3    H269935   3.811   4.314   4.017  1.5778  1.0210  1.0287
16174TIP3   OH269936   0.082   1.845   3.669  0.7289 -0.4042 -0.2915
16174TIP3    H169937  -0.005   1.840   3.710  1.3256  1.2125  1.2981
16174TIP3    H269938   0.080   1.927   3.619  0.5752 -1.5447 -2.2156
16175TIP3   OH269939   5.270   0.870   4.864  0.1117  0.3553  0.0877
16175TIP3    H169940   5.261   0.794   4.806  0.3870  0.5858 -0.2654
16175TIP3    H269941   5.184   0.882   4.902 -0.6152  1.3362 -1.7218
16176TIP3   OH269942   1.587   2.415   3.503 -0.1763  0.0354 -0.4611
16176TIP3    H169943   1.632   2.448   3.425 -0.3785  0.9893 -0.1873
16176TIP3    H269944   1.501   2.387   3.471 -0.1823  0.2299 -0.6208
16177TIP3   OH269945   4.415   1.077  11.329 -0.5395 -0.8626 -0.2789
16177TIP3    H169946   4.322   1.093  11.349 -0.2115 -0.1888  0.8021
16177TIP3    H269947   4.430   1.125  11.247 -0.6749  0.7419  0.5948
16178TIP3   OH269948   2.412   2.219  14.849 -0.0375 -0.1844  0.4155
16178TIP3    H169949   2.377   2.298  14.892  0.6696  0.9456 -0.9833
16178TIP3    H269950   2.485   2.252  14.797  0.1102 -1.7559 -0.3968
16179TIP3   OH269951   6.055   4.420   3.145 -0.0107 -0.4681 -0.5052
16179TIP3    H169952   6.013   4.341   3.178 -1.7976  1.0196  1.0758
16179TIP3    H269953   6.050   4.413   3.050 -2.1313 -1.2824 -0.3933
16180TIP3   OH269954   3.501   4.576   1.170  0.5940  0.1775  0.4847
16180TIP3    H169955   3.516   4.657   1.218  2.5344  0.1501  0.0365
16180TIP3    H269956   3.519   4.599   1.079  0.0097 -0.4851  0.1970
16181TIP3   OH269957   0.935   4.458   3.555  0.4448 -0.3242 -0.8847
16181TIP3    H169958   0.989   4.537   3.557  2.8177 -1.8353 -0.1609
16181TIP3    H269959   0.976   4.400   3.619 -0.9851 -2.2925 -1.6525
16182TIP3   OH269960   3.955   5.218   4.686 -0.3791 -0.2712  0.1823
16182TIP3    H169961   3.987   5.267   4.611 -0.1580  1.0913  1.1364
16182TIP3    H269962   3.987   5.129   4.672  1.6396  0.4702 -0.2013
16183TIP3   OH269963   1.820   4.415   1.698 -0.0676 -0.0121  0.3895
16183TIP3    H169964   1.908   4.380   1.683  0.0204  0.9935 -1.7326
16183TIP3    H269965   1.765   4.338   1.708  0.8687 -0.6626  0.6930
16184TIP3   OH269966   5.743   2.024   4.993 -0.3210 -0.6891  0.0611
16184TIP3    H169967   5.775   2.114   4.989 -0.1379 -0.7728 -0.4210
16184TIP3    H269968   5.815   1.971   4.958 -0.3676 -1.0391  0.4922
16185TIP3   OH269969   0.966   5.166   2.060  0.2724  0.2081 -0.2224
16185TIP3    H169970   0.891   5.129   2.014  0.7652 -1.2371  0.0590
16185TIP3    H269971   0.931   5.242   2.107 -1.0216 -0.4392 -0.0881
16186TIP3   OH269972   0.856   4.048  12.757  0.0714  0.4756 -0.4195
16186TIP3    H169973   0.799   4.110  12.711 -1.0445 -0.2031  0.0173
16186TIP3    H269974   0.892   3.993  12.687 -0.4744  0.3824 -0.6344
16187TIP3   OH269975   4.482   6.252  12.413  0.1682 -0.5558 -0.3196
16187TIP3    H169976   4.558   6.205  12.379  0.4599  0.5835 -1.3340
16187TIP3    H269977   4.490   6.340  12.375 -1.4422 -0.2972 -0.1176
16188TIP3   OH269978   4.505   3.758  13.126 -0.4511  0.3071 -0.4346
16188TIP3    H169979   4.458   3.841  13.129  1.7196  1.6255 -1.0262
16188TIP3    H269980   4.508   3.735  13.033 -1.5894 -0.8038 -0.2250
16189TIP3   OH269981   2.738   1.574   2.966 -0.4004  0.4856  0.0842
16189TIP3    H169982   2.782   1.657   2.988 -2.1440  1.4686 -0.0043
16189TIP3    H269983   2.797   1.533   2.902  0.4555  1.6919  0.0572
16190TIP3   OH269984   4.598   5.571  13.060 -0.0130 -0.1765 -0.0004
16190TIP3    H169985   4.683   5.562  13.017  0.7350  1.5674  1.0288
16190TIP3    H269986   4.607   5.519  13.140 -0.2253 -0.6786 -0.2975
16191TIP3   OH269987   5.052   4.516   4.415  0.0126 -0.0674 -0.2362
16191TIP3    H169988   5.097   4.443   4.373  0.1273  0.3486 -0.8422
16191TIP3    H269989   5.027   4.482   4.501  2.0435 -0.1034  0.3754
16192TIP3   OH269990   5.433   2.011   2.617 -0.4976  1.2520 -0.0686
16192TIP3    H169991   5.422   1.947   2.547 -1.0255  1.5594 -0.2737
16192TIP3    H269992   5.422   1.961   2.698 -2.3997  1.3061 -0.2309
16193TIP3   OH269993   2.923   0.483   1.862  0.5270  0.3670  0.3760
16193TIP3    H169994   2.878   0.490   1.778  0.4406  1.6105  0.5108
16193TIP3    H269995   2.977   0.404   1.854 -2.6827 -2.1001  0.7068
16194TIP3   OH269996   1.898   4.252   4.161 -0.7770 -0.4281  0.5126
16194TIP3    H169997   1.875   4.194   4.234  1.3793 -0.3326  1.3408
16194TIP3    H269998   1.847   4.219   4.087 -2.0603 -1.3254  1.7469
16195TIP3   OH269999   6.611   3.810  15.846  0.7692  0.1661  0.4901
16195TIP3    H170000   6.575   3.898  15.855 -0.3137 -0.2663  0.5288
16195TIP3    H270001   6.535   3.753  15.848  1.1078 -0.5966 -2.7712
16196TIP3   OH270002   6.093   2.979  17.168  0.2036 -0.2841 -0.5514
16196TIP3    H170003   6.162   3.045  17.182 -0.6380  0.9673 -2.0135
16196TIP3    H270004   6.084   2.936  17.253  0.9835  1.2988  0.3913
16197TIP3   OH270005   2.694   0.453  14.193  1.0916  0.2538  0.2820
16197TIP3    H170006   2.642   0.532  14.183  1.3765  0.4156  0.0476
16197TIP3    H270007   2.678   0.404  14.112  0.7730 -0.0174  0.5049
16198TIP3   OH270008   1.338   3.990  13.919  0.4515 -0.1849  0.2762
16198TIP3    H170009   1.388   3.915  13.949 -0.5716 -0.6725  0.8096
16198TIP3    H270010   1.248   3.971  13.944  0.0362  0.8188 -0.3638
16199TIP3   OH270011   4.004   4.433  11.605 -0.2230  0.0516  0.5219
16199TIP3    H170012   3.949   4.450  11.681  0.3914 -0.6475  1.1432
16199TIP3    H270013   3.945   4.397  11.540 -0.3903 -1.4775  1.4662
16200TIP3   OH270014   0.290   0.221  14.388  0.1351 -0.1267  0.1833
16200TIP3    H170015   0.278   0.171  14.469 -1.7464  1.6133  1.0984
16200TIP3    H270016   0.214   0.198  14.335  0.9248 -0.6266 -0.7392
16201TIP3   OH270017   2.006   6.279  15.401  0.3069  0.2757  0.5256
16201TIP3    H170018   2.063   6.351  15.428  2.4456 -1.1560  0.1115
16201TIP3    H270019   2.050   6.200  15.433 -1.7757 -0.8976  0.6741
16202TIP3   OH270020   2.754   5.851   5.886  0.3229 -0.3142 -0.4272
16202TIP3    H170021   2.760   5.809   5.800 -4.1338 -1.6337 -0.3442
16202TIP3    H270022   2.721   5.938   5.868 -0.3325 -0.4882 -0.0754
16203TIP3   OH270023   0.750   4.858  16.624  0.2960 -0.0054 -0.3367
16203TIP3    H170024   0.818   4.806  16.666  0.8909  2.3986  1.9106
16203TIP3    H270025   0.791   4.892  16.544  0.1574 -2.1549 -1.4056
16204TIP3   OH270026   1.734   2.461   5.265 -0.0996  0.0094  0.2054
16204TIP3    H170027   1.702   2.410   5.190  1.1509 -2.2929  1.1081
16204TIP3    H270028   1.823   2.485   5.241  1.5323 -3.4502  1.9528
16205TIP3   OH270029   6.786   1.716   4.377 -0.0030  0.3166 -0.1045
16205TIP3    H170030   6.763   1.691   4.466 -1.5756  0.5922 -0.3997
16205TIP3    H270031   6.732   1.660   4.322 -2.0164  2.7240 -0.8029
16206TIP3   OH270032   1.803   4.886  12.818 -0.2576 -0.1064  0.3119
16206TIP3    H170033   1.765   4.851  12.737  0.4531 -1.7045  0.6356
16206TIP3    H270034   1.733   4.879  12.882 -1.4334  2.8377 -0.5093
16207TIP3   OH270035   3.617   6.320  13.404 -0.0403  0.1616  0.0950
16207TIP3    H170036   3.681   6.385  13.431 -0.4923  0.6838 -0.0681
16207TIP3    H270037   3.568   6.300  13.484  0.7538 -0.7494  0.3760
16208TIP3   OH270038   0.208   3.884  12.885  0.1840  0.0193 -0.5190
16208TIP3    H170039   0.207   3.933  12.967  0.2036  0.7710 -0.9647
16208TIP3    H270040   0.287   3.914  12.839  1.9740 -2.6672  0.5179
16209TIP3   OH270041   2.479   3.242   0.899  0.6103 -0.1977 -0.3110
16209TIP3    H170042   2.513   3.238   0.988  1.9140  1.0841 -0.7077
16209TIP3    H270043   2.388   3.270   0.909  0.5815 -0.6136  0.6433
16210TIP3   OH270044   2.838   6.075  12.462  0.3438 -0.5521  0.4375
16210TIP3    H170045   2.877   6.031  12.537  0.3749 -1.1686  0.0696
16210TIP3    H270046   2.790   6.005  12.416  0.1194 -0.1333  0.0276
16211TIP3   OH270047   4.215   4.533   5.995 -0.2395  0.0777 -0.0120
16211TIP3    H170048   4.198   4.527   6.089 -2.8464 -0.1415 -0.4294
16211TIP3    H270049   4.183   4.620   5.971 -0.8717 -0.3915 -0.9165
16212TIP3   OH270050   4.983   3.469  16.400 -0.2506 -0.3667  0.5579
16212TIP3    H170051   4.920   3.538  16.383 -0.5313 -0.3661  1.5057
16212TIP3    H270052   5.034   3.502  16.474  1.6069  0.1192 -0.8679
16213TIP3   OH270053   6.770   4.526  16.479 -0.0862  0.1476  0.3252
16213TIP3    H170054   6.865   4.537  16.479  0.0751 -0.8968 -1.1592
16213TIP3    H270055   6.735   4.614  16.467  0.7607  0.3856 -0.5298
16214TIP3   OH270056   5.095   1.820  16.461  0.0889  0.1784 -0.2440
16214TIP3    H170057   5.028   1.830  16.393  0.7173  0.5672 -0.8245
16214TIP3    H270058   5.072   1.739  16.505  0.5901 -0.9725 -1.9816
16215TIP3   OH270059   1.777   6.356   4.874  0.4754  0.2675 -0.2129
16215TIP3    H170060   1.709   6.418   4.902  0.7978 -0.0331  1.2946
16215TIP3    H270061   1.735   6.270   4.881  0.6803  0.1604 -0.3077
16216TIP3   OH270062   2.391   0.351   2.123 -0.4854  0.3541 -0.6130
16216TIP3    H170063   2.398   0.311   2.036  1.1223  1.7435 -1.1828
16216TIP3    H270064   2.396   0.277   2.184  1.3883 -0.4416 -1.6444
16217TIP3   OH270065   1.622   6.065   5.579  0.2489 -0.0329 -0.0831
16217TIP3    H170066   1.595   6.121   5.506  1.1262  1.3527  0.6170
16217TIP3    H270067   1.683   6.119   5.629 -0.0339 -1.0948  1.4611
16218TIP3   OH270068   4.180   1.113  14.350  0.8685  0.4644  0.1435
16218TIP3    H170069   4.244   1.041  14.356 -0.8002 -1.1121 -0.2170
16218TIP3    H270070   4.195   1.150  14.264  0.9856 -0.2213 -0.1404
16219TIP3   OH270071   3.916   3.486   1.569 -0.1299 -0.2407 -0.2711
16219TIP3    H170072   3.995   3.538   1.555 -0.4788  0.2405 -0.4654
16219TIP3    H270073   3.942   3.397   1.546  0.8665 -0.4166  1.3722
16220TIP3   OH270074   3.513   0.547  12.066  0.7716 -0.0634 -0.2815
16220TIP3    H170075   3.587   0.606  12.050  0.7697  0.5135  1.6533
16220TIP3    H270076   3.553   0.460  12.066  1.2771  0.1604 -0.3038
16221TIP3   OH270077   0.351   0.742  14.065  0.4017 -0.0449 -0.0717
16221TIP3    H170078   0.392   0.828  14.075 -0.3498  0.3365 -0.2338
16221TIP3    H270079   0.349   0.706  14.154  0.1062  0.3927  0.1031
16222TIP3   OH270080   0.213   0.801   2.590 -0.0542  0.1217  0.0194
16222TIP3    H170081   0.149   0.788   2.660  0.0337  2.0861  0.5122
16222TIP3    H270082   0.168   0.858   2.527  1.7184  3.1585  1.2849
16223TIP3   OH270083   4.871   4.361  11.564 -0.3491 -0.6184  0.7267
16223TIP3    H170084   4.874   4.402  11.478 -1.1844  1.2044  1.5026
16223TIP3    H270085   4.831   4.276  11.550  0.6846 -0.8768 -0.8529
16224TIP3   OH270086   5.699   3.881   4.941 -0.2498  1.0181 -0.4300
16224TIP3    H170087   5.648   3.947   4.893 -0.5382  1.4410  0.4500
16224TIP3    H270088   5.635   3.838   4.998  0.3173  1.3693  0.4881
16225TIP3   OH270089   1.138   4.634   2.869  0.4980 -0.3991  0.2123
16225TIP3    H170090   1.055   4.649   2.914 -0.0554  0.7683 -1.0931
16225TIP3    H270091   1.113   4.598   2.784  1.4427 -1.5469  0.4059
16226TIP3   OH270092   1.026   0.368   3.463  0.3011  0.0313 -0.4516
16226TIP3    H170093   1.046   0.370   3.370  2.8730  1.6013  0.0487
16226TIP3    H270094   1.022   0.460   3.489 -5.0219 -0.0963  0.2390
16227TIP3   OH270095   3.709   3.826   3.114 -0.4862  0.4125 -0.1220
16227TIP3    H170096   3.709   3.870   3.199  1.0418 -0.9040  0.6065
16227TIP3    H270097   3.694   3.897   3.051 -3.0402  1.2590  1.2465
16228TIP3   OH270098   4.862   3.248  12.330 -0.7350  0.3638 -0.3504
16228TIP3    H170099   4.939   3.266  12.275  0.0444 -1.4248  0.0714
16228TIP3    H270100   4.789   3.290  12.284 -0.0594 -0.7370 -2.5724
16229TIP3   OH270101   5.263   3.365  15.943 -0.1605 -0.0091  0.1998
16229TIP3    H170102   5.302   3.304  15.881  0.7132 -1.3189  1.9502
16229TIP3    H270103   5.225   3.309  16.011  0.1336  1.3800  1.5626
16230TIP3   OH270104   6.595   6.250  16.380  0.3263  0.3030 -0.3835
16230TIP3    H170105   6.583   6.312  16.452  1.5201  0.1509 -0.0335
16230TIP3    H270106   6.551   6.291  16.306 -1.5724  0.1257  0.5716
16231TIP3   OH270107   6.441   0.719  11.738  0.4444 -0.1217  0.6611
16231TIP3    H170108   6.513   0.679  11.689  0.6390 -0.1900  0.9978
16231TIP3    H270109   6.481   0.792  11.785  0.0976  0.4635  0.0756
16232TIP3   OH270110   1.296   1.713   0.142 -0.0131  1.1747  0.0308
16232TIP3    H170111   1.266   1.731   0.231 -1.2850 -0.9801  0.1259
16232TIP3    H270112   1.391   1.705   0.150  0.0102  2.1404  0.9494
16233TIP3   OH270113   1.012   2.715   2.184  0.0133 -0.0199 -0.3095
16233TIP3    H170114   1.018   2.657   2.108 -1.1219  0.2553 -0.6292
16233TIP3    H270115   0.962   2.790   2.152 -0.8145 -0.0804  0.8160
16234TIP3   OH270116   1.242   1.568  14.103 -0.2525  0.0149  0.0534
16234TIP3    H170117   1.306   1.638  14.115 -0.5769  0.1778  0.8906
16234TIP3    H270118   1.284   1.491  14.140  0.0156 -0.1975 -0.6698
16235TIP3   OH270119   3.439   0.701  14.558 -0.1494  0.0697  0.3392
16235TIP3    H170120   3.481   0.783  14.583 -1.7522  1.3431 -0.9513
16235TIP3    H270121   3.402   0.667  14.639  0.3941  0.6939  0.8581
16236TIP3   OH270122   0.435   5.428  14.600 -0.0869  0.5829  0.1111
16236TIP3    H170123   0.398   5.342  14.578  0.3664  0.5666 -0.6138
16236TIP3    H270124   0.402   5.446  14.688 -1.4454  0.3692 -0.3304
16237TIP3   OH270125   3.647   1.056  13.468  0.3221 -0.3210 -0.0811
16237TIP3    H170126   3.731   1.094  13.444  0.4390 -1.3637 -1.4853
16237TIP3    H270127   3.584   1.127  13.455  0.8096  0.0601 -0.4281
16238TIP3   OH270128   1.671   2.189   5.599 -0.0525  0.4676 -0.1191
16238TIP3    H170129   1.748   2.171   5.653 -0.6201  2.5959  1.5867
16238TIP3    H270130   1.664   2.285   5.600 -2.3314  0.3555 -0.7737
16239TIP3   OH270131   0.897   5.783   3.949 -0.5762 -0.4811  0.5156
16239TIP3    H170132   0.851   5.727   3.886  0.7418 -0.5902 -0.3824
16239TIP3    H270133   0.827   5.834   3.991 -1.7435 -2.2871  0.8747
16240TIP3   OH270134   4.077   3.313  12.850  0.5739 -0.4503 -0.2269
16240TIP3    H170135   4.097   3.279  12.937  1.8267  4.2970  1.6572
16240TIP3    H270136   3.996   3.363  12.862  0.8444  0.4135 -1.7360
16241TIP3   OH270137   6.589   2.762  16.416 -0.6703 -0.3100  0.3415
16241TIP3    H170138   6.609   2.686  16.469 -1.1756 -0.1370  0.7966
16241TIP3    H270139   6.531   2.729  16.347 -1.2965 -0.2498  0.8337
16242TIP3   OH270140   5.762   2.761  16.532  0.2094  0.5520  0.1577
16242TIP3    H170141   5.803   2.683  16.569 -0.3896  1.1384  2.1977
16242TIP3    H270142   5.834   2.822  16.518  0.5955 -0.1109 -0.7939
16243TIP3   OH270143   3.029   3.041   3.160 -0.1374  0.4147  0.2414
16243TIP3    H170144   3.101   3.085   3.115 -1.1201  0.9822 -0.8346
16243TIP3    H270145   3.001   3.103   3.227 -1.3114  1.3877 -1.0658
16244TIP3   OH270146   6.503   0.933  16.418 -0.5058  0.2082 -0.3888
16244TIP3    H170147   6.492   0.861  16.355  1.5164 -0.9226  0.4631
16244TIP3    H270148   6.455   0.905  16.496  1.6186 -1.0597  0.5321
16245TIP3   OH270149   3.100   5.461   4.171  0.4228 -0.4917  0.2286
16245TIP3    H170150   3.093   5.555   4.157 -0.5619 -0.7638 -1.4338
16245TIP3    H270151   3.194   5.444   4.175  0.6082  0.5730  0.7029
16246TIP3   OH270152   4.447   4.307   3.239  0.1809  0.3430 -0.2157
16246TIP3    H170153   4.373   4.256   3.272 -0.5015  1.5473  0.2001
16246TIP3    H270154   4.489   4.250   3.175 -1.1358 -0.3602 -0.4960
16247TIP3   OH270155   3.704   2.970  14.979 -0.3471  0.4922  0.7579
16247TIP3    H170156   3.751   2.949  14.898 -1.9820  0.2506 -0.1743
16247TIP3    H270157   3.677   2.886  15.014  0.0855  0.6170  1.4056
16248TIP3   OH270158   2.610   2.534   5.295 -0.4956  0.0496  0.1793
16248TIP3    H170159   2.542   2.561   5.233 -0.1606 -1.8863 -1.1210
16248TIP3    H270160   2.656   2.615   5.316 -1.5960  0.9991 -0.9100
16249TIP3   OH270161   2.586   0.544   0.076 -0.0386  0.3502 -0.1513
16249TIP3    H170162   2.497   0.568   0.050 -0.8936 -1.2338  1.0919
16249TIP3    H270163   2.627   0.626   0.102 -1.2072  1.0813 -0.5441
16250TIP3   OH270164   2.188   3.271  16.633 -0.7447 -0.1837  0.1823
16250TIP3    H170165   2.207   3.330  16.560  0.8585  1.3461  1.7547
16250TIP3    H270166   2.145   3.326  16.698 -0.4326 -1.0588  1.1660
16251TIP3   OH270167   5.848   2.176   2.838 -0.0398  0.6218  0.1976
16251TIP3    H170168   5.911   2.130   2.893  0.0071 -0.0523 -0.4137
16251TIP3    H270169   5.771   2.187   2.894 -0.5527 -1.3805 -0.0405
16252TIP3   OH270170   1.408   2.222  17.037  0.6857 -0.3599 -0.6110
16252TIP3    H170171   1.431   2.311  17.063  1.0697 -0.3895 -0.8438
16252TIP3    H270172   1.476   2.197  16.974  0.9514 -1.0467 -0.0640
16253TIP3   OH270173   1.304   5.615  16.213  0.0549  0.1273 -0.2733
16253TIP3    H170174   1.300   5.677  16.139  2.0196 -0.6575 -1.1041
16253TIP3    H270175   1.218   5.623  16.255 -0.8457  1.1941 -2.1585
16254TIP3   OH270176   1.897   3.186  13.718  0.6559  0.0289  0.0259
16254TIP3    H170177   1.901   3.140  13.802  0.9153  0.2045  0.1105
16254TIP3    H270178   1.803   3.199  13.702  0.6029 -0.0947  0.2371
16255TIP3   OH270179   5.390   0.758   3.998 -0.2164 -0.1951 -0.0079
16255TIP3    H170180   5.371   0.799   3.913  0.8361  0.9363  0.2673
16255TIP3    H270181   5.375   0.827   4.062 -1.8643 -1.2897  0.8510
16256TIP3   OH270182   2.440   0.803   0.240  0.0142  0.4648 -0.1899
16256TIP3    H170183   2.414   0.758   0.321 -1.9477  1.8965  0.0469
16256TIP3    H270184   2.369   0.784   0.178  0.5188  0.9956 -0.9492
16257TIP3   OH270185   5.892   5.427  15.393 -0.4943  0.7306  0.6865
16257TIP3    H170186   5.822   5.448  15.454 -1.3764  0.0241 -0.0556
16257TIP3    H270187   5.941   5.509  15.383 -1.1769  1.2156  1.2561
16258TIP3   OH270188   4.114   3.701   2.491 -0.3001  0.2322 -0.0734
16258TIP3    H170189   4.034   3.667   2.450 -0.4550  1.0275 -0.4382
16258TIP3    H270190   4.118   3.655   2.575 -0.9208 -0.1181 -0.2247
16259TIP3   OH270191   3.203   1.830   5.190 -0.7260 -0.0319 -0.4885
16259TIP3    H170192   3.134   1.896   5.194 -0.7780 -0.0077 -1.6403
16259TIP3    H270193   3.157   1.747   5.178 -0.7828 -0.5831  2.6428
16260TIP3   OH270194   1.028   4.082   3.535 -0.0701  0.2764  0.0393
16260TIP3    H170195   1.082   4.121   3.466  0.8308 -1.3033 -0.2098
16260TIP3    H270196   0.940   4.079   3.498  0.7554 -2.5038 -2.0121
16261TIP3   OH270197   5.906   3.559   4.267  0.1295 -0.4134  0.1275
16261TIP3    H170198   5.877   3.506   4.342 -0.6470  2.2655  1.8532
16261TIP3    H270199   5.994   3.587   4.290 -0.3254  0.8901  0.3337
16262TIP3   OH270200   4.153   1.749  11.295  0.2354 -0.0214  0.3722
16262TIP3    H170201   4.149   1.735  11.390 -1.4376 -0.2320  0.2991
16262TIP3    H270202   4.070   1.792  11.273  0.5545 -0.0515 -1.0036
16263TIP3   OH270203   3.848   6.147  14.008 -0.0997  0.2945  0.1399
16263TIP3    H170204   3.806   6.158  14.093 -1.3450 -0.8375 -0.2796
16263TIP3    H270205   3.800   6.208  13.950 -0.0058  0.2535  0.0184
16264TIP3   OH270206   5.534   0.803  11.153 -0.0597 -0.1561 -0.5387
16264TIP3    H170207   5.456   0.859  11.156  0.1278  0.0688  0.3762
16264TIP3    H270208   5.603   0.862  11.123  0.5026  0.6050  1.9769
16265TIP3   OH270209   6.123   4.903  16.487 -0.1676 -0.3282 -0.2974
16265TIP3    H170210   6.172   4.925  16.566 -0.3916 -0.2920 -0.1661
16265TIP3    H270211   6.190   4.887  16.420 -0.0088  1.5278 -0.6212
16266TIP3   OH270212   2.263   5.061  15.043 -0.0924  0.2831  0.0361
16266TIP3    H170213   2.222   4.984  15.084  1.3751 -0.8315 -0.5113
16266TIP3    H270214   2.206   5.082  14.969 -0.6367 -0.1146  0.3352
16267TIP3   OH270215   5.776   4.926   1.217 -0.6341  0.4361 -0.4694
16267TIP3    H170216   5.714   4.911   1.288 -0.6674  2.4318 -0.0125
16267TIP3    H270217   5.732   4.893   1.139 -0.4527 -2.1199  0.4196
16268TIP3   OH270218   2.554   6.162   0.571 -0.0318  0.2014  0.1997
16268TIP3    H170219   2.593   6.226   0.510  2.5300 -0.1346  1.3660
16268TIP3    H270220   2.604   6.082   0.556  0.8906  0.1934  2.9028
16269TIP3   OH270221   5.230   1.304   1.092 -0.2000  0.6261  0.0553
16269TIP3    H170222   5.322   1.280   1.097 -0.6733 -1.1413  1.2005
16269TIP3    H270223   5.196   1.290   1.181 -2.4529 -2.7606 -1.1339
16270TIP3   OH270224   5.091   0.605  12.767 -0.0203  0.8291  0.0701
16270TIP3    H170225   5.036   0.643  12.699  0.9089  2.3054  0.0868
16270TIP3    H270226   5.177   0.596  12.726  0.2020  0.3427  0.6182
16271TIP3   OH270227   2.435   3.485  14.618  0.1422 -0.1394  0.3210
16271TIP3    H170228   2.345   3.463  14.596  0.8785 -2.0496 -1.0500
16271TIP3    H270229   2.441   3.473  14.713 -0.9709 -0.2760  0.3807
16272TIP3   OH270230   5.134   3.353   1.814  0.0507 -0.2667  0.9991
16272TIP3    H170231   5.146   3.440   1.853 -1.6987  0.1196  0.7630
16272TIP3    H270232   5.171   3.293   1.878  3.0523  0.7046  0.3461
16273TIP3   OH270233   0.424   4.482  14.844 -0.2856 -0.4349 -0.1463
16273TIP3    H170234   0.422   4.506  14.752  0.1716 -0.6740 -0.2206
16273TIP3    H270235   0.462   4.559  14.888 -0.0032 -0.5259 -0.2271
16274TIP3   OH270236   4.818   0.451   4.303  0.0597 -0.7206  0.0026
16274TIP3    H170237   4.813   0.361   4.270 -1.2796 -0.6930  0.0739
16274TIP3    H270238   4.908   0.478   4.285  1.0051 -2.6410  1.5095
16275TIP3   OH270239   4.874   4.888  11.083 -0.5162 -0.3306  0.1273
16275TIP3    H170240   4.930   4.962  11.059 -0.7970  0.6150  2.1289
16275TIP3    H270241   4.827   4.865  11.003 -0.5418  1.7676 -0.5061
16276TIP3   OH270242   6.504   2.667   1.052 -0.0703  0.3227  0.7358
16276TIP3    H170243   6.504   2.670   1.148  0.3026 -0.4101  0.7627
16276TIP3    H270244   6.562   2.594   1.030  0.1729  0.7462 -0.0599
16277TIP3   OH270245   2.728   3.090   5.530 -0.6010  0.4257 -0.2236
16277TIP3    H170246   2.750   3.175   5.492 -0.1421  0.6845  0.5814
16277TIP3    H270247   2.809   3.039   5.522 -0.3721  0.6148  0.7233
16278TIP3   OH270248   0.726   4.648   3.409  0.5339 -0.3526  0.0200
16278TIP3    H170249   0.705   4.690   3.493  0.2530  0.4777 -0.4570
16278TIP3    H270250   0.705   4.555   3.423 -0.3599 -0.0819  0.5894
16279TIP3   OH270251   4.446   4.242  13.387  0.1830  0.4165 -0.2134
16279TIP3    H170252   4.416   4.201  13.469 -0.2899 -0.0469 -0.6066
16279TIP3    H270253   4.382   4.311  13.370  0.3199  0.5572 -0.1550
16280TIP3   OH270254   4.095   0.671   2.726  0.4989  1.0118 -0.5568
16280TIP3    H170255   4.003   0.646   2.726  0.7582 -0.2904 -3.2151
16280TIP3    H270256   4.095   0.762   2.695  0.1270  0.6340 -1.7337
16281TIP3   OH270257   0.262   6.074   4.956  0.3544  0.9725 -0.1049
16281TIP3    H170258   0.286   5.982   4.973 -0.6145  1.1715  3.0076
16281TIP3    H270259   0.169   6.071   4.933  0.3442  1.1758 -0.0927
16282TIP3   OH270260   2.477   3.254  11.177  0.7595 -0.4521 -0.2993
16282TIP3    H170261   2.424   3.277  11.101 -0.0603 -2.2685 -0.3166
16282TIP3    H270262   2.540   3.326  11.184  1.5656 -0.6951 -3.3394
16283TIP3   OH270263   0.161   6.086   3.511 -0.5515 -0.1324 -0.2678
16283TIP3    H170264   0.136   6.101   3.420 -0.2823  0.6473 -0.2179
16283TIP3    H270265   0.081   6.054   3.552 -0.8681  0.1924 -0.6195
16284TIP3   OH270266   4.790   1.415   0.651 -0.4174 -0.2879  0.4326
16284TIP3    H170267   4.758   1.419   0.742 -0.9936 -0.5034  0.2423
16284TIP3    H270268   4.847   1.339   0.649  1.7917  1.2419  1.2952
16285TIP3   OH270269   4.721   1.760   2.109  0.1973 -0.0095  0.1820
16285TIP3    H170270   4.768   1.733   2.030  1.6544 -0.2871  1.1083
16285TIP3    H270271   4.711   1.680   2.160 -0.4514  0.2213  0.4260
16286TIP3   OH270272   4.872   5.228  16.788  0.5338 -0.0441  0.5899
16286TIP3    H170273   4.933   5.235  16.714 -0.3561  1.3630 -0.0572
16286TIP3    H270274   4.915   5.276  16.859  0.5732  0.1888  0.4086
16287TIP3   OH270275   4.413   6.395  11.416 -0.1279  0.2844  0.2401
16287TIP3    H170276   4.339   6.426  11.469 -1.4096 -0.9438 -0.7709
16287TIP3    H270277   4.439   6.472  11.365 -1.6384  0.4020 -0.4159
16288TIP3   OH270278   0.572   4.557   4.512  0.0913  0.2613 -0.1397
16288TIP3    H170279   0.495   4.563   4.569 -0.4882 -0.8779 -0.7641
16288TIP3    H270280   0.645   4.587   4.567 -0.7834  1.4253  0.4449
16289TIP3   OH270281   2.125   3.825  12.259 -0.2435  0.5797  0.1018
16289TIP3    H170282   2.029   3.827  12.264 -0.2689 -0.0060 -0.0898
16289TIP3    H270283   2.151   3.916  12.273 -0.8880  0.9610 -1.0235
16290TIP3   OH270284   0.250   4.806   1.339 -0.5210 -0.2211 -0.4287
16290TIP3    H170285   0.318   4.812   1.406 -0.8292 -0.4117 -0.0946
16290TIP3    H270286   0.294   4.766   1.264  0.0143  0.6700 -0.6054
16291TIP3   OH270287   5.288   4.479  11.001 -0.0655  0.2196 -0.3177
16291TIP3    H170288   5.302   4.564  10.960  0.1169  0.8327  0.9606
16291TIP3    H270289   5.371   4.460  11.045  0.0421 -0.8331 -0.9255
16292TIP3   OH270290   1.042   0.954  13.817  0.1260 -0.4548 -0.0320
16292TIP3    H170291   1.062   1.015  13.888 -0.7713  0.2027 -0.3274
16292TIP3    H270292   1.128   0.930  13.782  0.4887  2.4425 -1.4092
16293TIP3   OH270293   0.100   0.766   4.059  0.3813  0.1760 -0.0801
16293TIP3    H170294   0.058   0.808   4.134  1.8605  0.8958  0.3886
16293TIP3    H270295   0.029   0.748   3.999 -0.7199  0.4669  1.0859
16294TIP3   OH270296   5.554   2.837   5.811 -0.0203 -0.2595 -0.3693
16294TIP3    H170297   5.598   2.915   5.845  0.7512 -0.1680 -1.5211
16294TIP3    H270298   5.520   2.794   5.889 -1.3158  1.7010  0.2263
16295TIP3   OH270299   3.850   0.184   1.138  0.2978  0.3102  0.1065
16295TIP3    H170300   3.759   0.204   1.114  0.6683  1.6589 -0.2707
16295TIP3    H270301   3.847   0.173   1.233 -0.3223 -0.0545  0.0526
16296TIP3   OH270302   1.089   4.221  16.646  0.2636 -0.4242  0.3249
16296TIP3    H170303   1.124   4.142  16.688  0.0338 -0.7398 -0.0649
16296TIP3    H270304   1.138   4.229  16.564 -1.3915 -1.6000 -0.8529
16297TIP3   OH270305   3.010   2.770  13.287 -0.1729 -0.0816  0.2666
16297TIP3    H170306   3.026   2.848  13.340 -1.9270  0.7530 -0.3585
16297TIP3    H270307   3.080   2.771  13.221  0.3085  0.4725  0.7744
16298TIP3   OH270308   0.389   0.919  16.337 -0.0422  0.8680  0.1026
16298TIP3    H170309   0.455   0.881  16.395 -1.1613 -0.8135  0.3600
16298TIP3    H270310   0.314   0.934  16.393 -0.7881  0.1972 -0.6890
16299TIP3   OH270311   5.186   4.847  16.592  0.2561  0.3680  0.0670
16299TIP3    H170312   5.247   4.777  16.569  0.1281  0.6570 -1.2311
16299TIP3    H270313   5.123   4.848  16.520  0.5312  2.1184 -0.1924
16300TIP3   OH270314   3.714   5.025   2.175  0.7036 -0.8584  0.0919
16300TIP3    H170315   3.796   4.991   2.139  1.1638  0.1057  0.2032
16300TIP3    H270316   3.646   4.970   2.137  1.4242 -1.8970  0.2639
16301TIP3   OH270317   0.365   0.952  13.675  0.0975 -0.4108  0.0824
16301TIP3    H170318   0.446   1.002  13.680  0.7001 -1.3418 -0.0667
16301TIP3    H270319   0.371   0.888  13.746 -0.5954 -0.3806  0.1839
16302TIP3   OH270320   0.538   2.953   5.008 -0.1678 -0.7396  0.0943
16302TIP3    H170321   0.491   3.036   4.998 -1.6942 -1.5882 -0.1721
16302TIP3    H270322   0.594   2.966   5.085 -0.6305  0.4229  0.2535
16303TIP3   OH270323   3.582   3.305  11.181  0.5565 -0.0357  0.3860
16303TIP3    H170324   3.666   3.325  11.140 -0.9778  1.9014 -2.0684
16303TIP3    H270325   3.547   3.232  11.131 -0.1715  0.6417 -0.1289
16304TIP3   OH270326   2.082   4.990  11.594  0.0088  0.2324  0.6344
16304TIP3    H170327   2.145   5.028  11.656  0.1238  1.1629 -0.0276
16304TIP3    H270328   1.997   5.021  11.625  0.2460  3.5989 -1.4694
16305TIP3   OH270329   0.973   6.505  15.053 -0.2375  0.4451  0.7165
16305TIP3    H170330   0.909   6.493  14.983 -0.2282  0.7003  0.6658
16305TIP3    H270331   0.990   6.599  15.055  1.8658  0.1800 -0.8390
16306TIP3   OH270332   1.081   3.200   2.613  0.3461 -0.2079  0.2310
16306TIP3    H170333   1.134   3.197   2.693  2.1133  1.8962 -0.7488
16306TIP3    H270334   1.145   3.199   2.542 -0.9577  1.3541 -1.0497
16307TIP3   OH270335   0.915   6.646  13.192  0.1141 -0.6394  0.3404
16307TIP3    H170336   0.870   6.730  13.189  0.4076 -0.5006 -0.2280
16307TIP3    H270337   0.921   6.626  13.286 -0.3194 -0.2275  0.4579
16308TIP3   OH270338   5.923   2.410  12.718 -0.2101  0.1025 -0.0988
16308TIP3    H170339   5.983   2.359  12.773  0.3467 -0.8329 -1.5300
16308TIP3    H270340   5.868   2.344  12.676  0.4450  0.6457 -1.9069
16309TIP3   OH270341   3.263   2.519   2.364 -0.2033 -0.1852 -0.6678
16309TIP3    H170342   3.346   2.527   2.411 -0.5470 -1.7149  0.2631
16309TIP3    H270343   3.288   2.502   2.273  0.4667  1.8479 -0.9079
16310TIP3   OH270344   2.299   3.724   2.317 -0.0304  0.0707  0.3962
16310TIP3    H170345   2.221   3.749   2.368 -1.7408  0.6246 -2.2752
16310TIP3    H270346   2.345   3.661   2.373 -1.1570  1.4259  3.0266
16311TIP3   OH270347   2.778   1.834   5.841 -0.1670 -0.2098  0.5034
16311TIP3    H170348   2.784   1.868   5.751  1.4436 -0.3834  0.5097
16311TIP3    H270349   2.790   1.910   5.897 -0.7555 -0.1656  0.5754
16312TIP3   OH270350   5.291   0.583  11.646  0.4205 -0.4029  0.0826
16312TIP3    H170351   5.243   0.500  11.649  1.0352 -0.8905 -1.8838
16312TIP3    H270352   5.358   0.574  11.713  0.5938 -1.5971 -0.2130
16313TIP3   OH270353   3.121   3.355  14.684 -0.8019 -0.1769  0.0938
16313TIP3    H170354   3.044   3.335  14.631  0.7993  0.9331 -2.8829
16313TIP3    H270355   3.124   3.451  14.687  0.1793 -0.2070  0.5379
16314TIP3   OH270356   6.004   4.412   4.071 -0.4356 -0.0739  0.4815
16314TIP3    H170357   5.997   4.439   4.163 -2.4022  0.3590  0.2672
16314TIP3    H270358   6.061   4.478   4.031 -0.4027  0.3470  1.2028
16315TIP3   OH270359   1.803   0.509   5.059  0.3571  0.1743 -0.2212
16315TIP3    H170360   1.804   0.443   4.990 -0.5659  0.6369 -0.7062
16315TIP3    H270361   1.721   0.492   5.106 -0.0004  1.0787 -0.4841
16316TIP3   OH270362   2.237   0.515  12.085 -0.0172  0.0436  0.3268
16316TIP3    H170363   2.282   0.465  12.017  2.6708  1.1725  1.1484
16316TIP3    H270364   2.224   0.602  12.047  2.2302  0.9321  1.4045
16317TIP3   OH270365   0.344   1.530   3.316  0.3413  0.3172  0.7184
16317TIP3    H170366   0.313   1.556   3.402  0.3940  3.1929 -0.0072
16317TIP3    H270367   0.269   1.546   3.258  1.1749  1.2715 -0.1389
16318TIP3   OH270368   1.780   5.824  13.523  0.6611  0.4030 -0.7596
16318TIP3    H170369   1.698   5.817  13.572  0.4509  0.2770 -1.1273
16318TIP3    H270370   1.839   5.870  13.583  0.3172  0.5149 -0.4994
16319TIP3   OH270371   6.724   5.478   0.752 -0.4061 -0.8480 -0.1418
16319TIP3    H170372   6.655   5.496   0.689  0.3665 -0.9722 -1.0501
16319TIP3    H270373   6.715   5.547   0.818  0.8512  1.4497 -2.1699
16320TIP3   OH270374   3.702   3.075  12.223 -0.2656  0.4660  0.0637
16320TIP3    H170375   3.785   3.053  12.266 -0.2373 -0.6744 -0.5397
16320TIP3    H270376   3.704   3.170  12.215  0.3947  0.5768  1.2278
16321TIP3   OH270377   2.692   1.890  12.536 -0.6292  0.5168 -0.3387
16321TIP3    H170378   2.640   1.927  12.608 -1.6877  0.4166 -1.0230
16321TIP3    H270379   2.778   1.873  12.575 -1.0896  0.7228  0.8250
16322TIP3   OH270380   5.761   5.147  11.991  0.5305  0.9061  0.0601
16322TIP3    H170381   5.852   5.136  12.017 -0.0293  1.8476  2.7802
16322TIP3    H270382   5.718   5.065  12.018  0.2670  1.1739  0.4712
16323TIP3   OH270383   0.638   2.216  11.625  0.1398  0.2445  0.0076
16323TIP3    H170384   0.620   2.183  11.537  0.1980 -2.4549  0.8994
16323TIP3    H270385   0.731   2.198  11.638  0.5455  2.1951  0.0511
16324TIP3   OH270386   1.296   1.488  11.318  0.5387  0.1168  0.7004
16324TIP3    H170387   1.353   1.477  11.394  0.4627  0.3002  0.7835
16324TIP3    H270388   1.352   1.465  11.243 -0.1274 -2.7119  0.9745
16325TIP3   OH270389   3.971   2.619   2.906  0.3228  0.5711  0.3898
16325TIP3    H170390   3.910   2.545   2.913  1.4388 -0.2552  2.0385
16325TIP3    H270391   4.056   2.578   2.892  0.8431  1.6130  0.4195
16326TIP3   OH270392   2.532   0.607   4.569 -0.5423  0.0183 -0.0129
16326TIP3    H170393   2.467   0.605   4.499 -1.0650 -0.0386  0.4685
16326TIP3    H270394   2.616   0.598   4.524 -0.9742 -2.4728 -0.4441
16327TIP3   OH270395   3.485   5.568   5.040 -0.2470  0.2870 -0.1111
16327TIP3    H170396   3.511   5.623   5.114 -1.5585  1.6154 -0.5984
16327TIP3    H270397   3.537   5.488   5.051  1.5984  1.5149  0.7190
16328TIP3   OH270398   0.618   2.560  15.707  0.2269  0.1206 -0.5057
16328TIP3    H170399   0.537   2.509  15.718  0.8682 -0.6369  1.0143
16328TIP3    H270400   0.680   2.498  15.669  0.4501  0.3410 -0.5009
16329TIP3   OH270401   2.171   3.333  11.106 -0.3242 -0.0504  0.0373
16329TIP3    H170402   2.244   3.383  11.069 -0.1209 -0.8188 -0.6395
16329TIP3    H270403   2.093   3.376  11.072 -0.1400 -0.7652 -1.3644
16330TIP3   OH270404   2.314   4.551   0.103  0.3314  0.1864  0.5007
16330TIP3    H170405   2.344   4.620   0.162  0.0160  0.7765 -0.0175
16330TIP3    H270406   2.229   4.582   0.071  0.5940 -0.0136 -0.4314
16331TIP3   OH270407   5.257   3.023  11.377  0.2904  0.3752  0.3014
16331TIP3    H170408   5.336   2.999  11.426 -0.6607 -1.0491  1.2346
16331TIP3    H270409   5.239   3.113  11.403  0.0235 -0.2066  2.3687
16332TIP3   OH270410   5.311   4.025   0.615 -0.3327  0.5244  0.0636
16332TIP3    H170411   5.332   4.119   0.617 -1.5719  0.8122 -0.1261
16332TIP3    H270412   5.278   4.010   0.527 -0.7956  0.0486  0.3187
16333TIP3   OH270413   2.451   5.668  11.363 -0.0420  0.1908 -0.3750
16333TIP3    H170414   2.376   5.659  11.304 -0.7837 -0.3886  0.6354
16333TIP3    H270415   2.466   5.580  11.396  1.0188  0.3232 -0.4571
16334TIP3   OH270416   1.256   6.187  13.757 -0.0741  0.7915  0.1732
16334TIP3    H170417   1.176   6.227  13.723  0.7599  1.0930 -1.5305
16334TIP3    H270418   1.233   6.094  13.768 -0.3949  0.6681 -1.2825
16335TIP3   OH270419   5.347   0.260  15.921  0.3869  0.4300  0.2956
16335TIP3    H170420   5.277   0.240  15.859  1.0347  0.5994 -0.5027
16335TIP3    H270421   5.412   0.192  15.907  2.0090  2.2294 -1.5233
16336TIP3   OH270422   6.326   1.928  13.434  0.5254 -0.4137  0.1932
16336TIP3    H170423   6.253   1.958  13.380  0.0976 -1.8294 -0.0535
16336TIP3    H270424   6.388   2.001  13.432 -0.3740  0.3678 -0.5332
16337TIP3   OH270425   0.084   6.416   2.551 -0.8650 -0.7716 -0.0283
16337TIP3    H170426   0.099   6.506   2.523 -0.1445 -1.4936 -2.1422
16337TIP3    H270427   0.125   6.362   2.483  0.3461 -2.7096  2.0773
16338TIP3   OH270428   4.255   4.506  16.153  0.9264  0.2020 -0.5053
16338TIP3    H170429   4.323   4.523  16.088 -0.6967  2.8797 -1.6763
16338TIP3    H270430   4.175   4.541  16.113 -0.5809 -0.0811  2.0501
16339TIP3   OH270431   4.197   0.605   3.714 -0.2892 -0.4824  0.5477
16339TIP3    H170432   4.263   0.649   3.660 -0.3994 -0.3110  0.5505
16339TIP3    H270433   4.247   0.558   3.780 -0.0829 -1.7444 -0.4711
16340TIP3   OH270434   6.111   1.016   1.274 -0.0554  0.9903 -0.1249
16340TIP3    H170435   6.190   0.964   1.290 -0.2037  0.8393  0.1253
16340TIP3    H270436   6.047   0.952   1.241 -0.5999  0.7835  1.2677
16341TIP3   OH270437   0.589   3.946  16.939 -0.0300  0.1349 -0.4856
16341TIP3    H170438   0.518   3.883  16.950 -0.0390 -0.1163 -1.8469
16341TIP3    H270439   0.583   3.974  16.848  0.7969  1.1228 -0.2587
16342TIP3   OH270440   0.474   2.796  11.107  0.2114  0.0883 -0.2670
16342TIP3    H170441   0.518   2.791  11.022  0.7455 -0.9877  0.0475
16342TIP3    H270442   0.531   2.747  11.166  0.0462  1.1341  0.8102
16343TIP3   OH270443   2.014   3.109   5.387  0.0087  0.0666  0.9405
16343TIP3    H170444   2.000   3.037   5.448  0.8941  0.4136  1.5953
16343TIP3    H270445   2.061   3.070   5.314 -0.8053 -0.2991  0.6075
16344TIP3   OH270446   4.430   5.233  12.238 -0.8858  0.3263  0.1948
16344TIP3    H170447   4.413   5.316  12.283  0.2126  2.0358 -2.3301
16344TIP3    H270448   4.499   5.191  12.290 -0.8230  1.4178  1.0277
16345TIP3   OH270449   0.462   3.468   3.003  0.2948 -0.0290 -0.1672
16345TIP3    H170450   0.435   3.447   2.914  0.5037  0.4010 -0.3348
16345TIP3    H270451   0.400   3.421   3.059  0.7824 -1.1327 -0.5196
16346TIP3   OH270452   1.042   0.478  11.705  0.3781  0.3001 -0.4963
16346TIP3    H170453   1.035   0.569  11.734 -1.9252 -0.3247  1.2369
16346TIP3    H270454   0.999   0.477  11.619  3.0250  1.2932 -1.9506
16347TIP3   OH270455   4.681   1.251  16.490 -0.4461  0.1935  0.2167
16347TIP3    H170456   4.724   1.232  16.573 -0.1903 -0.0779  0.0288
16347TIP3    H270457   4.753   1.254  16.426 -0.6213  0.5739  0.0372
16348TIP3   OH270458   0.021   4.097   5.520 -0.0220  0.2012 -0.0947
16348TIP3    H170459   0.010   4.002   5.514 -2.6469  0.2499  1.9566
16348TIP3    H270460   0.095   4.110   5.579 -0.9697 -0.6778  1.3551
16349TIP3   OH270461   6.624   6.414   0.417  0.4364  0.0067  0.1002
16349TIP3    H170462   6.606   6.343   0.477  2.1960 -1.3884 -0.9168
16349TIP3    H270463   6.621   6.374   0.330  2.5939  0.8575 -0.4386
16350TIP3   OH270464   0.164   6.357   0.152  0.1681 -0.9982  0.0527
16350TIP3    H170465   0.250   6.325   0.124  0.2806 -1.6299  1.0505
16350TIP3    H270466   0.152   6.319   0.239  1.2657  3.2746  2.3830
16351TIP3   OH270467   6.279   3.489   2.855  0.7368 -1.0151 -0.2449
16351TIP3    H170468   6.231   3.524   2.929  2.6496 -1.7236  1.4220
16351TIP3    H270469   6.290   3.564   2.796 -1.0997 -0.5178 -0.0280
16352TIP3   OH270470   3.478   1.836  14.266  0.1347  0.4345  0.2396
16352TIP3    H170471   3.571   1.827  14.249  0.0566 -0.1159  0.0955
16352TIP3    H270472   3.436   1.799  14.188 -0.2020  1.8952 -0.3207
16353TIP3   OH270473   6.051   2.591   2.928  0.2007 -1.0999 -0.1755
16353TIP3    H170474   6.098   2.625   3.004 -1.7255 -2.3346  1.6678
16353TIP3    H270475   5.969   2.641   2.926  0.1940 -1.1285 -1.4275
16354TIP3   OH270476   4.052   2.870   0.015  0.2548  0.3658  0.2463
16354TIP3    H170477   4.073   2.929  -0.058  0.0107  1.0684  0.7388
16354TIP3    H270478   3.959   2.853   0.006  0.4795 -0.6427 -0.3907
16355TIP3   OH270479   6.159   2.006  16.010  0.0103 -0.2279  0.8902
16355TIP3    H170480   6.185   2.088  15.966  2.3990 -2.3408 -2.1143
16355TIP3    H270481   6.239   1.976  16.052  0.2318 -2.6402 -1.0571
16356TIP3   OH270482   4.387   5.475   5.379  0.4197  0.2711  0.7328
16356TIP3    H170483   4.361   5.541   5.315  0.2791  0.1298  0.6440
16356TIP3    H270484   4.339   5.396   5.353  2.3205 -0.5263 -0.5543
16357TIP3   OH270485   4.437   5.284  15.530  0.4536  0.9020 -0.1012
16357TIP3    H170486   4.412   5.218  15.466 -0.2074  1.8125 -0.8049
16357TIP3    H270487   4.527   5.261  15.555 -0.3808 -1.3479  1.1011
16358TIP3   OH270488   0.253   0.787  13.043  0.3237  0.8066  0.2236
16358TIP3    H170489   0.257   0.737  12.961  0.5353  2.5004 -0.8523
16358TIP3    H270490   0.273   0.723  13.111 -2.4171 -1.2533 -0.7415
16359TIP3   OH270491   4.121   1.608   3.106  0.7151  0.0307 -0.5054
16359TIP3    H170492   4.087   1.693   3.134  1.0757  0.0617 -0.1505
16359TIP3    H270493   4.173   1.578   3.180  1.6614  0.0951 -1.1188
16360TIP3   OH270494   4.467   1.748  12.186  0.3459 -0.1200  0.7381
16360TIP3    H170495   4.498   1.794  12.265 -2.2646  1.9640  0.6998
16360TIP3    H270496   4.391   1.799  12.158  1.6248 -0.2896 -3.6716
16361TIP3   OH270497   5.325   3.667  15.057 -0.1587 -0.5841 -0.0752
16361TIP3    H170498   5.236   3.640  15.079  0.1929 -1.2900  0.5076
16361TIP3    H270499   5.313   3.746  15.003 -1.2098 -1.7770 -1.6812
16362TIP3   OH270500   4.136   1.148   6.374 -0.0676  0.0576  0.2800
16362TIP3    H170501   4.052   1.110   6.397  0.2401  0.2818  1.8958
16362TIP3    H270502   4.117   1.240   6.356 -0.3050 -0.1074 -0.3340
16363TIP3   OH270503   1.028   3.053  13.994 -0.3861 -0.0907 -0.1353
16363TIP3    H170504   0.939   3.023  13.976 -0.8283  1.7712 -1.4139
16363TIP3    H270505   1.022   3.149  13.987  1.3621  0.1935  1.4966
16364TIP3   OH270506   0.493   0.726  13.474  0.4535 -0.7898  0.6501
16364TIP3    H170507   0.560   0.761  13.533  0.8345 -1.4571  0.6137
16364TIP3    H270508   0.429   0.686  13.533 -0.0678  0.0883  0.7010
16365TIP3   OH270509   1.075   5.922  12.668 -0.4936 -0.0917 -0.4956
16365TIP3    H170510   1.038   5.878  12.744  1.1893  0.1575  0.5106
16365TIP3    H270511   0.998   5.956  12.620 -1.5933 -0.4972  0.9212
16366TIP3   OH270512   0.966   1.789   0.801 -0.0538  0.3794 -0.7460
16366TIP3    H170513   0.972   1.858   0.867  0.6331 -0.7863  0.4612
16366TIP3    H270514   0.920   1.718   0.845 -1.7511  0.4249 -2.3318
16367TIP3   OH270515   0.786   5.927   1.349 -0.5447 -0.6258  0.8080
16367TIP3    H170516   0.783   5.955   1.257  0.1451 -0.0386  0.9608
16367TIP3    H270517   0.848   5.854   1.349 -0.0279 -0.1918  0.9145
16368TIP3   OH270518   6.228   1.745   6.463 -0.1456  0.5425 -0.2710
16368TIP3    H170519   6.288   1.735   6.537 -0.7626 -0.2521  0.1415
16368TIP3    H270520   6.281   1.784   6.394  0.7962  0.0263  0.1405
16369TIP3   OH270521   4.003   3.507   3.817  0.1301  0.6778 -0.4850
16369TIP3    H170522   4.003   3.528   3.724 -0.4058 -0.0141 -0.6519
16369TIP3    H270523   3.960   3.582   3.858 -1.3407  0.1779 -1.0227
16370TIP3   OH270524   5.927   0.496   1.060 -0.3580 -0.2629  0.2324
16370TIP3    H170525   5.975   0.467   0.982 -0.2403  1.0077 -0.1905
16370TIP3    H270526   5.970   0.577   1.086 -0.4791 -0.6074  1.5585
16371TIP3   OH270527   1.894   6.786  13.865 -0.2070 -0.3837 -0.5420
16371TIP3    H170528   1.941   6.742  13.795 -1.2475 -0.3020 -1.3240
16371TIP3    H270529   1.830   6.721  13.895  0.1628 -0.3789  0.2575
16372TIP3   OH270530   6.346   3.490   0.737 -0.5010 -0.0281 -0.2585
16372TIP3    H170531   6.260   3.450   0.747 -0.6704  0.6018  0.9534
16372TIP3    H270532   6.346   3.524   0.647 -0.6845 -1.8933 -0.9984
16373TIP3   OH270533   1.103   5.969   5.460  0.2010  0.2126  0.2424
16373TIP3    H170534   1.028   5.945   5.406  0.4484 -2.8149  1.0197
16373TIP3    H270535   1.161   6.018   5.402 -1.8755  1.7161 -0.6556
16374TIP3   OH270536   2.460   3.764  16.805 -0.0581  0.2412 -0.2426
16374TIP3    H170537   2.528   3.771  16.738  0.5593 -0.7633  0.2493
16374TIP3    H270538   2.438   3.855  16.827  0.4337  0.5757 -1.0904
16375TIP3   OH270539   1.209   1.498   3.938 -0.3445  0.0812 -0.0553
16375TIP3    H170540   1.240   1.477   4.026  4.2763  0.5379 -1.2907
16375TIP3    H270541   1.196   1.593   3.938  0.6191  0.2238 -0.0584
16376TIP3   OH270542   5.895   4.341   4.387  0.4212  0.4510  0.2302
16376TIP3    H170543   5.871   4.294   4.466 -0.7930  2.2339  0.9800
16376TIP3    H270544   5.987   4.320   4.373 -0.3041 -2.9867 -0.1549
16377TIP3   OH270545   4.520   0.764   3.175  0.0218 -0.6449  0.1415
16377TIP3    H170546   4.596   0.808   3.212 -1.6334  2.7979 -0.1858
16377TIP3    H270547   4.534   0.765   3.081 -0.5826  0.4111  0.0496
16378TIP3   OH270548   0.188   0.076   1.807 -0.6279  0.1399 -0.0030
16378TIP3    H170549   0.213  -0.012   1.835 -1.1202 -0.1827 -0.5402
16378TIP3    H270550   0.176   0.068   1.712 -0.3576  0.8636 -0.1006
16379TIP3   OH270551   3.503   0.931   4.409  0.1711  0.0646  0.1969
16379TIP3    H170552   3.456   0.938   4.326  1.9505  0.4776 -0.8182
16379TIP3    H270553   3.538   0.842   4.410 -0.1229 -0.0511  0.6748
16380TIP3   OH270554   4.063   1.302  16.349  0.4261 -0.0623 -0.5395
16380TIP3    H170555   4.071   1.395  16.326  1.3681 -0.1086 -0.4520
16380TIP3    H270556   4.021   1.302  16.435  0.6676  0.2959 -0.4181
16381TIP3   OH270557   4.879   5.677   0.191  0.7941  0.8525  0.1678
16381TIP3    H170558   4.954   5.635   0.233  0.8720  0.7449 -0.0729
16381TIP3    H270559   4.802   5.632   0.227  0.7661  1.8893  1.4424
16382TIP3   OH270560   2.287   6.203   4.446 -0.3016 -0.3906  0.1449
16382TIP3    H170561   2.315   6.198   4.355  1.9813  1.3468  0.6684
16382TIP3    H270562   2.199   6.239   4.443  0.4023  1.3211 -1.3342
16383TIP3   OH270563   4.239   2.823  12.302  0.2590  0.3652 -0.7212
16383TIP3    H170564   4.195   2.856  12.381  1.3453  1.7021 -0.6286
16383TIP3    H270565   4.196   2.870  12.230  0.9476  1.0548 -0.6964
16384TIP3   OH270566   3.948   0.021  11.141  0.2849  0.1673  0.5646
16384TIP3    H170567   3.965   0.094  11.082  0.9555 -0.6478 -0.2830
16384TIP3    H270568   3.984  -0.055  11.096  0.5659 -0.5269  1.9118
16385TIP3   OH270569   2.242   5.082  14.215  0.3436 -0.0171  0.2224
16385TIP3    H170570   2.307   5.102  14.147 -0.1720 -0.1241 -0.3182
16385TIP3    H270571   2.249   4.987  14.226 -1.2529 -0.3915 -1.4832
16386TIP3   OH270572   3.991   2.021   4.113  0.5430  0.7257 -0.3358
16386TIP3    H170573   3.988   2.099   4.058  1.1276  0.0193 -1.4095
16386TIP3    H270574   3.992   2.054   4.203 -1.6447  1.8863 -0.6777
16387TIP3   OH270575   1.503   3.341  15.854  0.0214  1.0073 -0.1729
16387TIP3    H170576   1.556   3.315  15.929 -1.0811  0.4336  0.4296
16387TIP3    H270577   1.504   3.265  15.795 -0.4998  0.8101  0.0624
16388TIP3   OH270578   5.604   6.650  11.734  0.2723  0.4009  0.3605
16388TIP3    H170579   5.512   6.677  11.723  0.7149  1.4691 -1.0346
16388TIP3    H270580   5.616   6.581  11.670  0.7891  1.2293 -0.4625
16389TIP3   OH270581   5.108   4.165  12.573  0.3563  0.3059  0.2921
16389TIP3    H170582   5.171   4.093  12.580 -0.0522  0.0665  1.7253
16389TIP3    H270583   5.030   4.124  12.536 -0.6525 -0.5612  3.1406
16390TIP3   OH270584   5.707   2.435   2.101 -0.7070  0.3567 -0.2750
16390TIP3    H170585   5.763   2.445   2.178 -1.7607  0.6815  0.4638
16390TIP3    H270586   5.619   2.452   2.133 -1.1708  0.4371 -1.5494
16391TIP3   OH270587   1.452   2.900  11.253  0.5588  0.0397  0.1612
16391TIP3    H170588   1.387   2.968  11.270  1.1317  0.3773  1.0627
16391TIP3    H270589   1.445   2.884  11.159 -0.3752  0.5246  0.1289
16392TIP3   OH270590   3.099   2.619  11.780  0.0782 -0.5765 -0.2966
16392TIP3    H170591   3.163   2.557  11.746  2.2989  1.9770 -1.1924
16392TIP3    H270592   3.147   2.669  11.847 -1.0229  1.2495 -0.7819
16393TIP3   OH270593   6.754   1.744  12.421 -0.4495 -0.0484  0.5215
16393TIP3    H170594   6.659   1.734  12.428 -0.5831  0.4238 -0.4298
16393TIP3    H270595   6.775   1.817  12.478 -0.7029  0.0580  0.4788
16394TIP3   OH270596   5.376   3.897   4.160 -0.7980  0.5494  0.3913
16394TIP3    H170597   5.464   3.926   4.183 -0.5956 -0.1213  0.4994
16394TIP3    H270598   5.384   3.802   4.150 -1.1335  0.6802 -1.3034
16395TIP3   OH270599   1.240   5.644  15.946  0.0099 -0.1614  0.2493
16395TIP3    H170600   1.222   5.729  15.906 -2.7097 -0.3392  0.8718
16395TIP3    H270601   1.250   5.584  15.872 -1.9097  0.0666 -0.2513
16396TIP3   OH270602   0.381   6.164  13.709 -0.4151 -0.0911  0.2304
16396TIP3    H170603   0.427   6.198  13.786  0.0114  0.8512 -0.4174
16396TIP3    H270604   0.290   6.193  13.722 -0.2216  0.6107  0.0964
16397TIP3   OH270605   5.100   0.757   1.509  0.4966 -0.0129 -0.3635
16397TIP3    H170606   5.097   0.661   1.508  0.7944 -0.1109  2.0442
16397TIP3    H270607   5.190   0.778   1.534  0.0033  0.8034  0.8553
16398TIP3   OH270608   1.413   1.960   3.473 -0.4517  0.6198 -0.0309
16398TIP3    H170609   1.343   1.895   3.481  2.0004 -2.2869 -0.1859
16398TIP3    H270610   1.439   1.956   3.381  2.0792 -0.9970  0.6491
16399TIP3   OH270611   4.279   2.891   4.261  0.1934 -0.3373  0.6180
16399TIP3    H170612   4.203   2.888   4.319 -1.5786  1.5197 -1.4152
16399TIP3    H270613   4.245   2.862   4.176  2.1768 -0.9925 -0.0134
16400TIP3   OH270614   1.126   1.034   5.663  0.2629  0.0889  0.5065
16400TIP3    H170615   1.042   1.023   5.708  0.3347 -0.6805  0.4714
16400TIP3    H270616   1.184   0.969   5.704  1.2534  1.5255  1.4956
16401TIP3   OH270617   3.176   1.954   4.634 -0.3449  0.3104  0.1811
16401TIP3    H170618   3.212   2.040   4.612 -1.2542  0.2165 -1.9059
16401TIP3    H270619   3.238   1.917   4.698 -0.2218  2.6884  1.5544
16402TIP3   OH270620   5.507   1.224  13.109  0.1254  0.4979 -0.2458
16402TIP3    H170621   5.436   1.274  13.149  0.7547 -0.1055  1.7755
16402TIP3    H270622   5.488   1.133  13.132  0.4104  0.0769 -1.5878
16403TIP3   OH270623   3.354   5.038   2.311 -0.0528 -1.0478 -0.7584
16403TIP3    H170624   3.340   5.018   2.219  1.4262 -0.7801 -1.0736
16403TIP3    H270625   3.412   5.115   2.310 -0.9284 -0.3329  0.3984
16404TIP3   OH270626   0.788   0.027   2.769  0.2703 -0.2442 -0.1143
16404TIP3    H170627   0.717  -0.037   2.773 -0.7444  0.8299 -0.2854
16404TIP3    H270628   0.774   0.072   2.685  0.6142  0.5679  0.2553
16405TIP3   OH270629   0.422   1.227   4.963 -0.0581 -0.2995 -0.0987
16405TIP3    H170630   0.434   1.304   4.908  0.6174  0.3407  0.9108
16405TIP3    H270631   0.330   1.228   4.988 -0.3714 -0.5986 -1.1969
16406TIP3   OH270632   4.668   5.464  16.954 -0.2704  0.8423  0.1628
16406TIP3    H170633   4.722   5.458  17.033  0.4247  1.6992 -0.2259
16406TIP3    H270634   4.627   5.550  16.959  2.1077  2.2440 -1.7850
16407TIP3   OH270635   0.480   1.476  12.017 -0.6790  0.0915 -0.4246
16407TIP3    H170636   0.403   1.483  12.074  0.3465  0.8558  0.9192
16407TIP3    H270637   0.553   1.465  12.077  0.3272 -0.1837 -1.6685
16408TIP3   OH270638   3.435   4.765   3.522 -0.1408 -0.1573 -0.2804
16408TIP3    H170639   3.517   4.779   3.570 -0.6078  0.6110  0.3170
16408TIP3    H270640   3.367   4.774   3.589 -0.7139 -0.8680 -0.7559
16409TIP3   OH270641   6.324   1.947  13.800  0.6250  0.0067 -0.6034
16409TIP3    H170642   6.306   1.979  13.712  0.4701 -0.5262 -0.7703
16409TIP3    H270643   6.286   2.014  13.858  0.6525  0.3168 -0.9379
16410TIP3   OH270644   1.888   1.259  17.151 -0.0348  0.1441 -0.4156
16410TIP3    H170645   1.977   1.224  17.143 -0.5108 -0.8691 -1.6921
16410TIP3    H270646   1.884   1.294  17.240  0.1086 -4.3636  1.6427
16411TIP3   OH270647   1.269   5.125  10.941  0.2179  0.0768 -0.0468
16411TIP3    H170648   1.333   5.149  10.874  2.2193  0.4728  1.8896
16411TIP3    H270649   1.193   5.180  10.922  1.9127  2.5478 -0.1415
16412TIP3   OH270650   5.274   0.104  11.524 -0.3941 -0.5724  0.0718
16412TIP3    H170651   5.344   0.130  11.464 -1.6468 -0.7369 -1.5282
16412TIP3    H270652   5.208   0.062  11.468 -2.8085  1.5530  1.0889
16413TIP3   OH270653   3.571   5.144   0.560  0.0031  0.4060  0.2206
16413TIP3    H170654   3.521   5.062   0.553 -0.2105  0.6105 -0.8399
16413TIP3    H270655   3.549   5.178   0.647  0.9279 -1.1895  1.1308
16414TIP3   OH270656   0.633   2.812  15.974  0.2977  0.0887 -0.0030
16414TIP3    H170657   0.712   2.799  16.027  1.0663 -1.0078 -1.3248
16414TIP3    H270658   0.571   2.747  16.005  0.2545  0.3352  0.4276
16415TIP3   OH270659   6.009   2.772  15.425 -0.2044 -0.4021  0.0389
16415TIP3    H170660   6.054   2.850  15.394 -0.7392 -1.2817 -3.3844
16415TIP3    H270661   5.935   2.805  15.475  0.5592  1.2153  0.1524
16416TIP3   OH270662   3.027   2.817  15.280  0.3356 -0.0193  0.2008
16416TIP3    H170663   3.042   2.783  15.369  0.9641  2.0791  0.9767
16416TIP3    H270664   3.109   2.861  15.257 -0.3815  0.8964 -0.7203
16417TIP3   OH270665   4.868   2.099   6.078  0.1269  0.4439  0.0385
16417TIP3    H170666   4.940   2.093   6.140 -0.1316  0.9831  0.4000
16417TIP3    H270667   4.835   2.010   6.071  1.0094  0.1391 -0.3560
16418TIP3   OH270668   4.459   6.631   1.725 -0.0957  0.5677  0.5067
16418TIP3    H170669   4.370   6.658   1.750 -1.2187 -2.4954  0.2848
16418TIP3    H270670   4.448   6.596   1.636  1.0685 -0.9142  0.9196
16419TIP3   OH270671   6.113   4.773   3.557 -0.3240 -0.2943  0.4996
16419TIP3    H170672   6.024   4.800   3.535 -0.5036 -0.4993  0.9762
16419TIP3    H270673   6.168   4.842   3.520 -0.6552 -0.3233 -0.0705
16420TIP3   OH270674   6.394   1.347   3.377  0.2836  0.1541  0.3200
16420TIP3    H170675   6.301   1.370   3.377  0.5694  1.4126 -1.0713
16420TIP3    H270676   6.439   1.428   3.398  1.1842  0.3568 -2.0718
16421TIP3   OH270677   6.471   0.680   5.018  0.0222 -0.0647  0.0215
16421TIP3    H170678   6.567   0.684   5.022  0.0993  0.2211 -1.4038
16421TIP3    H270679   6.446   0.755   4.964 -0.9753 -0.3805  0.0198
16422TIP3   OH270680   1.628   3.827  13.699 -0.1638 -0.4277  0.7523
16422TIP3    H170681   1.703   3.886  13.698  0.3177 -1.0219 -0.2962
16422TIP3    H270682   1.575   3.857  13.773  0.3876  0.8958  0.6500
16423TIP3   OH270683   3.387   1.199  13.613  0.1118 -0.0424 -0.1297
16423TIP3    H170684   3.327   1.194  13.539 -0.5609 -0.8123  0.4506
16423TIP3    H270685   3.421   1.289  13.610 -1.3900  0.5597 -0.2205
16424TIP3   OH270686   0.490   2.036  13.187 -0.6508  0.0725 -0.2810
16424TIP3    H170687   0.483   2.131  13.200 -0.1907 -0.1065  1.5382
16424TIP3    H270688   0.466   1.998  13.271  2.4866 -1.2745  0.1459
16425TIP3   OH270689   4.369   5.522   2.583 -0.6289 -0.1025  0.5129
16425TIP3    H170690   4.382   5.590   2.516 -0.4690 -0.8141 -0.1877
16425TIP3    H270691   4.274   5.521   2.598 -0.9175 -1.2653 -1.1370
16426TIP3   OH270692   3.931   3.483   2.662  0.7333  0.0664 -0.5482
16426TIP3    H170693   3.990   3.513   2.732  0.5195 -0.7946  0.0174
16426TIP3    H270694   3.843   3.493   2.700  0.5260  0.8942 -1.2122
16427TIP3   OH270695   2.740   4.385  15.261 -0.2281 -0.0173 -0.5401
16427TIP3    H170696   2.832   4.398  15.284 -0.0665 -0.7479 -0.7453
16427TIP3    H270697   2.699   4.354  15.342 -0.1963 -0.1412 -0.5719
16428TIP3   OH270698   3.508   2.117   0.025 -0.0416  0.0813  0.2536
16428TIP3    H170699   3.537   2.130   0.116 -0.4029 -0.6938  0.4864
16428TIP3    H270700   3.556   2.183  -0.024 -1.4993  2.0091  1.3024
16429TIP3   OH270701   5.438   2.820  13.050 -0.1068  0.1494  0.2612
16429TIP3    H170702   5.432   2.823  12.954  0.3079 -0.4682  0.2132
16429TIP3    H270703   5.378   2.888  13.079 -1.8408 -1.0347 -0.3794
16430TIP3   OH270704   6.176   1.015  16.661  0.0001  0.1783  0.4337
16430TIP3    H170705   6.091   0.976  16.680  0.0588 -0.2462 -0.1485
16430TIP3    H270706   6.219   1.023  16.746  0.0583 -1.1963  0.5424
16431TIP3   OH270707   0.887   4.286  16.424  0.1561 -0.2025  0.0812
16431TIP3    H170708   0.817   4.250  16.479 -1.6390  0.6952 -1.4946
16431TIP3    H270709   0.957   4.307  16.485 -1.2227 -0.4722  1.8427
16432TIP3   OH270710   5.417   5.942  12.132 -0.2348  0.2172  0.5631
16432TIP3    H170711   5.394   5.854  12.103 -1.0384  0.5461  0.1709
16432TIP3    H270712   5.348   5.966  12.195  1.6876 -0.6615  3.2103
16433TIP3   OH270713   4.742   5.127  13.148 -0.1196 -0.3392 -0.3990
16433TIP3    H170714   4.753   5.071  13.226 -0.5673  0.1274  0.0027
16433TIP3    H270715   4.697   5.071  13.085  1.4880 -1.1824 -0.8496
16434TIP3   OH270716   4.058   3.762   2.058  0.1852  0.5047 -0.0357
16434TIP3    H170717   4.153   3.765   2.046  0.0864 -0.9323 -1.6296
16434TIP3    H270718   4.043   3.799   2.145  2.2324  0.3444  0.4324
16435TIP3   OH270719   2.422   5.526   4.357 -0.3645  0.3931  0.2702
16435TIP3    H170720   2.442   5.528   4.451  0.3196  0.7032  0.1236
16435TIP3    H270721   2.327   5.528   4.353 -0.5282 -2.3705  1.0337
16436TIP3   OH270722   0.692   1.653   5.202  0.4352  0.3723 -0.5822
16436TIP3    H170723   0.765   1.689   5.252  1.5680  0.5425 -2.2625
16436TIP3    H270724   0.734   1.608   5.128 -1.1541  1.1250 -2.0063
16437TIP3   OH270725   4.775   5.876  11.469  0.1418 -0.0046 -0.4414
16437TIP3    H170726   4.854   5.904  11.423  0.4434  1.1600  0.7386
16437TIP3    H270727   4.703   5.919  11.422  0.3595  0.3247 -0.4751
16438TIP3   OH270728   6.081   3.341   0.797 -0.5518 -0.3399 -0.3724
16438TIP3    H170729   6.092   3.253   0.762  1.8481 -1.2267  2.1991
16438TIP3    H270730   5.992   3.343   0.833 -0.8142 -1.5295 -0.9384
16439TIP3   OH270731   5.291   4.421   0.961 -0.0782 -0.1711 -0.0031
16439TIP3    H170732   5.214   4.365   0.975 -0.8257  0.8338 -0.0176
16439TIP3    H270733   5.365   4.364   0.983 -0.8349 -1.0344  0.4198
16440TIP3   OH270734   1.522   3.615  12.447 -0.4033  0.1404 -0.6247
16440TIP3    H170735   1.597   3.662  12.411 -0.6585  0.0313 -1.3029
16440TIP3    H270736   1.456   3.619  12.379 -1.7778  1.9759  0.6830
16441TIP3   OH270737   2.735   1.671   4.689 -0.2837  0.7055 -0.4067
16441TIP3    H170738   2.784   1.668   4.607  0.4388  0.8811  0.0111
16441TIP3    H270739   2.756   1.757   4.726 -0.4865  0.5691  0.0278
16442TIP3   OH270740   2.497   1.574   3.486  0.0722  0.5921 -0.0445
16442TIP3    H170741   2.498   1.536   3.574 -1.8088  0.7829  0.0913
16442TIP3    H270742   2.582   1.549   3.449  0.5729 -0.1872  1.5193
16443TIP3   OH270743   2.761   6.478  15.333 -0.0385  0.2044  0.4950
16443TIP3    H170744   2.804   6.457  15.250 -1.3953 -0.8988  0.0115
16443TIP3    H270745   2.806   6.424  15.398  0.4328  0.3691  0.3047
16444TIP3   OH270746   6.507   0.235  15.861  0.1479 -0.0904 -0.5769
16444TIP3    H170747   6.527   0.274  15.946  0.1296 -0.7650 -0.2572
16444TIP3    H270748   6.419   0.199  15.870  0.8404 -1.7840 -0.2723
16445TIP3   OH270749   0.831   4.006  13.050 -0.8845  0.0851  0.1798
16445TIP3    H170750   0.832   4.081  13.110 -0.6859 -0.5712  1.0323
16445TIP3    H270751   0.877   4.037  12.972 -2.5940  1.4939 -0.3359
16446TIP3   OH270752   3.390   0.909  13.940 -0.2358  0.4360 -0.0751
16446TIP3    H170753   3.365   0.818  13.923  0.4559  0.0869  0.6652
16446TIP3    H270754   3.472   0.902  13.989  0.1742  1.4841 -0.5887
16447TIP3   OH270755   4.377   0.774   4.302 -0.2171  0.1300 -1.1023
16447TIP3    H170756   4.392   0.729   4.219 -0.4276 -0.4398 -0.8358
16447TIP3    H270757   4.454   0.753   4.355 -1.8161 -2.8865  0.3056
16448TIP3   OH270758   1.752   1.978  10.612  0.7134 -0.0745 -0.0618
16448TIP3    H170759   1.745   2.036  10.688  1.9166  0.3844 -0.2741
16448TIP3    H270760   1.780   1.894  10.649  2.7845  0.5441 -0.0915
16449TIP3   OH270761   2.730   0.240   0.815  0.0228 -0.0518  0.3935
16449TIP3    H170762   2.746   0.162   0.868 -0.4191 -0.4975 -0.1061
16449TIP3    H270763   2.653   0.280   0.855  1.2479  1.1098  1.7096
16450TIP3   OH270764   0.352   2.141   4.184 -0.1122 -0.0840  0.0269
16450TIP3    H170765   0.404   2.095   4.250  0.1471 -1.2412 -0.9532
16450TIP3    H270766   0.265   2.102   4.191 -0.0778 -0.2263 -0.3177
16451TIP3   OH270767   3.347   4.738  16.445  0.1659  0.2168  0.7605
16451TIP3    H170768   3.423   4.792  16.467  0.6838 -0.5020  0.7976
16451TIP3    H270769   3.385   4.655  16.415 -0.5747  0.3017 -0.4736
16452TIP3   OH270770   2.604   5.430  11.312 -0.2525  0.2406  0.1001
16452TIP3    H170771   2.669   5.360  11.305 -0.0260  0.5801 -1.6751
16452TIP3    H270772   2.527   5.386  11.348  1.0753 -0.0367  2.8653
16453TIP3   OH270773   6.042   0.591   3.594  0.0210 -0.3623  0.1006
16453TIP3    H170774   6.020   0.533   3.521 -0.7621  0.2325 -0.1449
16453TIP3    H270775   5.958   0.615   3.632  0.3486  0.5058  0.2877
16454TIP3   OH270776   5.545   6.787  14.826 -0.1014 -0.4681  0.6004
16454TIP3    H170777   5.560   6.695  14.809  0.4459 -0.1905 -0.4561
16454TIP3    H270778   5.484   6.815  14.757 -0.9827 -0.2412  1.4458
16455TIP3   OH270779   2.714   6.176   6.749 -0.0569 -0.2876 -0.3226
16455TIP3    H170780   2.796   6.226   6.745  0.4327 -1.0362  0.2040
16455TIP3    H270781   2.655   6.223   6.691  1.0129 -0.2250 -1.3912
16456TIP3   OH270782   5.418   6.136   3.712 -0.4366 -0.1766 -0.2640
16456TIP3    H170783   5.425   6.161   3.620 -1.2062 -3.3608 -1.3086
16456TIP3    H270784   5.370   6.208   3.753  1.0220  1.9100 -2.0040
16457TIP3   OH270785   1.810   6.597   4.691  0.0033  0.0733  0.0195
16457TIP3    H170786   1.887   6.541   4.699  0.3042  0.5158  0.3012
16457TIP3    H270787   1.836   6.679   4.735 -0.7055  0.1445  0.3110
16458TIP3   OH270788   2.536   2.213   4.595  0.7944  0.3757 -0.5079
16458TIP3    H170789   2.572   2.274   4.530  0.2803  0.5419 -0.6361
16458TIP3    H270790   2.445   2.201   4.570  0.8373 -0.2864 -0.3530
16459TIP3   OH270791   3.817   5.066   0.484  0.6890 -0.0441 -0.0268
16459TIP3    H170792   3.807   5.016   0.403  1.8688 -1.1606  0.4724
16459TIP3    H270793   3.734   5.112   0.496  0.2391 -0.4529 -1.4682
16460TIP3   OH270794   6.311   5.034  16.198 -0.2264 -0.5066  0.1249
16460TIP3    H170795   6.406   5.037  16.188 -0.1040 -0.7457  1.1921
16460TIP3    H270796   6.283   5.124  16.180  0.0353 -0.7303 -1.6025
16461TIP3   OH270797   5.473   1.059  15.421  1.1206 -0.0893 -0.1021
16461TIP3    H170798   5.545   1.104  15.376  1.1051  0.4731  0.4104
16461TIP3    H270799   5.400   1.120  15.415  0.9422 -0.2800  0.1341
16462TIP3   OH270800   1.382   0.323  14.467 -0.0363  0.0249 -0.0042
16462TIP3    H170801   1.459   0.367  14.432  1.9321 -1.8659  1.6439
16462TIP3    H270802   1.308   0.366  14.425  1.7002  4.1170  0.6478
16463TIP3   OH270803   3.859   6.487  13.487 -0.2212  0.2976  0.3793
16463TIP3    H170804   3.946   6.472  13.523  0.3533  0.4279 -0.9039
16463TIP3    H270805   3.871   6.554  13.420 -1.0805 -0.5588 -0.6760
16464TIP3   OH270806   0.975   4.577   1.431  0.1223  0.5806  0.1712
16464TIP3    H170807   0.932   4.497   1.400  2.8703 -0.1607 -2.1720
16464TIP3    H270808   1.068   4.553   1.436  0.8267  3.2031  1.0003
16465TIP3   OH270809   5.013   3.384  11.975 -0.0836 -0.0059  0.6217
16465TIP3    H170810   5.003   3.289  11.964  1.5490 -0.0378 -0.9541
16465TIP3    H270811   4.923   3.416  11.981 -0.7604 -1.4316 -0.9770
16466TIP3   OH270812   3.682   2.809  15.986 -0.1816  0.2453 -0.1112
16466TIP3    H170813   3.732   2.792  15.905  0.3893 -0.4468  0.3706
16466TIP3    H270814   3.634   2.728  16.001  0.1503  0.1628  0.5415
16467TIP3   OH270815   5.545   3.416   4.469  0.1919 -0.7518  0.7010
16467TIP3    H170816   5.490   3.338   4.459 -0.1430 -0.6315  1.5383
16467TIP3    H270817   5.565   3.443   4.380 -0.8423 -0.9837  0.3919
16468TIP3   OH270818   1.674   1.931  11.903 -0.7120  0.5661 -0.0320
16468TIP3    H170819   1.644   1.957  11.991 -0.8265 -1.3564  0.5389
16468TIP3    H270820   1.616   1.859  11.879 -0.9882  1.3561 -1.9343
16469TIP3   OH270821   1.170   0.007   1.969  0.0159  0.5002 -0.6368
16469TIP3    H170822   1.093  -0.002   1.912  0.7328 -0.4690 -1.5105
16469TIP3    H270823   1.162   0.093   2.008 -2.1535 -0.0562  0.2559
16470TIP3   OH270824   3.160   1.246   4.896  0.2270  0.1028  0.0790
16470TIP3    H170825   3.127   1.292   4.973  0.0237 -0.3449  0.2625
16470TIP3    H270826   3.083   1.204   4.858  0.8742 -3.3314  2.1059
16471TIP3   OH270827   3.608   2.489   1.290  0.5304  0.2763 -0.2384
16471TIP3    H170828   3.547   2.438   1.342 -0.4287  1.3581 -0.2545
16471TIP3    H270829   3.661   2.424   1.244  0.4247 -0.6830  0.9605
16472TIP3   OH270830   0.961   6.357  11.490 -0.3375  0.5894  0.4797
16472TIP3    H170831   1.046   6.323  11.462  0.3493 -0.0946  3.1263
16472TIP3    H270832   0.899   6.288  11.468  0.1138  0.2084  0.4025
16473TIP3   OH270833   2.555   2.506   4.819  0.2858  0.2263 -0.1068
16473TIP3    H170834   2.525   2.577   4.876 -3.1699 -2.3412  1.6338
16473TIP3    H270835   2.490   2.503   4.749  0.2737 -1.3131 -0.0429
16474TIP3   OH270836   4.986   1.847   2.243  0.0415 -0.0084  0.8455
16474TIP3    H170837   4.919   1.856   2.174 -0.6338  0.4520  1.5358
16474TIP3    H270838   4.950   1.897   2.317  1.6174  1.1256  0.9005
16475TIP3   OH270839   6.573   5.851  11.412 -0.3908 -0.0281  0.0298
16475TIP3    H170840   6.572   5.856  11.508  0.0852 -1.3471  0.1287
16475TIP3    H270841   6.555   5.940  11.383  0.5901  0.6390  1.3507
16476TIP3   OH270842   2.933   4.722   6.937  0.0456 -0.1243 -0.0752
16476TIP3    H170843   2.894   4.668   6.868  1.1255 -0.2112 -0.6470
16476TIP3    H270844   2.883   4.803   6.936  0.2571  0.0122 -1.2228
16477TIP3   OH270845   6.370   1.693  11.197 -0.2981  0.4538 -0.6898
16477TIP3    H170846   6.311   1.619  11.182  0.2380 -0.6833  2.2158
16477TIP3    H270847   6.312   1.769  11.198 -1.2855 -0.2624 -0.8381
16478TIP3   OH270848   0.389   1.441   5.202  0.2431  0.3546 -0.3624
16478TIP3    H170849   0.413   1.499   5.274  1.4674  0.2227 -0.6444
16478TIP3    H270850   0.439   1.473   5.127  0.7411 -0.8776 -0.5915
16479TIP3   OH270851   0.668   6.089   5.206 -0.0052  0.0715 -0.3695
16479TIP3    H170852   0.704   6.108   5.119 -0.7321  0.0176 -0.6843
16479TIP3    H270853   0.643   6.174   5.241 -1.1015 -0.0538 -0.8291
16480TIP3   OH270854   6.172   0.675   4.238  0.2881  0.7389 -0.2935
16480TIP3    H170855   6.091   0.721   4.259  0.4027  0.6475  0.3814
16480TIP3    H270856   6.180   0.609   4.307  0.9383  0.7578 -0.3451
16481TIP3   OH270857   0.048   1.239  14.510  0.2751  0.0901 -0.0528
16481TIP3    H170858  -0.006   1.205  14.439 -0.7678  1.7924 -0.1380
16481TIP3    H270859   0.026   1.185  14.585 -1.6124  0.7395 -0.0804
16482TIP3   OH270860   2.059   1.734   2.537 -0.1132 -0.4941  0.1116
16482TIP3    H170861   1.967   1.761   2.539 -0.0460 -0.1742 -0.6045
16482TIP3    H270862   2.107   1.815   2.515  0.1137 -1.1126 -1.8508
16483TIP3   OH270863   5.754   6.293   3.715  0.0481  0.2695  1.0495
16483TIP3    H170864   5.674   6.336   3.685 -0.2454 -0.8168  0.2214
16483TIP3    H270865   5.736   6.200   3.707  1.4116  0.0027  0.8208
16484TIP3   OH270866   0.747   2.192  12.335 -0.0664  0.3675  0.3694
16484TIP3    H170867   0.723   2.130  12.266  0.2675  0.6756 -0.0251
16484TIP3    H270868   0.835   2.221  12.313 -0.4514  1.4626  0.1973
16485TIP3   OH270869   3.513   2.657  16.877 -0.4840 -0.7686  0.4141
16485TIP3    H170870   3.453   2.591  16.843 -1.6658  0.0731  0.7720
16485TIP3    H270871   3.557   2.692  16.800 -2.5248  0.5528 -0.2351
16486TIP3   OH270872   1.204   3.092   3.958  0.7400 -0.7762  0.7751
16486TIP3    H170873   1.119   3.107   3.917 -0.6573 -2.6091  2.8272
16486TIP3    H270874   1.248   3.177   3.952 -0.4838 -0.2019 -1.8155
16487TIP3   OH270875   4.099   0.281  16.746  0.1802 -0.5485 -0.2148
16487TIP3    H170876   4.078   0.353  16.687  0.0442 -0.7396 -0.3975
16487TIP3    H270877   4.040   0.294  16.821 -0.4583 -0.9540 -0.6274
16488TIP3   OH270878   6.664   1.024  17.042 -0.3265  0.1408 -0.4421
16488TIP3    H170879   6.727   1.096  17.038  1.3591 -1.1823  0.6926
16488TIP3    H270880   6.596   1.055  17.102  0.7485  0.5485  0.6020
16489TIP3   OH270881   3.150   2.769   2.289 -0.2636  0.3301  0.0808
16489TIP3    H170882   3.183   2.681   2.306  0.4046  0.7809  1.2827
16489TIP3    H270883   3.060   2.756   2.262 -0.3877 -0.6937  0.9175
16490TIP3   OH270884   3.259   0.981  12.316  0.7332 -0.1172 -0.0154
16490TIP3    H170885   3.327   0.915  12.324  0.3775 -0.5695 -0.6651
16490TIP3    H270886   3.179   0.938  12.346  0.9029  0.7430  1.7793
16491TIP3   OH270887   2.898   6.643   1.134 -0.5964  0.0470  0.1580
16491TIP3    H170888   2.811   6.606   1.148 -0.9253 -0.0506 -1.8748
16491TIP3    H270889   2.881   6.734   1.108 -0.2646 -0.4739 -2.0825
16492TIP3   OH270890   3.955   5.841  15.245  0.0440  0.7249  0.5833
16492TIP3    H170891   4.032   5.818  15.296 -0.1295  1.2506  1.0889
16492TIP3    H270892   3.981   5.918  15.195 -0.1312  0.8656  0.7076
16493TIP3   OH270893   2.156   2.228   1.691  0.0372 -0.0996  0.2069
16493TIP3    H170894   2.184   2.264   1.606 -2.3884  1.0687 -0.2000
16493TIP3    H270895   2.106   2.150   1.669 -1.8702  1.0128  0.3549
16494TIP3   OH270896   3.054   3.328   5.534 -0.3582  0.3637 -0.8881
16494TIP3    H170897   3.013   3.270   5.469 -0.6789 -0.6676  0.1888
16494TIP3    H270898   3.141   3.345   5.500 -0.7199  0.3215 -1.8678
16495TIP3   OH270899   4.854   1.942   5.050 -0.2574  0.1107  0.1238
16495TIP3    H170900   4.869   1.922   5.143  1.3994 -0.0390 -0.1317
16495TIP3    H270901   4.877   2.034   5.041  0.4263 -0.0858 -0.2712
16496TIP3   OH270902   2.116   3.324  17.014 -0.3894 -0.1776 -0.5310
16496TIP3    H170903   2.036   3.336  17.065  0.1374 -0.3095  0.3417
16496TIP3    H270904   2.105   3.381  16.938 -0.9974  0.3473 -0.0548
16497TIP3   OH270905   5.983   3.739  13.283  0.1370  0.3103  0.2161
16497TIP3    H170906   6.012   3.812  13.338 -1.6206 -0.2763  2.0341
16497TIP3    H270907   6.025   3.662  13.322 -0.6705 -0.0410  0.4119
16498TIP3   OH270908   5.551   2.991  13.315  0.4451  0.4561 -0.5177
16498TIP3    H170909   5.609   2.933  13.365 -0.2913 -0.7607 -1.0323
16498TIP3    H270910   5.611   3.047  13.266  1.1842  1.2138  1.1421
16499TIP3   OH270911   4.536   2.597  14.647 -0.0693 -0.5570  0.1715
16499TIP3    H170912   4.444   2.595  14.623  0.0723 -0.6435 -0.3813
16499TIP3    H270913   4.557   2.690  14.654 -0.3719 -0.5462  1.0007
16500TIP3   OH270914   3.666   4.679  17.093 -0.3788  0.3852  0.0952
16500TIP3    H170915   3.727   4.607  17.081 -0.0941  0.5431  0.5717
16500TIP3    H270916   3.721   4.756  17.110 -0.7101  0.1768  2.4755
16501TIP3   OH270917   3.550   5.740  16.327 -0.3640  0.0006 -0.3579
16501TIP3    H170918   3.487   5.669  16.339  0.3063 -0.8797 -1.8119
16501TIP3    H270919   3.617   5.726  16.393 -0.7801 -0.0899  0.0489
16502TIP3   OH270920   5.337   4.524  17.106  0.6135 -0.6308 -0.2874
16502TIP3    H170921   5.360   4.505  17.197  0.0932 -1.6601 -0.3554
16502TIP3    H270922   5.410   4.488  17.055  1.0718  0.2491 -0.2757
16503TIP3   OH270923   4.385   4.801   3.204 -0.2758  0.0161 -0.0839
16503TIP3    H170924   4.459   4.740   3.210  1.3660  1.8896 -0.0453
16503TIP3    H270925   4.423   4.880   3.165 -1.8412  1.6990  1.6086
16504TIP3   OH270926   3.269   5.820   5.103  0.1849 -0.4685 -0.2133
16504TIP3    H170927   3.227   5.735   5.116  1.8006 -1.5312 -1.5894
16504TIP3    H270928   3.332   5.805   5.033 -0.2862  2.1671 -1.3036
16505TIP3   OH270929   1.701   2.464   1.815  0.1184  0.3659 -0.1525
16505TIP3    H170930   1.657   2.477   1.731 -3.0514 -1.2993  1.0798
16505TIP3    H270931   1.779   2.520   1.810 -0.3144  0.9181 -3.8472
16506TIP3   OH270932   3.356   1.477   3.860  0.3819  0.6685  0.0458
16506TIP3    H170933   3.302   1.545   3.819  0.6750  1.1371  0.4133
16506TIP3    H270934   3.439   1.522   3.879  0.8424  0.0105 -0.3616
16507TIP3   OH270935   5.182   3.357   2.105 -0.1617  0.2178 -0.0897
16507TIP3    H170936   5.143   3.445   2.098  0.6522  0.6462  0.5980
16507TIP3    H270937   5.271   3.373   2.136 -0.5189 -0.9335  1.6457
16508TIP3   OH270938   0.228   6.719  14.085  0.3731 -0.6983 -0.3229
16508TIP3    H170939   0.164   6.712  14.156 -0.5633 -0.7173 -1.1447
16508TIP3    H270940   0.182   6.767  14.016  2.5017  2.8870  0.4835
16509TIP3   OH270941   1.391   5.056   4.494 -0.2680 -0.5151  0.1757
16509TIP3    H170942   1.298   5.039   4.476  0.0744 -0.9474 -1.3466
16509TIP3    H270943   1.391   5.138   4.542 -1.3961  0.0672 -0.7486
16510TIP3   OH270944   1.152   2.289   1.417 -0.6984 -0.2019  0.2627
16510TIP3    H170945   1.206   2.214   1.441 -0.4100  0.1264  0.6400
16510TIP3    H270946   1.208   2.365   1.432 -1.0139  0.0964 -0.0475
16511TIP3   OH270947   4.648   1.827  13.920  0.1626  0.1797 -0.2500
16511TIP3    H170948   4.612   1.810  14.007 -0.7000  0.1373 -0.6100
16511TIP3    H270949   4.654   1.922  13.914 -0.2932  0.2034 -0.3477
16512TIP3   OH270950   0.659   3.779   1.386 -0.3955  0.5680 -0.5913
16512TIP3    H170951   0.655   3.687   1.414 -2.2706  0.9369  0.5335
16512TIP3    H270952   0.722   3.819   1.446  1.2016 -0.1375 -1.7270
16513TIP3   OH270953   4.858   4.567   4.200 -0.4273 -0.4918 -0.0950
16513TIP3    H170954   4.939   4.555   4.250 -0.0742  1.6871 -0.0440
16513TIP3    H270955   4.865   4.504   4.128 -0.1805 -2.5320  1.6176
16514TIP3   OH270956   4.759   5.928  16.180  0.3935  0.2376 -0.0326
16514TIP3    H170957   4.724   6.016  16.181 -3.0801 -0.9805 -1.0632
16514TIP3    H270958   4.831   5.930  16.117  1.2724  2.5230  0.9489
16515TIP3   OH270959   3.699   5.865   4.635  0.4596  0.1196 -0.3399
16515TIP3    H170960   3.607   5.889   4.648  0.0349 -1.1807 -0.8491
16515TIP3    H270961   3.713   5.791   4.695  1.0229 -0.0401 -0.6646
16516TIP3   OH270962   1.980   5.949  15.133  0.2739 -0.2647  0.4639
16516TIP3    H170963   2.055   5.976  15.185  2.4876 -2.2601 -1.4299
16516TIP3    H270964   1.985   5.853  15.130 -0.6927 -0.3356 -1.9411
16517TIP3   OH270965   2.573   2.212  13.993  0.1544 -0.4469 -0.3934
16517TIP3    H170966   2.575   2.127  14.037 -0.4503  0.2780  1.1173
16517TIP3    H270967   2.482   2.239  13.998  0.8159  1.6565  1.9811
16518TIP3   OH270968   6.204   5.664   0.308 -0.2947 -0.1888 -0.8818
16518TIP3    H170969   6.270   5.629   0.368 -0.3011  2.1574  0.6130
16518TIP3    H270970   6.132   5.601   0.313  0.3154 -0.8261  0.4524
16519TIP3   OH270971   1.957   3.423  16.428  0.7618  0.2084 -0.5158
16519TIP3    H170972   1.944   3.513  16.459 -0.7487 -0.7116  1.7593
16519TIP3    H270973   2.050   3.418  16.408  1.1374  1.9299  0.5546
16520TIP3   OH270974   4.100   3.257   1.481  0.3918 -0.3925  0.1408
16520TIP3    H170975   4.114   3.338   1.431  1.0373  0.1501  1.1706
16520TIP3    H270976   4.085   3.190   1.414 -3.2472  1.0774 -0.7284
16521TIP3   OH270977   3.784   3.788  16.132 -0.0075  0.2020 -0.2265
16521TIP3    H170978   3.845   3.729  16.177  0.6887  1.7032  0.8736
16521TIP3    H270979   3.759   3.852  16.198  1.1708  2.6192 -1.9506
16522TIP3   OH270980   4.620   2.446  11.241  0.0942 -0.0535  0.1747
16522TIP3    H170981   4.654   2.373  11.188 -0.6443 -0.1126 -0.2334
16522TIP3    H270982   4.659   2.524  11.202  2.4676 -0.3047  1.8102
16523TIP3   OH270983   6.002   0.989   4.468 -0.6009  0.1778 -0.5522
16523TIP3    H170984   5.934   1.043   4.508  1.4406  2.2856  0.3286
16523TIP3    H270985   6.048   1.049   4.409  1.1226 -0.8653 -0.3348
16524TIP3   OH270986   3.781   0.343   3.678 -0.3174  0.6011 -0.2316
16524TIP3    H170987   3.765   0.372   3.589 -3.3470  0.3733  0.1370
16524TIP3    H270988   3.796   0.424   3.727  0.4124  0.7895 -0.7389
16525TIP3   OH270989   1.328   3.072  11.702 -0.2396  0.5554  0.7107
16525TIP3    H170990   1.238   3.083  11.674  0.2320  0.5662 -0.8750
16525TIP3    H270991   1.381   3.099  11.627  1.0768 -0.6118  1.1707
16526TIP3   OH270992   5.561   3.011  15.900 -0.2995  0.0607 -0.1825
16526TIP3    H170993   5.577   2.943  15.834 -0.0982  2.0691 -2.3066
16526TIP3    H270994   5.474   3.046  15.879 -0.2129  0.7912  0.5902
16527TIP3   OH270995   4.405   2.231   2.538  0.7782 -0.2296 -0.5451
16527TIP3    H170996   4.409   2.136   2.552 -0.4976 -0.3623 -0.9755
16527TIP3    H270997   4.325   2.244   2.487  0.8806  1.0946 -0.3860
16528TIP3   OH270998   2.362   2.259   6.446  0.6407 -0.1169 -0.5546
16528TIP3    H170999   2.388   2.349   6.426  1.3101 -0.7114 -2.6072
16528TIP3    H271000   2.284   2.268   6.500  0.8177  1.6942 -0.5417
16529TIP3   OH271001   2.433   4.642   2.390  0.0868  0.2716  0.0830
16529TIP3    H171002   2.436   4.734   2.418 -0.5262  0.6680 -1.0905
16529TIP3    H271003   2.340   4.623   2.380  0.2211 -0.4177  0.0922
16530TIP3   OH271004   2.214   5.433   6.486  0.0572 -0.5012 -0.4443
16530TIP3    H171005   2.298   5.387   6.483  1.4510  1.4792  2.5664
16530TIP3    H271006   2.231   5.510   6.540 -3.3567  0.8689 -1.0468
16531TIP3   OH271007   4.374   3.510  13.465 -0.3925 -0.4040  0.8127
16531TIP3    H171008   4.321   3.504  13.545  0.0997 -1.2933  1.0880
16531TIP3    H271009   4.442   3.443  13.477 -0.8818 -1.2257 -0.7888
16532TIP3   OH271010   5.055   5.536  15.837  0.0430  0.4556  0.0046
16532TIP3    H171011   5.135   5.587  15.850  1.2308 -1.4657  0.8388
16532TIP3    H271012   5.040   5.494  15.922  0.7159 -2.6200 -1.2579
16533TIP3   OH271013   5.504   2.823  15.354  0.5244  0.5512 -0.5756
16533TIP3    H171014   5.495   2.811  15.259  1.7897 -1.5707 -0.4791
16533TIP3    H271015   5.414   2.829  15.386 -0.2871 -3.8809 -1.3929
16534TIP3   OH271016   6.521   2.224  16.677  0.1427 -0.2263 -0.1485
16534TIP3    H171017   6.435   2.257  16.699 -0.0863 -0.0921 -1.1935
16534TIP3    H271018   6.524   2.225  16.581  1.4000  0.0238 -0.1272
16535TIP3   OH271019   5.846   4.077  16.575  0.4137 -0.2542  0.3587
16535TIP3    H171020   5.841   3.982  16.565 -0.9625 -0.1701  0.1232
16535TIP3    H271021   5.838   4.111  16.486 -2.2997  0.1648  0.6814
16536TIP3   OH271022   2.913   5.533   3.418 -0.3026  0.5493  0.1410
16536TIP3    H171023   2.994   5.581   3.438 -0.4288  2.2114 -2.7533
16536TIP3    H271024   2.922   5.510   3.326 -2.3312 -0.9506  0.2702
16537TIP3   OH271025   0.570   3.101  15.154 -0.1393  0.5834 -0.2070
16537TIP3    H171026   0.621   3.038  15.205  0.9822 -0.0785 -2.0584
16537TIP3    H271027   0.488   3.056  15.135 -0.4117  0.6960  0.6876
16538TIP3   OH271028   6.034   1.269  12.160 -0.3530 -0.3161 -0.5989
16538TIP3    H171029   5.984   1.275  12.078 -0.7422 -1.3648 -0.4437
16538TIP3    H271030   6.098   1.340  12.153  0.2061 -0.9345 -2.2141
16539TIP3   OH271031   3.661   0.598  11.462  0.4804 -0.7922  0.5147
16539TIP3    H171032   3.665   0.503  11.469  1.1651 -0.9056 -1.1354
16539TIP3    H271033   3.672   0.629  11.552  1.9878 -2.2327  0.8679
16540TIP3   OH271034   2.351   0.960   1.917  0.4336  0.0889 -0.1090
16540TIP3    H171035   2.419   0.892   1.928 -0.7429 -1.3568 -1.2927
16540TIP3    H271036   2.394   1.028   1.866  1.8278  0.5587  1.5942
16541TIP3   OH271037   1.491   1.315  13.589  0.6760  0.3022  0.4979
16541TIP3    H171038   1.423   1.250  13.569  2.1273 -0.9903 -0.4395
16541TIP3    H271039   1.449   1.375  13.651 -1.5669  0.0289 -0.6704
16542TIP3   OH271040   3.499   1.252   1.023  0.3939 -0.1494 -0.2330
16542TIP3    H171041   3.483   1.184   0.958  0.7871 -0.3741 -0.0987
16542TIP3    H271042   3.588   1.236   1.053  0.9110  1.1179 -1.0153
16543TIP3   OH271043   3.118   3.407  13.416 -0.4011  0.3946 -0.8641
16543TIP3    H171044   3.126   3.313  13.401  0.3380  0.7919 -3.7294
16543TIP3    H271045   3.198   3.430  13.463  0.4392 -0.1723 -1.9435
16544TIP3   OH271046   3.832   2.551   4.033  0.5301  0.4339 -0.0920
16544TIP3    H171047   3.834   2.615   4.104  1.3762  0.1859  0.1180
16544TIP3    H271048   3.859   2.601   3.955  1.4300  0.2876  0.1167
16545TIP3   OH271049   0.682   4.924   6.143 -0.2362  0.1491 -0.3004
16545TIP3    H171050   0.643   4.884   6.220 -1.1748 -0.2380 -0.9563
16545TIP3    H271051   0.665   5.018   6.153 -0.7287  0.0550 -0.2392
16546TIP3   OH271052   0.749   0.640  14.276  0.0717  0.0613 -0.0683
16546TIP3    H171053   0.764   0.599  14.191  0.1274 -0.7624  0.3301
16546TIP3    H271054   0.784   0.729  14.266 -0.8961  0.3400 -1.2443
16547TIP3   OH271055   6.555   2.022  11.768  0.4542 -0.1355 -0.0064
16547TIP3    H171056   6.574   1.942  11.817  0.4586 -1.5807 -2.1978
16547TIP3    H271057   6.463   2.041  11.788 -0.3427 -2.2120 -1.3272
16548TIP3   OH271058   1.547   5.040   1.671  0.5373  0.2078 -0.3296
16548TIP3    H171059   1.480   4.982   1.707  1.3489  0.2379  1.2856
16548TIP3    H271060   1.497   5.114   1.635 -0.3685 -0.4123 -0.3713
16549TIP3   OH271061   5.080   6.217  12.341 -0.1923  0.1846 -0.1091
16549TIP3    H171062   5.030   6.298  12.326 -1.5903 -0.8475 -1.2462
16549TIP3    H271063   5.077   6.171  12.257  0.2632 -1.2208  0.6217
16550TIP3   OH271064   2.749   4.559   0.567  0.5597  0.2011  0.6700
16550TIP3    H171065   2.659   4.561   0.535  0.1478 -1.4365  1.6463
16550TIP3    H271066   2.799   4.516   0.498  0.5251  0.7349  0.3085
16551TIP3   OH271067   6.606   3.363  12.950 -0.2980 -0.7724 -0.0995
16551TIP3    H171068   6.600   3.399  13.039 -0.0550 -0.8901 -0.0337
16551TIP3    H271069   6.561   3.427  12.895 -0.7466 -0.8654  0.1546
16552TIP3   OH271070   1.361   3.418  10.863 -0.5728  0.2874  0.1471
16552TIP3    H171071   1.297   3.393  10.797 -0.6728 -2.2190  1.0913
16552TIP3    H271072   1.380   3.337  10.911  2.4664  1.1471  0.6421
16553TIP3   OH271073   5.571   3.050   1.485 -0.2222  0.7780 -0.5527
16553TIP3    H171074   5.513   2.990   1.532  0.5529  0.1260 -0.3975
16553TIP3    H271075   5.517   3.127   1.469 -1.3614 -0.0898 -1.0680
16554TIP3   OH271076   0.298   4.719   1.752 -0.6667 -0.4108  0.0168
16554TIP3    H171077   0.243   4.722   1.674 -0.0180  3.8047 -0.5282
16554TIP3    H271078   0.236   4.711   1.825 -1.3880 -2.6853 -0.7737
16555TIP3   OH271079   1.316   3.617   1.674 -0.0801 -0.5052 -0.0683
16555TIP3    H171080   1.341   3.690   1.616  1.5062 -0.9338  0.0418
16555TIP3    H271081   1.316   3.540   1.616 -2.8793 -0.3202 -0.4498
16556TIP3   OH271082   4.403   5.427   4.852  0.2298 -0.1903  0.1290
16556TIP3    H171083   4.466   5.431   4.923  0.3824 -0.6311  0.0198
16556TIP3    H271084   4.318   5.444   4.894  0.3960  0.2098  0.3044
16557TIP3   OH271085   3.110   1.082  15.330 -0.2332 -0.3859  0.1541
16557TIP3    H171086   3.059   1.111  15.406 -0.5987  0.4310 -0.4021
16557TIP3    H271087   3.142   0.995  15.356 -1.2655 -0.5956  0.8164
16558TIP3   OH271088   1.203   5.069   5.066 -0.0280  0.1565 -0.1817
16558TIP3    H171089   1.141   5.037   5.133 -0.3508  0.3176 -0.3988
16558TIP3    H271090   1.237   5.150   5.103  2.1723 -1.2926  1.1973
16559TIP3   OH271091   1.697   5.035   1.962 -0.3820  0.0742 -0.0504
16559TIP3    H171092   1.761   5.024   2.033 -1.0229 -2.4290  0.2381
16559TIP3    H271093   1.738   4.991   1.887 -0.4181  1.2692 -0.7911
16560TIP3   OH271094   3.769   3.149   3.392  0.0411  0.9826 -0.0846
16560TIP3    H171095   3.696   3.117   3.445 -1.0771 -0.3043 -2.3050
16560TIP3    H271096   3.840   3.163   3.456 -1.4536  0.2621  1.8413
16561TIP3   OH271097   5.283   3.891  13.607  0.0913  0.3402 -0.0764
16561TIP3    H171098   5.340   3.873  13.682 -0.7774  0.4457  0.6240
16561TIP3    H271099   5.272   3.806  13.564  0.7566  0.3158 -0.2116
16562TIP3   OH271100   2.312   2.092  12.749  0.5336 -0.4399  0.4413
16562TIP3    H171101   2.247   2.051  12.805  0.5693 -0.7526  0.2534
16562TIP3    H271102   2.325   2.179  12.787 -1.7964  0.5902 -0.9253
16563TIP3   OH271103   2.819   3.454  13.800 -0.9201  0.4588 -0.8331
16563TIP3    H171104   2.843   3.542  13.773 -0.3722 -0.2161 -2.7129
16563TIP3    H271105   2.723   3.452  13.796 -0.8925  0.5878 -2.2522
16564TIP3   OH271106   3.065   0.061   3.000  0.1320 -0.6536  0.5473
16564TIP3    H171107   3.063   0.004   2.923  1.6061  0.0677 -0.0597
16564TIP3    H271108   3.092   0.147   2.966 -1.8478  0.4125  1.4613
16565TIP3   OH271109   6.177   4.554  11.708 -0.3156  0.1989 -0.1314
16565TIP3    H171110   6.240   4.602  11.654  0.1115  1.1494  1.1565
16565TIP3    H271111   6.121   4.510  11.645  1.4203 -0.4081 -1.3368
16566TIP3   OH271112   5.105   3.377  16.948 -0.5738 -0.0678  0.0420
16566TIP3    H171113   5.091   3.471  16.959  1.7955  0.3718 -0.0977
16566TIP3    H271114   5.122   3.345  17.037 -0.9588 -0.3022  0.0362
16567TIP3   OH271115   0.900   0.825   3.182 -0.9792  0.4424 -0.0829
16567TIP3    H171116   0.929   0.738   3.211 -0.4014  1.1191  1.5375
16567TIP3    H271117   0.807   0.815   3.164 -1.5105 -0.0269  2.4793
16568TIP3   OH271118   5.904   0.466  15.499  0.0478 -0.0440  0.0484
16568TIP3    H171119   5.970   0.459  15.568  0.2024 -0.3101 -0.1249
16568TIP3    H271120   5.936   0.410  15.429  0.5599  1.2353 -0.7783
16569TIP3   OH271121   4.894   1.644   2.569 -0.2563  0.1480 -0.1832
16569TIP3    H171122   4.956   1.630   2.498 -0.0413  1.8633 -0.3764
16569TIP3    H271123   4.896   1.738   2.585 -2.8580  0.2937 -0.2507
16570TIP3   OH271124   3.625   1.410   0.789  0.6905  0.4683  0.2638
16570TIP3    H171125   3.556   1.476   0.788  0.3195  0.0886  0.6543
16570TIP3    H271126   3.590   1.338   0.842  1.4202  0.3085  0.5477
16571TIP3   OH271127   4.342   3.056   0.684  0.0687 -0.1021 -0.0341
16571TIP3    H171128   4.362   2.983   0.743 -1.2563 -0.3212  0.1835
16571TIP3    H271129   4.264   3.097   0.722 -0.4182  0.1569 -1.2696
16572TIP3   OH271130   5.913   1.251  11.837  0.6363 -0.0408 -0.3812
16572TIP3    H171131   5.837   1.202  11.871  1.3234 -0.8786 -0.0048
16572TIP3    H271132   5.875   1.330  11.798 -0.5744 -1.1140 -1.5018
16573TIP3   OH271133   4.399   2.086  11.168  0.1835  0.2430 -0.1070
16573TIP3    H171134   4.416   2.111  11.259 -0.8129 -1.9273  0.7369
16573TIP3    H271135   4.335   2.151  11.137 -1.5797 -0.5766  1.6709
16574TIP3   OH271136   4.864   5.339   2.087  0.2007 -0.2442  0.1690
16574TIP3    H171137   4.774   5.367   2.072  0.2910  0.8426  1.4929
16574TIP3    H271138   4.856   5.265   2.147  0.1937  0.1521  0.6672
16575TIP3   OH271139   2.199   5.640  16.860  0.2845  0.1612  0.3766
16575TIP3    H171140   2.155   5.693  16.927 -0.2628  0.0293  0.1244
16575TIP3    H271141   2.180   5.685  16.778  2.3548  1.2874  0.4288
16576TIP3   OH271142   5.105   4.506  16.147 -0.2280 -0.2216  0.2661
16576TIP3    H171143   5.014   4.520  16.172 -0.4134 -0.7623 -0.0959
16576TIP3    H271144   5.122   4.415  16.172  0.1705 -0.1641  0.2020
16577TIP3   OH271145   6.637   0.219  10.526 -0.5126 -0.3715 -0.0629
16577TIP3    H171146   6.586   0.143  10.552 -0.4898  0.0151  1.1561
16577TIP3    H271147   6.712   0.183  10.479  0.6053 -1.2772  2.2871
16578TIP3   OH271148   5.116   0.074   2.842 -0.1146 -0.2893 -0.2378
16578TIP3    H171149   5.125  -0.017   2.866 -1.3701 -0.3051  0.2787
16578TIP3    H271150   5.126   0.123   2.924 -0.9643 -0.0954 -0.2319
16579TIP3   OH271151   5.304   3.275  12.536 -0.2080 -0.2064 -0.1814
16579TIP3    H171152   5.266   3.195  12.501  0.7015  0.5316 -3.1931
16579TIP3    H271153   5.397   3.254  12.548 -0.0326  0.2720 -0.6611
16580TIP3   OH271154   2.625   4.857  14.764  0.6926  0.1374 -0.1082
16580TIP3    H171155   2.691   4.788  14.775 -0.7850 -1.7639 -2.2680
16580TIP3    H271156   2.579   4.859  14.848 -0.1733 -2.6647 -0.4024
16581TIP3   OH271157   3.585   6.205   2.732  0.2340  0.1440 -0.4135
16581TIP3    H171158   3.506   6.258   2.737  0.4113  0.4248 -0.5922
16581TIP3    H271159   3.556   6.121   2.696  0.1345  0.4760 -1.1087
16582TIP3   OH271160   3.135   0.440   1.379 -0.2898  0.1500 -0.0160
16582TIP3    H171161   3.092   0.448   1.294 -1.3433  0.3846  0.5232
16582TIP3    H271162   3.194   0.515   1.384 -0.9632  0.6878 -0.1271
16583TIP3   OH271163   4.462   4.150   3.917  0.3839 -0.2686  0.2781
16583TIP3    H171164   4.409   4.121   3.844  3.2461 -1.7111 -1.4062
16583TIP3    H271165   4.460   4.077   3.979 -0.5983  0.2233  0.8498
16584TIP3   OH271166   2.255   1.991   6.362 -0.2833  0.2330  0.0261
16584TIP3    H171167   2.209   2.032   6.289  0.0275  0.7190  0.0975
16584TIP3    H271168   2.309   2.062   6.399 -0.2143 -0.0844  0.5380
16585TIP3   OH271169   1.913   4.441   2.490  0.2277  0.2554 -0.4021
16585TIP3    H171170   1.864   4.446   2.408  2.1725  0.8524 -1.5796
16585TIP3    H271171   1.912   4.349   2.513  0.6133 -0.1045 -1.7269
16586TIP3   OH271172   1.271   6.480   2.563 -0.5746  0.0621 -0.9706
16586TIP3    H171173   1.254   6.386   2.564  1.6117 -0.4579  2.3966
16586TIP3    H271174   1.207   6.516   2.624 -0.9367  0.6817 -1.7020
16587TIP3   OH271175   3.260   1.668  13.720  0.9846 -0.4391 -0.6027
16587TIP3    H171176   3.201   1.628  13.656  1.5185 -1.7470 -0.3008
16587TIP3    H271177   3.324   1.715  13.666  1.2814 -1.3213 -1.0477
16588TIP3   OH271178   2.218   2.280   1.959 -0.3712  0.4815 -0.6236
16588TIP3    H171179   2.198   2.189   1.983  3.2287 -0.4986 -0.7421
16588TIP3    H271180   2.228   2.278   1.864  2.4095  0.2279 -0.4180
16589TIP3   OH271181   3.808   5.351  16.921 -0.1115 -0.1187  0.2702
16589TIP3    H171182   3.778   5.378  16.835 -1.8031  0.6117  1.0597
16589TIP3    H271183   3.864   5.423  16.951 -0.2162  0.0132  0.1452
16590TIP3   OH271184   5.607   2.932  15.011 -0.2166 -0.1959 -0.3531
16590TIP3    H171185   5.536   2.868  15.001 -0.5545  0.0945  0.1449
16590TIP3    H271186   5.665   2.894  15.076  0.9739 -1.1969 -1.9169
16591TIP3   OH271187   2.867   1.813  12.752 -0.1997 -0.5543 -0.2276
16591TIP3    H171188   2.856   1.874  12.825  0.2145 -0.9854  0.2001
16591TIP3    H271189   2.811   1.739  12.773 -1.8636  0.2821 -1.4602
16592TIP3   OH271190   0.323   5.982  12.927 -0.3014  0.1801  0.2440
16592TIP3    H171191   0.274   6.059  12.898  0.3353  0.8430  0.9145
16592TIP3    H271192   0.257   5.927  12.969 -0.5562  0.8951  0.8009
16593TIP3   OH271193   1.144   4.908  10.697 -0.0552  0.3239  0.1408
16593TIP3    H171194   1.060   4.952  10.683 -0.6370 -0.8274 -0.0946
16593TIP3    H271195   1.193   4.926  10.617 -0.4522  0.1992 -0.1361
16594TIP3   OH271196   1.934   6.513  12.742  0.0598 -0.1948  0.2596
16594TIP3    H171197   1.977   6.508  12.828 -0.5217  0.0198  0.5689
16594TIP3    H271198   1.905   6.605  12.736 -1.5146 -0.6347  0.6343
16595TIP3   OH271199   0.248   0.994  16.789 -0.0835 -0.8997  0.3452
16595TIP3    H171200   0.315   0.992  16.857  0.2716 -0.7053  0.0075
16595TIP3    H271201   0.213   0.905  16.787  0.3376 -1.0658  0.3559
16596TIP3   OH271202   6.667   3.032   5.559 -0.2485 -0.4442 -0.1404
16596TIP3    H171203   6.620   3.023   5.476  0.9886 -0.5336 -0.8517
16596TIP3    H271204   6.707   2.946   5.574 -0.4008 -0.4093  0.5254
16597TIP3   OH271205   2.070   0.014  12.386  0.3786 -0.6224 -0.3351
16597TIP3    H171206   2.127  -0.018  12.316  1.3628  1.1199 -0.3823
16597TIP3    H271207   2.097   0.104  12.400 -0.6857 -0.5225  1.4081
16598TIP3   OH271208   6.335   0.847   4.108  0.0212 -0.0478  0.3848
16598TIP3    H171209   6.272   0.782   4.139 -0.3124  0.3674  0.5938
16598TIP3    H271210   6.417   0.825   4.153  0.1400 -0.8353 -0.1966
16599TIP3   OH271211   4.359   0.809  15.570 -0.1567 -0.0159 -0.3020
16599TIP3    H171212   4.277   0.801  15.618  0.4809  0.0687  0.8350
16599TIP3    H271213   4.427   0.808  15.638  0.8293 -0.8003 -1.2627
16600TIP3   OH271214   2.882   3.272  14.534 -1.0346 -0.5862  0.1633
16600TIP3    H171215   2.893   3.215  14.457 -0.5964 -0.9668  0.5021
16600TIP3    H271216   2.809   3.330  14.511 -0.0456  0.2095 -1.0872
16601TIP3   OH271217   3.032   3.936   4.341 -0.1625 -0.4267  0.1937
16601TIP3    H171218   3.111   3.949   4.393  0.7874 -0.7190 -1.1347
16601TIP3    H271219   2.994   4.024   4.334  0.3140 -0.1996  0.4014
16602TIP3   OH271220   5.046   5.637  16.863  0.4232 -0.1343  0.2491
16602TIP3    H171221   4.970   5.595  16.824  2.0542 -2.1268 -0.9840
16602TIP3    H271222   5.066   5.710  16.805 -1.4315  1.4655  1.4825
16603TIP3   OH271223   0.536   4.060   0.761 -0.3696 -0.2579 -0.3731
16603TIP3    H171224   0.552   3.989   0.823  3.1873  1.1604  0.5738
16603TIP3    H271225   0.498   4.130   0.814 -0.5487 -0.2360 -0.5305
16604TIP3   OH271226   6.351   1.841   1.810  0.2728 -0.0441  0.2606
16604TIP3    H171227   6.333   1.893   1.731  1.2681  0.0779  0.0942
16604TIP3    H271228   6.290   1.875   1.876 -0.9841 -0.5416 -0.5985
16605TIP3   OH271229   3.694   0.106   0.352  0.6786  0.1580  0.0456
16605TIP3    H171230   3.704   0.020   0.393  0.5716  0.6527  1.1620
16605TIP3    H271231   3.749   0.103   0.275  0.0547 -1.1827 -0.3727
16606TIP3   OH271232   5.976   0.070  12.224  0.1675  0.6173 -0.0881
16606TIP3    H171233   5.997  -0.003  12.166  1.5658  1.3529 -0.5572
16606TIP3    H271234   5.909   0.120  12.176 -2.5576 -1.5025  1.2213
16607TIP3   OH271235   6.142   0.788   3.245  0.6977 -0.1592 -0.8924
16607TIP3    H171236   6.127   0.694   3.254  0.9044 -0.1016  0.1883
16607TIP3    H271237   6.054   0.826   3.236  0.6115 -0.4452 -1.2668
16608TIP3   OH271238   4.519   1.603  13.811  0.2928 -1.0034  0.1173
16608TIP3    H171239   4.582   1.642  13.871  1.5028 -0.9919 -1.1119
16608TIP3    H271240   4.504   1.671  13.745  0.3384 -1.6363 -0.5565
16609TIP3   OH271241   4.633   2.734  11.651  0.7846 -0.0966 -0.3361
16609TIP3    H171242   4.691   2.741  11.727  0.0323 -0.5458  0.2944
16609TIP3    H271243   4.549   2.705  11.687  1.0298 -2.6303 -1.5787
16610TIP3   OH271244   0.590   2.316   3.840  0.6308  0.8101 -0.0437
16610TIP3    H171245   0.623   2.290   3.754 -1.9995  1.0014 -1.2076
16610TIP3    H271246   0.512   2.262   3.853  0.9382  0.8373  2.2337
16611TIP3   OH271247   1.296   3.941  10.669 -0.2694 -0.1093  0.2024
16611TIP3    H171248   1.307   3.856  10.627 -0.1204  0.2208 -0.4446
16611TIP3    H271249   1.385   3.968  10.693  0.0945  1.2007 -2.3121
16612TIP3   OH271250   1.101   5.682  16.737  0.3797 -0.0209 -0.5502
16612TIP3    H171251   1.094   5.699  16.831  1.3398 -1.5694 -0.1559
16612TIP3    H271252   1.045   5.749  16.697 -2.2935 -0.9460  1.2624
16613TIP3   OH271253   1.086   4.292  14.310 -0.3950  0.6864  0.4881
16613TIP3    H171254   1.135   4.324  14.234 -1.3491  0.3095 -0.3154
16613TIP3    H271255   1.151   4.246  14.363 -0.2054 -1.9218 -1.7392
16614TIP3   OH271256   1.202   5.456   2.802  0.2655  0.3473 -0.1693
16614TIP3    H171257   1.229   5.373   2.762  1.1656  1.1472 -1.2831
16614TIP3    H271258   1.144   5.496   2.737 -1.5452 -0.1182  1.0686
16615TIP3   OH271259   3.091   1.608   2.185 -0.1050  0.0858  0.4480
16615TIP3    H171260   3.057   1.552   2.255 -0.4543  0.5561  0.6552
16615TIP3    H271261   3.177   1.636   2.216 -0.2551  0.2857  0.6872
16616TIP3   OH271262   3.170   4.509  12.397  0.0342 -0.4542 -0.0635
16616TIP3    H171263   3.116   4.566  12.452  1.1341 -1.0082  1.6428
16616TIP3    H271264   3.108   4.449  12.356 -1.2740  2.3096 -2.5068
16617TIP3   OH271265   3.148   3.836   2.160 -0.1505  0.0176 -0.1444
16617TIP3    H171266   3.105   3.751   2.173 -0.3307  0.1510  0.1452
16617TIP3    H271267   3.224   3.833   2.218 -0.8749  0.5565  0.8656
16618TIP3   OH271268   0.920   2.501   4.891  0.0201 -0.2573 -0.6413
16618TIP3    H171269   0.915   2.546   4.975 -0.0365 -1.4605  0.0160
16618TIP3    H271270   0.925   2.572   4.827  1.3318  0.6881  0.4290
16619TIP3   OH271271   2.696   2.950   1.653 -0.4438 -0.0328 -0.0434
16619TIP3    H171272   2.757   3.019   1.626  1.6637 -0.6847  2.6606
16619TIP3    H271273   2.721   2.875   1.600  0.4978 -0.0262  0.3729
16620TIP3   OH271274   3.829   1.186   4.983 -0.0284  0.5622 -0.2246
16620TIP3    H171275   3.870   1.104   4.956  0.4666  0.9443 -0.6499
16620TIP3    H271276   3.778   1.163   5.061  1.1894  0.1140  0.4694
16621TIP3   OH271277   0.454   1.870  13.851 -0.1111  0.0896 -0.0948
16621TIP3    H171278   0.477   1.907  13.936 -0.9537 -1.0656  0.6752
16621TIP3    H271279   0.532   1.885  13.796  0.7128  0.2462  1.0768
16622TIP3   OH271280   4.629   1.441  10.504  0.2015 -0.1620 -0.0726
16622TIP3    H171281   4.551   1.452  10.559  0.5937 -0.3182  0.5367
16622TIP3    H271282   4.654   1.531  10.480 -1.5758 -0.2089 -2.3580
16623TIP3   OH271283   5.823   4.875   4.413  0.3633  0.7529  0.2487
16623TIP3    H171284   5.809   4.956   4.461  1.4733 -1.0209  3.8740
16623TIP3    H271285   5.739   4.859   4.369 -1.0118  2.1654  2.1928
16624TIP3   OH271286   4.628   3.663   0.804 -0.3127  0.3556  0.1581
16624TIP3    H171287   4.701   3.721   0.826  1.4684 -1.0034 -1.6636
16624TIP3    H271288   4.643   3.585   0.856 -0.2379 -0.0625 -0.4752
16625TIP3   OH271289   3.308   1.340   5.207  0.5631  0.1541  0.8142
16625TIP3    H171290   3.314   1.352   5.302 -0.3688 -0.9316  1.0340
16625TIP3    H271291   3.323   1.246   5.194 -0.3113  0.1217 -0.0128
16626TIP3   OH271292   6.416   4.268  15.227  0.2026 -0.1010 -0.3483
16626TIP3    H171293   6.394   4.362  15.230  0.6682  0.0698 -1.6062
16626TIP3    H271294   6.506   4.264  15.261  0.6326  0.0819 -1.4364
16627TIP3   OH271295   4.366   1.768   6.209  0.6563 -0.0875  0.2921
16627TIP3    H171296   4.461   1.776   6.223  0.7152 -1.7451  1.0276
16627TIP3    H271297   4.355   1.683   6.167 -0.6114 -0.3891  1.1975
16628TIP3   OH271298   2.656   5.096   2.740 -0.0826  0.2038  0.6919
16628TIP3    H171299   2.691   5.149   2.668  0.7463 -0.6098  0.4794
16628TIP3    H271300   2.702   5.012   2.733 -1.4852 -0.6177  0.9161
16629TIP3   OH271301   4.001   0.465   4.426  0.0718  0.2705  0.4640
16629TIP3    H171302   3.913   0.499   4.441 -0.0991 -0.3156  0.8436
16629TIP3    H271303   4.021   0.413   4.504  0.7957  0.4765  0.4255
16630TIP3   OH271304   1.016   1.874   3.652  0.2751  0.4067 -0.1859
16630TIP3    H171305   1.049   1.920   3.729 -0.2495 -0.2111  0.4186
16630TIP3    H271306   0.928   1.845   3.677  1.4084 -2.9882  0.3970
16631TIP3   OH271307   3.647   2.247   4.680  0.2795 -0.1767  0.0294
16631TIP3    H171308   3.640   2.166   4.630 -1.7978  1.0080 -1.7791
16631TIP3    H271309   3.699   2.305   4.624  1.0684  0.0279  0.9456
16632TIP3   OH271310   4.890   4.071  16.097 -0.5060 -0.0287  0.1564
16632TIP3    H171311   4.972   4.109  16.065 -0.9583 -1.7724 -3.5803
16632TIP3    H271312   4.918   3.999  16.154  0.4735  0.4247  0.2861
16633TIP3   OH271313   5.157   1.299  13.843 -0.9862 -0.5567 -0.1113
16633TIP3    H171314   5.201   1.363  13.898 -0.2395 -2.2777  1.3548
16633TIP3    H271315   5.064   1.323  13.848 -0.7731  0.1199  0.7759
16634TIP3   OH271316   4.261   4.535  11.682 -0.0073  0.3675 -0.2631
16634TIP3    H171317   4.327   4.522  11.750 -0.8077 -0.1396  0.4443
16634TIP3    H271318   4.206   4.456  11.687  0.4443 -0.1019 -2.1044
16635TIP3   OH271319   4.288   0.530  13.951  0.2256  0.2702 -0.0940
16635TIP3    H171320   4.245   0.570  14.027  0.8005  1.0154 -0.1447
16635TIP3    H271321   4.332   0.453  13.986 -1.2401 -0.6024 -0.0631
16636TIP3   OH271322   3.016   6.179   5.994 -0.0768  0.2603 -0.2700
16636TIP3    H171323   3.058   6.262   5.974  2.1087 -0.6977  0.0096
16636TIP3    H271324   2.925   6.201   6.013  0.1002  2.3727 -1.6338
16637TIP3   OH271325   5.205   2.685   5.114  0.3064  0.1616 -0.5497
16637TIP3    H171326   5.157   2.624   5.171  0.0963  1.0140  0.2039
16637TIP3    H271327   5.197   2.770   5.157  1.7760  0.4850 -0.8387
16638TIP3   OH271328   3.663   6.032   0.475 -0.4531  0.4208  0.0465
16638TIP3    H171329   3.711   5.951   0.492  0.5658  0.7931 -0.9446
16638TIP3    H271330   3.634   6.025   0.385  1.5980  2.0568 -0.8421
16639TIP3   OH271331   5.867   3.463   4.014  0.1429  0.2411 -0.1314
16639TIP3    H171332   5.920   3.507   4.081  0.0020 -0.3144  0.3512
16639TIP3    H271333   5.787   3.515   4.009  0.5523  0.8410 -0.5626
16640TIP3   OH271334   3.712   3.439  14.343  0.4634  0.3678  0.2387
16640TIP3    H171335   3.698   3.534  14.339  1.1216  0.4564 -0.2570
16640TIP3    H271336   3.625   3.401  14.330 -0.2837  0.8997  3.0341
16641TIP3   OH271337   3.395   1.420   2.078 -0.0950 -0.0647 -0.1735
16641TIP3    H171338   3.424   1.430   2.169  0.0747 -1.1705 -0.0867
16641TIP3    H271339   3.421   1.331   2.055 -0.1093  0.2154 -1.3248
16642TIP3   OH271340   2.918   3.650   4.652  0.3703  0.4168  0.0807
16642TIP3    H171341   2.912   3.746   4.649 -0.1728  0.3722 -0.7864
16642TIP3    H271342   2.998   3.632   4.701  0.3555  1.3110  0.4483
16643TIP3   OH271343   1.763   1.147   2.758  0.3384  0.0132 -0.0923
16643TIP3    H171344   1.848   1.190   2.750  0.1560  0.2536 -0.8306
16643TIP3    H271345   1.777   1.059   2.723 -0.1633  0.6704 -2.0646
16644TIP3   OH271346   4.545   1.498   3.459  0.0815  0.6744  0.0791
16644TIP3    H171347   4.574   1.579   3.501 -0.5342  0.5772  0.7114
16644TIP3    H271348   4.519   1.441   3.532  1.2177 -0.3805 -0.3111
16645TIP3   OH271349   0.410   5.008  13.530 -0.0191 -0.1086 -0.5334
16645TIP3    H171350   0.505   5.020  13.537 -0.4043  3.0165  1.3837
16645TIP3    H271351   0.381   5.085  13.481 -1.7488  0.2523  0.9743
16646TIP3   OH271352   1.052   6.024   3.194 -0.2390 -1.2097 -0.1227
16646TIP3    H171353   1.028   5.941   3.154  0.0696 -1.4387  0.1547
16646TIP3    H271354   1.148   6.021   3.200 -0.3366 -2.0896  2.4823
16647TIP3   OH271355   3.433   3.010   3.933  0.2679 -0.5512 -0.3898
16647TIP3    H171356   3.414   3.038   3.844  1.5909  0.9060 -0.2695
16647TIP3    H271357   3.456   2.918   3.925  0.6975 -0.3614 -1.6290
16648TIP3   OH271358   5.372   2.274  16.464  0.0844 -0.2187  0.3463
16648TIP3    H171359   5.292   2.227  16.441  0.6591 -0.6966 -0.7798
16648TIP3    H271360   5.357   2.307  16.552 -0.6043 -1.9713  0.9280
16649TIP3   OH271361   3.561   2.982   1.680 -0.1345  0.1527  0.1145
16649TIP3    H171362   3.592   2.970   1.769  0.9229 -1.2168 -0.3950
16649TIP3    H271363   3.535   3.074   1.675 -2.6181 -0.3163  2.5188
16650TIP3   OH271364   5.192   6.204   1.889 -0.4459  0.0243  0.1819
16650TIP3    H171365   5.279   6.216   1.927 -0.5851 -0.5528  0.6991
16650TIP3    H271366   5.209   6.187   1.796  0.2115 -2.6775  0.7112
16651TIP3   OH271367   1.069   0.191   0.205  0.0076 -0.5722 -0.1894
16651TIP3    H171368   1.107   0.197   0.292  0.5958 -0.9619 -0.4099
16651TIP3    H271369   1.123   0.247   0.150 -1.0447  0.5748 -0.0942
16652TIP3   OH271370   5.219   3.018   6.125  0.4063  0.0642  1.0300
16652TIP3    H171371   5.210   2.937   6.074 -0.7272 -0.1744  1.5614
16652TIP3    H271372   5.206   2.990   6.216  1.4187  0.6361  1.3553
16653TIP3   OH271373   5.701   6.782   1.532  0.0056 -0.3474 -0.2547
16653TIP3    H171374   5.759   6.762   1.606 -1.4002  0.5526  1.1605
16653TIP3    H271375   5.739   6.859   1.491 -0.1320  0.1915  0.6185
16654TIP3   OH271376   3.043   0.510  12.426 -0.2294  0.4222  0.3548
16654TIP3    H171377   3.068   0.548  12.510 -0.9997  0.4995  0.5541
16654TIP3    H271378   2.956   0.545  12.409 -0.8352 -1.0108  0.3967
16655TIP3   OH271379   4.285   1.262  15.223  0.0971 -0.0020 -0.5409
16655TIP3    H171380   4.342   1.334  15.196  0.6942 -0.7252 -1.2698
16655TIP3    H271381   4.230   1.246  15.146  1.6966 -1.9765 -1.3508
16656TIP3   OH271382   0.214   3.410   5.474  0.0846 -0.0947 -0.0636
16656TIP3    H171383   0.175   3.392   5.388 -2.2430  1.9518  0.4606
16656TIP3    H271384   0.279   3.479   5.457  0.2016 -0.2574 -0.2830
16657TIP3   OH271385   1.054   0.978   5.278  0.3047 -0.2793 -0.5660
16657TIP3    H171386   1.072   0.890   5.310  1.4138  0.3612  0.6902
16657TIP3    H271387   1.019   1.025   5.354 -1.4017  0.0796 -1.5186
16658TIP3   OH271388   2.909   0.435  15.845 -0.1639  0.2819  0.3126
16658TIP3    H171389   2.985   0.464  15.896  2.4957 -1.5752 -2.2708
16658TIP3    H271390   2.902   0.341  15.862  0.6536 -0.3521 -2.3287
16659TIP3   OH271391   3.168   1.329  11.126  0.1963 -0.2335 -0.1264
16659TIP3    H171392   3.124   1.246  11.113  0.9032 -0.5187 -0.8102
16659TIP3    H271393   3.254   1.306  11.161 -0.6597  0.3886  2.5773
16660TIP3   OH271394   0.840   3.930   3.215 -0.0278  0.1577  0.6695
16660TIP3    H171395   0.859   4.005   3.272 -0.3411  1.2821 -0.6197
16660TIP3    H271396   0.769   3.961   3.159 -0.3581 -1.2282  0.2909
16661TIP3   OH271397   2.796   0.840  16.587 -0.2249  0.3703 -0.5443
16661TIP3    H171398   2.709   0.860  16.621 -1.0291 -0.3299 -2.0781
16661TIP3    H271399   2.819   0.915  16.533 -1.2895 -0.7273 -2.6586
16662TIP3   OH271400   4.762   4.488  13.115 -0.0762  0.9504 -0.4392
16662TIP3    H171401   4.752   4.511  13.023  0.5027 -1.0473 -1.0268
16662TIP3    H271402   4.720   4.403  13.124 -0.0171  1.0482  1.1345
16663TIP3   OH271403   3.673   2.410   0.702  0.3542 -0.3555  0.4211
16663TIP3    H171404   3.591   2.457   0.683  0.7544  0.3001  0.2988
16663TIP3    H271405   3.720   2.466   0.763 -0.0320 -1.5253  1.8528
16664TIP3   OH271406   1.536   0.974  15.763  0.6645 -0.7794 -0.0435
16664TIP3    H171407   1.626   1.005  15.752  1.0096 -1.7410 -0.0522
16664TIP3    H271408   1.487   1.016  15.692  0.8562  0.6401  0.6353
16665TIP3   OH271409   5.120   2.486   1.064  0.0068  0.5125  0.2764
16665TIP3    H171410   5.111   2.439   1.147 -0.4863  0.6600  0.3145
16665TIP3    H271411   5.206   2.527   1.067  1.1891 -1.7695 -0.4807
16666TIP3   OH271412   6.307   3.242  15.246  0.6112 -1.0091  0.0398
16666TIP3    H171413   6.363   3.311  15.211  0.4971 -1.6258 -1.4174
16666TIP3    H271414   6.234   3.237  15.185 -1.3197  0.0494  2.0997
16667TIP3   OH271415   3.277   2.873   2.817 -0.1873 -0.2210  0.0719
16667TIP3    H171416   3.245   2.943   2.760  0.3589 -0.9859 -1.2012
16667TIP3    H271417   3.348   2.833   2.769 -0.2754 -1.4618  0.9267
16668TIP3   OH271418   2.883   0.815   4.631 -0.4833 -0.2155 -0.7874
16668TIP3    H171419   2.800   0.817   4.678  0.2212  1.5540  0.4667
16668TIP3    H271420   2.865   0.861   4.549 -0.4252  1.4757  0.1131
16669TIP3   OH271421   4.185   5.524   1.377 -0.7920  0.2021  0.5539
16669TIP3    H171422   4.161   5.456   1.440 -1.5210  0.0323  0.1091
16669TIP3    H271423   4.206   5.477   1.297  2.3249  0.2418  1.2135
16670TIP3   OH271424   4.041   3.144   4.707  0.2788 -0.1384 -0.0248
16670TIP3    H171425   4.120   3.176   4.664  0.2404 -0.0870 -0.0576
16670TIP3    H271426   3.994   3.224   4.731 -0.3102 -0.1677 -1.0115
16671TIP3   OH271427   3.468   5.191  15.657  0.1409  0.3067 -0.1462
16671TIP3    H171428   3.527   5.180  15.732  1.2816  0.7359 -0.9488
16671TIP3    H271429   3.462   5.285  15.644 -1.6458  0.3419  0.5905
16672TIP3   OH271430   5.285   1.051   2.279 -0.0625 -0.0597 -0.4154
16672TIP3    H171431   5.303   0.958   2.268 -1.1761 -0.2958 -0.4073
16672TIP3    H271432   5.304   1.089   2.193 -0.6456 -0.4827 -0.7376
16673TIP3   OH271433   0.754   2.138   0.547  0.6278 -0.2856  0.1100
16673TIP3    H171434   0.678   2.155   0.491  1.2983 -0.2348 -0.8030
16673TIP3    H271435   0.818   2.203   0.521  0.9423 -0.2307  0.9840
16674TIP3   OH271436   5.713   2.276   1.725 -0.0057 -0.6854  0.2974
16674TIP3    H171437   5.656   2.352   1.721  0.4039 -0.3672  0.3880
16674TIP3    H271438   5.655   2.201   1.712 -0.2596 -0.2976 -0.9187
16675TIP3   OH271439   6.585   6.319   5.720  0.2195  0.3834 -0.6383
16675TIP3    H171440   6.566   6.406   5.685  0.5578  0.9470  0.5353
16675TIP3    H271441   6.666   6.329   5.769  0.0610 -0.4975 -0.1648
16676TIP3   OH271442   3.956   1.675   3.480 -0.1722  0.0285 -0.4837
16676TIP3    H171443   3.944   1.727   3.401  1.2087  2.0235  0.5282
16676TIP3    H271444   4.045   1.694   3.508 -0.3140 -1.3406  1.0653
16677TIP3   OH271445   4.972   1.513  11.378  0.4239  0.1827 -0.1427
16677TIP3    H171446   4.929   1.524  11.463  0.5139  0.9408 -0.1857
16677TIP3    H271447   5.065   1.503  11.399  0.2503 -1.4115 -0.0515
16678TIP3   OH271448   1.329   2.216   3.535  0.0193 -0.3717  0.1794
16678TIP3    H171449   1.361   2.241   3.622 -1.7499  0.0687  0.7596
16678TIP3    H271450   1.336   2.121   3.534  0.8738 -0.3191  0.4585
16679TIP3   OH271451   3.185   6.169  14.125 -0.0008 -0.3101  0.1762
16679TIP3    H171452   3.206   6.257  14.095  0.0341  0.1241  1.4491
16679TIP3    H271453   3.255   6.146  14.185 -0.5103 -0.8293  0.5852
16680TIP3   OH271454   0.859   3.307  16.206  0.0742  0.1870  0.1247
16680TIP3    H171455   0.921   3.316  16.134 -0.4501  1.9086 -0.1524
16680TIP3    H271456   0.898   3.356  16.278  0.5508 -1.4439  1.0170
16681TIP3   OH271457   6.231   2.362  16.709 -0.1297 -0.1290  0.1923
16681TIP3    H171458   6.147   2.375  16.664  1.4798  0.3313 -2.9393
16681TIP3    H271459   6.245   2.443  16.757 -0.3761  0.8015 -1.2500
16682TIP3   OH271460   4.605   0.576  15.090  0.0662 -0.3810 -0.1952
16682TIP3    H171461   4.611   0.614  15.178 -1.8927 -1.0648  0.2818
16682TIP3    H271462   4.696   0.561  15.065  0.8305  2.5121  0.4706
16683TIP3   OH271463   0.313   6.064  11.300  0.3863  0.3726 -0.0677
16683TIP3    H171464   0.224   6.062  11.265  0.3757  1.1326 -0.1000
16683TIP3    H271465   0.366   6.101  11.230  0.0102  4.0827  1.3846
16684TIP3   OH271466   2.334   1.249   1.449 -0.4040  0.2603  0.3678
16684TIP3    H171467   2.420   1.291   1.453  0.6392 -1.4754 -1.7170
16684TIP3    H271468   2.284   1.289   1.521  1.7405  2.1457  0.9240
16685TIP3   OH271469   1.228   0.053   5.417 -0.0686 -0.1378 -0.2611
16685TIP3    H171470   1.183  -0.031   5.430  0.4637 -0.4428 -0.3708
16685TIP3    H271471   1.192   0.109   5.486 -0.0760 -0.6036  0.1266
16686TIP3   OH271472   1.658   2.491  12.009  0.6081  0.4968 -0.4421
16686TIP3    H171473   1.660   2.396  12.003 -0.9028  0.5034 -1.9199
16686TIP3    H271474   1.744   2.515  12.043  1.5385 -1.3267 -1.3657
16687TIP3   OH271475   6.732   3.838   0.085 -0.3869 -0.1190  0.3303
16687TIP3    H171476   6.655   3.784   0.102  1.4644 -2.7673  1.0945
16687TIP3    H271477   6.732   3.851  -0.010 -2.4733  1.1873  0.4535
16688TIP3   OH271478   0.573   0.015   0.659 -0.2971 -0.5311 -0.0455
16688TIP3    H171479   0.615   0.041   0.741 -0.8069 -0.0645  0.0726
16688TIP3    H271480   0.541   0.097   0.621  2.4851 -0.2424 -2.2055
16689TIP3   OH271481   2.081   5.893   2.737  0.2772  0.1166  0.3156
16689TIP3    H171482   2.160   5.840   2.750  0.6042  0.7868  1.1783
16689TIP3    H271483   2.100   5.975   2.781 -0.7182  0.4801  0.0946
16690TIP3   OH271484   2.007   6.040   2.207  0.0569 -0.1984 -0.2679
16690TIP3    H171485   1.913   6.046   2.221  0.2185  0.9809  0.4792
16690TIP3    H271486   2.045   6.059   2.293  0.9770 -0.9210 -0.4959
16691TIP3   OH271487   4.631   1.530  14.867 -0.0278  0.2106 -0.8119
16691TIP3    H171488   4.557   1.524  14.928 -0.3985  1.5988 -1.1004
16691TIP3    H271489   4.673   1.444  14.873 -0.9872 -0.2196  0.2103
16692TIP3   OH271490   3.579   0.274  10.628  0.5720 -0.2604  0.0381
16692TIP3    H171491   3.627   0.346  10.587 -0.1309  0.2746  0.1460
16692TIP3    H271492   3.504   0.259  10.571  1.4732 -1.9053 -0.7912
16693TIP3   OH271493   3.009   3.125   4.665  0.8625  0.1518 -0.3267
16693TIP3    H171494   3.103   3.139   4.680  0.7107  2.4397 -1.0035
16693TIP3    H271495   2.974   3.214   4.651 -1.2043 -0.7382 -1.2319
16694TIP3   OH271496   6.399   0.800  13.078 -1.0427  0.4572  0.1700
16694TIP3    H171497   6.488   0.774  13.055 -1.1563 -0.0644  0.3053
16694TIP3    H271498   6.407   0.837  13.166 -1.1788 -0.9333  0.7862
16695TIP3   OH271499   6.594   4.614   0.497  0.5403 -0.7067  0.0056
16695TIP3    H171500   6.561   4.703   0.503  1.2899 -0.2942 -1.3602
16695TIP3    H271501   6.689   4.623   0.506  0.4713 -1.6396  2.0050
16696TIP3   OH271502   5.445   0.163  14.337 -0.2243 -0.6031  0.3140
16696TIP3    H171503   5.386   0.239  14.336 -1.5317 -1.5782 -0.9810
16696TIP3    H271504   5.388   0.088  14.318  1.2506 -1.7521  0.2561
16697TIP3   OH271505   4.109   5.599  11.080 -0.3125  0.2369  0.2076
16697TIP3    H171506   4.090   5.505  11.080  0.6577  0.0293 -0.3988
16697TIP3    H271507   4.189   5.607  11.029 -0.2920  1.3827  0.4024
16698TIP3   OH271508   6.512   4.217  11.644 -0.0319 -0.5649  0.0997
16698TIP3    H171509   6.475   4.257  11.723  0.6868  1.2044 -0.4174
16698TIP3    H271510   6.456   4.250  11.573 -0.3459 -1.7135 -0.1976
16699TIP3   OH271511   3.292   1.515  13.101 -0.2418 -0.3285  0.1536
16699TIP3    H171512   3.350   1.591  13.097 -0.8769  0.4242  3.0548
16699TIP3    H271513   3.241   1.520  13.020  1.0731  1.1925 -0.6432
16700TIP3   OH271514   4.630   5.316   6.233 -0.3554 -0.0444 -0.1156
16700TIP3    H171515   4.628   5.403   6.273  1.2343  0.0848 -0.2411
16700TIP3    H271516   4.723   5.293   6.231 -0.7997 -2.2699  1.0372
16701TIP3   OH271517   5.419   1.209  16.003 -0.3052 -0.2275 -0.2803
16701TIP3    H171518   5.492   1.271  15.992  0.6479 -1.3598 -0.6398
16701TIP3    H271519   5.429   1.176  16.092 -1.1592  0.5413  0.1134
16702TIP3   OH271520   5.937   6.169   3.026 -0.3509 -0.4747  0.0830
16702TIP3    H171521   5.905   6.122   2.949 -3.2064  1.0193  0.2341
16702TIP3    H271522   5.887   6.250   3.027  1.6616  0.8434  1.9710
16703TIP3   OH271523   3.194   4.945   5.359  0.0389 -0.0159 -1.0099
16703TIP3    H171524   3.288   4.954   5.374 -0.0816 -0.6496  0.2147
16703TIP3    H271525   3.187   4.882   5.288  0.5272 -0.2108 -0.8900
16704TIP3   OH271526   5.304   3.936   5.537  0.6265  0.2757 -0.0375
16704TIP3    H171527   5.358   4.010   5.508  3.7588 -2.6200 -2.5140
16704TIP3    H271528   5.274   3.895   5.456 -0.9745 -1.2198  1.2284
16705TIP3   OH271529   5.085   5.911   2.457  0.1212  0.1728 -0.1564
16705TIP3    H171530   5.083   5.952   2.543  1.1597  0.4284 -0.2317
16705TIP3    H271531   5.071   5.818   2.474  0.3797  0.2135  0.2955
16706TIP3   OH271532   4.124   3.397  15.608 -0.0752 -0.2489  0.2735
16706TIP3    H171533   4.114   3.441  15.693 -1.0548 -0.8543  0.4926
16706TIP3    H271534   4.105   3.305  15.626 -1.5400 -0.2002 -0.8067
16707TIP3   OH271535   2.261   0.113   0.440 -0.3313  0.2440  0.5381
16707TIP3    H171536   2.337   0.056   0.455 -0.9172 -0.9241 -0.7408
16707TIP3    H271537   2.198   0.057   0.395 -0.6811  2.0996 -1.3932
16708TIP3   OH271538   0.360   6.012  12.257  0.2915  0.0886 -0.1718
16708TIP3    H171539   0.411   5.971  12.327 -0.2371  2.2920  1.6203
16708TIP3    H271540   0.277   5.964  12.258  0.6971 -0.6262 -0.0559
16709TIP3   OH271541   4.409   6.342   3.272  0.4948  0.3215 -0.9797
16709TIP3    H171542   4.476   6.359   3.206  1.9094  0.9395  0.5386
16709TIP3    H271543   4.457   6.308   3.347 -1.0955 -0.6637 -0.3461
16710TIP3   OH271544   0.607   0.779   1.345 -0.0317 -0.0874 -0.0855
16710TIP3    H171545   0.684   0.802   1.294  1.0419 -2.6279  0.2224
16710TIP3    H271546   0.642   0.750   1.430 -1.2528 -1.4239  0.0105
16711TIP3   OH271547   2.942   4.834   2.264  0.1806  0.1592  0.9637
16711TIP3    H171548   2.863   4.885   2.283 -0.2855 -0.8396  1.8031
16711TIP3    H271549   2.923   4.746   2.298  0.4492 -0.9750 -1.5504
16712TIP3   OH271550   4.262   4.911   2.578  0.2026  0.1967 -0.1596
16712TIP3    H171551   4.269   4.973   2.651 -0.4116 -1.0229  0.9627
16712TIP3    H271552   4.196   4.950   2.521  0.9695  1.3609 -0.3041
16713TIP3   OH271553   1.384   2.798  16.249  0.0192 -0.1890 -0.2150
16713TIP3    H171554   1.435   2.829  16.324  1.8691  0.3535 -1.6311
16713TIP3    H271555   1.440   2.733  16.208 -1.2042 -0.8728 -0.8508
16714TIP3   OH271556   2.057   2.350  15.093  0.0360 -0.1794  0.3265
16714TIP3    H171557   1.984   2.410  15.083  0.2895  0.2597  1.0038
16714TIP3    H271558   2.048   2.315  15.182  1.4347  0.9858  0.9751
16715TIP3   OH271559   0.763   3.819  12.398 -0.0169 -0.5206  0.4058
16715TIP3    H171560   0.706   3.869  12.340  1.7706  0.1555 -0.8871
16715TIP3    H271561   0.721   3.824  12.484 -2.4087 -0.9813 -0.6487
16716TIP3   OH271562   5.964   5.975  13.580  0.1349  0.4581  0.2845
16716TIP3    H171563   5.872   6.000  13.578 -0.0804 -0.2388  0.9041
16716TIP3    H271564   5.963   5.879  13.571  0.9623  0.6418 -2.9107
16717TIP3   OH271565   1.090   4.444   5.895 -0.2933 -0.3072 -0.2581
16717TIP3    H171566   1.136   4.527   5.910 -1.6694  0.4920 -0.3038
16717TIP3    H271567   1.099   4.396   5.977  0.7748 -0.2721 -0.3320
16718TIP3   OH271568   6.530   5.823  16.587  0.4525  0.1384  0.4747
16718TIP3    H171569   6.515   5.777  16.670 -0.4413  0.1070  0.3127
16718TIP3    H271570   6.618   5.858  16.594  1.3823 -2.0557  0.3718
16719TIP3   OH271571   6.374   6.089  11.940 -0.0084  0.0948 -0.0078
16719TIP3    H171572   6.460   6.104  11.980  0.1192  0.3271 -0.3618
16719TIP3    H271573   6.324   6.043  12.007  0.5466 -0.4640  0.0252
16720TIP3   OH271574   2.561   3.622  10.882  0.1562  0.3230  0.1035
16720TIP3    H171575   2.511   3.703  10.867  2.6833  2.6618  2.9627
16720TIP3    H271576   2.641   3.634  10.829  0.1217 -0.8088 -0.2204
16721TIP3   OH271577   1.671   3.878   4.307 -0.0307 -0.6251  0.5813
16721TIP3    H171578   1.602   3.932   4.345  1.9782  1.6027  1.2316
16721TIP3    H271579   1.674   3.800   4.363 -0.7157  0.1223  1.6926
16722TIP3   OH271580   3.230   2.337  14.120  0.0209 -0.3157  0.1763
16722TIP3    H171581   3.245   2.352  14.214  2.5797 -0.0654 -0.2070
16722TIP3    H271582   3.247   2.244  14.107 -0.1656 -0.3164 -0.0745
16723TIP3   OH271583   2.449   5.293   6.976 -0.2461  0.2890 -0.1459
16723TIP3    H171584   2.411   5.357   7.036 -0.6559 -0.7830  0.7620
16723TIP3    H271585   2.374   5.244   6.943  0.1258 -0.1875 -0.2937
16724TIP3   OH271586   3.953   2.995  13.855  0.3754  0.1730  0.3340
16724TIP3    H171587   3.962   3.082  13.814  1.5960  0.2303  0.7003
16724TIP3    H271588   3.980   3.008  13.946  1.2122 -0.7273  0.2274
16725TIP3   OH271589   5.755   5.486  16.389  0.2903  0.3212  0.5504
16725TIP3    H171590   5.824   5.457  16.449  0.2321 -0.5195  0.2287
16725TIP3    H271591   5.735   5.408  16.336  1.5575  1.4736 -1.7633
16726TIP3   OH271592   0.691   1.116   3.619  0.1466  0.0222 -0.2235
16726TIP3    H171593   0.643   1.125   3.701  0.9588 -1.9936  0.5411
16726TIP3    H271594   0.775   1.160   3.635  1.2115 -2.2540  0.9065
16727TIP3   OH271595   5.558   0.906  11.689  0.6015 -0.3244  0.0726
16727TIP3    H171596   5.518   0.845  11.750 -1.5167 -0.5943 -1.4662
16727TIP3    H271597   5.614   0.852  11.634 -0.3836 -0.7320 -0.5588
16728TIP3   OH271598   3.829   5.352  15.616  0.2946  0.1458  0.3215
16728TIP3    H171599   3.769   5.280  15.636  0.6366  0.4376  2.5915
16728TIP3    H271600   3.772   5.427  15.601 -0.0795 -0.5666 -2.2967
16729TIP3   OH271601   5.997   2.818   3.834  0.6300 -0.1278  0.4993
16729TIP3    H171602   6.017   2.772   3.753  0.6625  2.4536 -1.0817
16729TIP3    H271603   6.081   2.824   3.881  0.9531 -0.2616 -0.0601
16730TIP3   OH271604   2.877   4.659   5.457  0.6349 -0.4401  0.0146
16730TIP3    H171605   2.784   4.652   5.432  0.0964  0.5358  1.6343
16730TIP3    H271606   2.914   4.720   5.394  0.1999 -0.8727 -0.6772
16731TIP3   OH271607   6.469   1.702  12.425  0.3777  0.5142  0.6694
16731TIP3    H171608   6.474   1.657  12.509 -1.7188 -1.4625 -0.1505
16731TIP3    H271609   6.375   1.713  12.410  0.7588  2.6907 -0.5185
16732TIP3   OH271610   6.295   3.121  15.699 -0.2189 -0.0679  0.1849
16732TIP3    H171611   6.254   3.197  15.659  0.5040  0.7343  0.9400
16732TIP3    H271612   6.330   3.153  15.782 -1.1390 -1.5433  1.1904
16733TIP3   OH271613   4.189   0.966  17.145  0.1067  0.0119  0.3354
16733TIP3    H171614   4.213   0.962  17.052 -0.0336 -2.3348  0.3311
16733TIP3    H271615   4.219   1.052  17.174  1.4925  0.2251 -1.5142
16734TIP3   OH271616   6.222   0.958  11.346 -0.4152 -0.0997 -0.0725
16734TIP3    H171617   6.213   0.891  11.414 -2.3524  2.6358  2.6060
16734TIP3    H271618   6.164   0.928  11.275 -3.1366 -0.2454  2.0422
16735TIP3   OH271619   5.825   0.690  14.332  0.0677  0.0205 -0.3239
16735TIP3    H171620   5.801   0.732  14.249  1.4335  0.5618 -0.4705
16735TIP3    H271621   5.815   0.597  14.315 -2.7424  0.2077 -0.0850
16736TIP3   OH271622   4.237   3.309  16.709 -0.1944 -0.4488 -0.4829
16736TIP3    H171623   4.254   3.394  16.668  1.3679 -0.4258  0.1484
16736TIP3    H271624   4.243   3.247  16.636  1.2057 -0.2664 -0.5538
16737TIP3   OH271625   3.103   0.028  15.660 -0.1571  0.4878  0.4407
16737TIP3    H171626   3.030   0.041  15.599  0.4442  1.5766 -0.0709
16737TIP3    H271627   3.119  -0.066  15.658  0.2702  0.5475 -1.6375
16738TIP3   OH271628   2.991   2.944   1.398 -0.7056  0.0194  0.4352
16738TIP3    H171629   3.021   2.991   1.476 -2.2206  1.9484 -0.0465
16738TIP3    H271630   3.054   2.873   1.386  3.0016  3.0571  0.0968
16739TIP3   OH271631   0.893   5.500  10.821 -0.7492 -0.0636  0.2698
16739TIP3    H171632   0.843   5.421  10.803  1.3235 -1.8435  1.7954
16739TIP3    H271633   0.944   5.515  10.741  0.1923 -1.3907  0.5937
16740TIP3   OH271634   1.051   4.168   3.092 -0.1700  0.6914 -0.4261
16740TIP3    H171635   0.977   4.134   3.041 -0.3648  0.3910  0.0473
16740TIP3    H271636   1.010   4.218   3.163  0.0960  0.9952 -0.4856
16741TIP3   OH271637   4.256   0.132  11.845  0.3202 -0.5877  0.0023
16741TIP3    H171638   4.200   0.059  11.870 -0.1401 -0.4976 -0.7345
16741TIP3    H271639   4.196   0.194  11.803  0.7355  0.1263  0.4442
16742TIP3   OH271640   4.358   3.609   0.846 -0.9302  0.3345 -0.2192
16742TIP3    H171641   4.327   3.534   0.795  0.0145  0.6332 -1.2929
16742TIP3    H271642   4.453   3.608   0.836 -0.8978  1.7230 -0.3534
16743TIP3   OH271643   1.932   3.554   6.116 -0.7571 -0.0012  0.3227
16743TIP3    H171644   1.921   3.649   6.123 -1.7656 -0.1996  1.7059
16743TIP3    H271645   2.005   3.533   6.175 -0.7935 -0.1394  0.3190
16744TIP3   OH271646   4.089   6.351  13.532  0.3961  0.4074  0.2412
16744TIP3    H171647   4.177   6.327  13.564 -1.2653 -2.0672  3.5940
16744TIP3    H271648   4.068   6.281  13.470 -0.5211 -1.3067  2.3359
16745TIP3   OH271649   0.015   1.588  15.678  0.1310  0.5806  0.3664
16745TIP3    H171650  -0.071   1.613  15.644  0.1702  0.6250  0.2990
16745TIP3    H271651   0.073   1.659  15.650 -0.1362  1.4416  1.8847
16746TIP3   OH271652   6.328   3.018   2.312 -0.8304 -0.0646  0.0813
16746TIP3    H171653   6.244   3.065   2.308 -0.7064  0.0806 -1.8778
16746TIP3    H271654   6.393   3.086   2.331 -0.6584  0.6800 -2.6693
16747TIP3   OH271655   2.748   1.139   3.101  0.2051  0.4235  0.1574
16747TIP3    H171656   2.798   1.110   3.177 -0.6295 -2.4306 -0.2786
16747TIP3    H271657   2.689   1.067   3.081 -1.5221  2.1724 -1.5888
16748TIP3   OH271658   2.378   1.358   0.685 -0.3122  0.2514 -0.6020
16748TIP3    H171659   2.390   1.308   0.604 -1.0797  1.0056 -1.2080
16748TIP3    H271660   2.290   1.335   0.714  0.3133 -0.7682  0.5832
16749TIP3   OH271661   0.055   6.745   3.313  0.0237 -0.7201  0.4599
16749TIP3    H171662  -0.012   6.727   3.248 -0.3554 -1.2517  0.9888
16749TIP3    H271663   0.021   6.708   3.394  0.5138 -0.1211  0.9534
16750TIP3   OH271664   1.631   3.786  14.797 -0.3797 -0.0943  0.1071
16750TIP3    H171665   1.654   3.865  14.845 -0.1173  0.1324 -0.3867
16750TIP3    H271666   1.535   3.782  14.800 -0.3381 -0.4455  1.2192
16751TIP3   OH271667   3.430   0.374   2.434 -0.2687 -0.0538 -0.0016
16751TIP3    H171668   3.498   0.442   2.434 -1.4966  1.2445 -1.2211
16751TIP3    H271669   3.433   0.338   2.346 -1.0061 -0.1395  0.0030
16752TIP3   OH271670   0.521   0.356   3.927 -0.1976  0.0117  0.0239
16752TIP3    H171671   0.574   0.331   3.851 -0.8882  3.4405 -1.7589
16752TIP3    H271672   0.584   0.375   3.996  0.5338 -1.2488 -0.2588
16753TIP3   OH271673   3.843   3.899  14.034  0.1297 -0.5565  0.5353
16753TIP3    H171674   3.938   3.909  14.024 -0.0469  1.7972  0.6718
16753TIP3    H271675   3.806   3.944  13.958 -0.9097 -2.9133 -0.4522
16754TIP3   OH271676   0.159   4.626   4.265 -0.5095  0.9184 -0.3169
16754TIP3    H171677   0.100   4.592   4.199 -1.7751  0.5346  0.9592
16754TIP3    H271678   0.124   4.713   4.287 -0.1325  1.0249 -0.1176
16755TIP3   OH271679   5.724   3.828  13.187 -0.1577  0.1482  0.2750
16755TIP3    H171680   5.785   3.762  13.221 -0.1467 -0.7272 -1.3382
16755TIP3    H271681   5.776   3.877  13.123 -1.0702 -0.5141 -1.0131
16756TIP3   OH271682   0.967   1.649  11.797 -0.2754  0.0239 -0.5637
16756TIP3    H171683   0.940   1.579  11.738 -0.0915 -0.2734 -0.2935
16756TIP3    H271684   1.020   1.606  11.864  3.0986  0.9019 -2.4560
16757TIP3   OH271685   0.155   0.957  16.486 -0.0856 -0.9822 -0.1718
16757TIP3    H171686   0.125   0.974  16.575  2.3915  2.2413  0.2438
16757TIP3    H271687   0.088   0.994  16.429 -0.6970 -1.2068  0.3996
16758TIP3   OH271688   3.159   4.023  16.950  0.1933  0.7825  0.0544
16758TIP3    H171689   3.212   3.953  16.913 -1.2498  0.3406 -1.2703
16758TIP3    H271690   3.193   4.103  16.909  0.2422  0.5632 -0.3384
16759TIP3   OH271691   1.609   2.543   5.978 -0.4403 -0.1134 -0.4379
16759TIP3    H171692   1.531   2.598   5.981 -1.7024 -1.8445  1.4247
16759TIP3    H271693   1.650   2.555   6.063  0.6163 -0.2053 -0.9241
16760TIP3   OH271694   2.805   2.325   0.654 -0.1249  0.9326 -0.3578
16760TIP3    H171695   2.736   2.366   0.602 -0.3590  0.5702 -0.3351
16760TIP3    H271696   2.879   2.317   0.593 -0.4450  0.3782 -0.6874
16761TIP3   OH271697   3.513   1.419   4.518 -0.7051  0.3897 -0.0156
16761TIP3    H171698   3.461   1.339   4.522 -0.4155  0.1566 -0.6601
16761TIP3    H271699   3.540   1.425   4.426  0.2751  0.5754  0.2705
16762TIP3   OH271700   4.219   1.713   3.490 -0.4025  0.1425 -0.3815
16762TIP3    H171701   4.251   1.786   3.437 -2.4332  1.1529 -0.3197
16762TIP3    H271702   4.251   1.635   3.445 -0.3455  1.0238 -1.9435
16763TIP3   OH271703   5.204   1.474   0.853 -0.0201 -0.0752  0.1059
16763TIP3    H171704   5.115   1.507   0.848 -0.3265 -0.9024 -0.0077
16763TIP3    H271705   5.199   1.400   0.914  0.6216 -0.0091  0.2480
16764TIP3   OH271706   2.935   5.846   6.827 -0.1541  0.4999  0.2316
16764TIP3    H171707   2.966   5.757   6.815  1.4302  1.1312 -0.6412
16764TIP3    H271708   2.995   5.886   6.890 -0.0041  1.3305 -0.4085
16765TIP3   OH271709   0.889   4.660   4.875  0.3672 -0.0613  0.3251
16765TIP3    H171710   0.974   4.705   4.882  0.4963 -0.4175  1.2033
16765TIP3    H271711   0.863   4.645   4.966 -0.8570  0.4389  0.0749
16766TIP3   OH271712   0.760   3.200  15.774 -0.0089 -0.4412 -0.3428
16766TIP3    H171713   0.717   3.171  15.854 -0.8347 -0.5006 -0.8062
16766TIP3    H271714   0.720   3.150  15.704 -0.4179  0.7327 -0.9821
16767TIP3   OH271715   5.552   3.554   2.970  0.3999  0.3803  0.0625
16767TIP3    H171716   5.557   3.461   2.993  0.4090  0.4932  0.5208
16767TIP3    H271717   5.523   3.597   3.050  1.0062  0.8523  0.0341
16768TIP3   OH271718   6.127   1.393   3.462 -0.2325 -0.1240 -0.3788
16768TIP3    H171719   6.107   1.434   3.377 -1.8752  0.7811  0.4115
16768TIP3    H271720   6.062   1.323   3.471 -2.0658  1.6673  1.3922
16769TIP3   OH271721   5.985   0.445   3.355 -0.4057  0.1716 -0.0216
16769TIP3    H171722   6.052   0.472   3.292  0.2720  0.4792  0.8219
16769TIP3    H271723   5.914   0.410   3.300  0.1478  0.4735 -0.9566
16770TIP3   OH271724   2.041   2.334  13.831  0.3737 -0.5131  0.0834
16770TIP3    H171725   2.046   2.428  13.812  1.1999 -0.9545 -2.1522
16770TIP3    H271726   1.985   2.299  13.762 -2.7678 -1.3054  2.7298
16771TIP3   OH271727   3.124   5.604  12.878  0.1605  0.3980  0.0689
16771TIP3    H171728   3.147   5.565  12.962  0.5202 -2.9245 -1.4161
16771TIP3    H271729   3.029   5.596  12.873  0.3101 -1.4001 -0.6389
16772TIP3   OH271730   4.345   3.618  15.257 -0.4626 -0.4221  0.4161
16772TIP3    H171731   4.351   3.532  15.298 -0.8676  0.3107  2.1009
16772TIP3    H271732   4.272   3.610  15.195  1.2201 -2.0265 -1.5164
16773TIP3   OH271733   4.183   4.759  12.623 -0.3001 -0.4385  0.0226
16773TIP3    H171734   4.117   4.767  12.691 -0.1299 -0.8782  0.2484
16773TIP3    H271735   4.174   4.838  12.570 -0.0936  0.1423  0.8534
16774TIP3   OH271736   4.223   2.437  14.677 -0.0705  0.1501 -0.5119
16774TIP3    H171737   4.209   2.350  14.714  0.5263 -0.7954 -2.3816
16774TIP3    H271738   4.205   2.427  14.583 -0.5482  2.1882 -0.6935
16775TIP3   OH271739   5.430   5.581   1.808  0.7911 -0.4921  0.8423
16775TIP3    H171740   5.522   5.590   1.782  0.4575  0.4016 -0.1455
16775TIP3    H271741   5.408   5.666   1.845 -0.4951  0.5238 -1.9764
16776TIP3   OH271742   4.989   4.263   5.725 -0.0519 -0.7110  0.0926
16776TIP3    H171743   5.063   4.267   5.786  0.3211 -0.6185 -0.3644
16776TIP3    H271744   5.026   4.290   5.641  0.2713 -4.1267 -1.0069
16777TIP3   OH271745   5.341   2.170   3.459  0.4119  0.6511  0.2152
16777TIP3    H171746   5.355   2.260   3.487 -0.2863  0.9165 -0.2454
16777TIP3    H271747   5.255   2.147   3.494  0.3083  0.3883 -0.1972
16778TIP3   OH271748   0.265   4.456  17.074 -0.1429  0.4945 -0.0409
16778TIP3    H171749   0.313   4.521  17.126  0.1653  1.0480 -0.9997
16778TIP3    H271750   0.270   4.489  16.985  0.8855 -1.3557 -0.7079
16779TIP3   OH271751   0.418   0.018   2.786 -0.3091 -0.0140 -0.3847
16779TIP3    H171752   0.440  -0.017   2.872 -0.9914  0.1687 -0.1304
16779TIP3    H271753   0.496   0.002   2.733 -0.1843 -0.8531  0.0437
16780TIP3   OH271754   0.307   3.976  16.719  0.1228 -0.3944 -0.0278
16780TIP3    H171755   0.395   3.977  16.683  0.6554  1.8348  1.1293
16780TIP3    H271756   0.255   4.029  16.659 -0.4691 -1.7518 -0.7406
16781TIP3   OH271757   5.365   6.622  12.966  0.2809  0.2701  0.3213
16781TIP3    H171758   5.438   6.636  12.906  1.2526 -1.1254  1.1121
16781TIP3    H271759   5.317   6.704  12.966  0.9272  0.6767 -1.4626
16782TIP3   OH271760   2.484   3.946   1.532 -0.7359  0.1938 -0.0750
16782TIP3    H171761   2.463   3.990   1.450 -0.6747 -0.4597 -0.4419
16782TIP3    H271762   2.557   3.997   1.568  1.1686 -1.1317 -1.8160
16783TIP3   OH271763   1.038   1.645  11.195 -0.2224  0.1833 -0.1436
16783TIP3    H171764   0.975   1.574  11.191 -0.9037  0.6785  1.1712
16783TIP3    H271765   1.123   1.602  11.203 -0.3246 -0.4962 -2.1624
16784TIP3   OH271766   1.410   3.034   5.951  0.4779 -0.1922  0.3656
16784TIP3    H171767   1.389   2.945   5.923  0.6836 -1.3582  3.4816
16784TIP3    H271768   1.500   3.047   5.921  0.3645 -0.9282 -0.3356
16785TIP3   OH271769   0.030   1.562  16.114  0.6201 -0.3322 -0.0672
16785TIP3    H171770   0.092   1.563  16.188  2.1261 -2.4397 -1.1781
16785TIP3    H271771   0.060   1.490  16.059 -1.9890 -0.4645 -1.4678
16786TIP3   OH271772   4.942   6.298  14.265  0.0241  0.0979  0.9594
16786TIP3    H171773   4.994   6.258  14.334 -0.1322 -0.3823  0.8047
16786TIP3    H271774   4.918   6.384  14.299 -3.2050 -1.4656  3.1549
16787TIP3   OH271775   1.301   4.423   2.806 -0.2702  0.2730  0.2522
16787TIP3    H171776   1.253   4.505   2.795  1.0360  1.0838  0.3297
16787TIP3    H271777   1.371   4.445   2.867  0.1543 -0.8882  0.2040
16788TIP3   OH271778   0.667   3.593   2.314 -0.1533  0.4867  0.3608
16788TIP3    H171779   0.747   3.580   2.265  0.2912 -0.7326  1.3457
16788TIP3    H271780   0.603   3.621   2.249  0.9369  0.9951 -0.5213
16789TIP3   OH271781   3.433   5.375   5.774 -0.3169  0.5302  0.2725
16789TIP3    H171782   3.415   5.330   5.857 -3.2102 -0.4177 -0.7283
16789TIP3    H271783   3.513   5.334   5.742  0.2259  0.1037  2.0298
16790TIP3   OH271784   4.368   4.165  14.932  0.3529  1.0741 -0.4180
16790TIP3    H171785   4.461   4.175  14.951  0.1050  0.6302  1.1510
16790TIP3    H271786   4.324   4.211  15.003 -0.6357 -0.6745  0.1493
16791TIP3   OH271787   1.412   2.902  15.331 -0.4162  0.7035  0.5504
16791TIP3    H171788   1.408   2.989  15.292  1.1993  1.2085  1.4114
16791TIP3    H271789   1.443   2.845  15.261  0.8208  1.2901  0.5860
16792TIP3   OH271790   1.069   4.976   0.756 -0.6638  0.1682  0.1990
16792TIP3    H171791   1.093   4.959   0.665 -2.2917 -0.3309 -0.1702
16792TIP3    H271792   1.145   5.021   0.792  0.6587 -1.0052 -0.9630
16793TIP3   OH271793   5.373   2.667   4.362  0.3265 -0.2050 -0.5435
16793TIP3    H171794   5.383   2.710   4.447  0.8298 -0.0238 -0.6909
16793TIP3    H271795   5.308   2.598   4.378 -0.1924  0.3538 -0.2151
16794TIP3   OH271796   0.435   4.224  14.925  0.0950 -0.1511  0.4742
16794TIP3    H171797   0.432   4.319  14.923 -2.5996 -0.0921  2.2504
16794TIP3    H271798   0.413   4.198  14.835 -1.3870  0.9598  0.4740
16795TIP3   OH271799   4.873   4.942  12.534 -0.0108  0.1589  0.1604
16795TIP3    H171800   4.942   4.956  12.469  1.0001 -0.3449  1.0936
16795TIP3    H271801   4.871   5.023  12.585  0.2013 -0.0006  0.4209
16796TIP3   OH271802   5.752   5.917  11.321 -0.3003  0.6023  0.8087
16796TIP3    H171803   5.800   5.945  11.242 -2.2985  0.1806 -0.6220
16796TIP3    H271804   5.677   5.976  11.325 -1.7907 -1.2154  0.7088
16797TIP3   OH271805   5.569   6.270  12.582 -0.2842 -0.1744 -0.8987
16797TIP3    H171806   5.474   6.258  12.580 -0.0908 -2.1991 -0.0046
16797TIP3    H271807   5.585   6.315  12.665 -0.4911  0.6809 -1.3119
16798TIP3   OH271808   4.102   5.336   1.540 -0.3795 -0.2189  0.2164
16798TIP3    H171809   4.029   5.275   1.550 -0.7062  0.2149  0.5429
16798TIP3    H271810   4.180   5.284   1.560 -0.6118 -0.6549 -0.0124
16799TIP3   OH271811   1.486   4.199  12.215  0.0507  0.2515  0.3783
16799TIP3    H171812   1.473   4.147  12.135 -1.5397  0.5181  0.4158
16799TIP3    H271813   1.537   4.274  12.186  0.7260 -0.3683 -0.0794
16800TIP3   OH271814   4.480   4.512  15.988 -0.2107 -0.0855  0.1370
16800TIP3    H171815   4.509   4.593  15.945 -0.9581  0.2196  0.1854
16800TIP3    H271816   4.553   4.451  15.977 -0.8559 -0.4903 -2.7795
16801TIP3   OH271817   5.763   4.578  17.008 -0.2218 -0.9209 -0.0390
16801TIP3    H171818   5.728   4.658  16.968  0.4321 -1.8006 -2.5829
16801TIP3    H271819   5.850   4.603  17.039  0.2658 -0.7741 -1.4635
16802TIP3   OH271820   2.889   0.288   0.592 -0.4172  0.2073 -0.1587
16802TIP3    H171821   2.861   0.289   0.683 -1.4142  0.3840 -0.4568
16802TIP3    H271822   2.837   0.357   0.550  0.5926  0.6603 -0.7053
16803TIP3   OH271823   5.463   3.313   5.173 -0.2123 -0.0812  0.2374
16803TIP3    H171824   5.556   3.309   5.197 -0.4531 -3.4678  1.1058
16803TIP3    H271825   5.432   3.396   5.209  2.6063  1.5959 -0.8613
16804TIP3   OH271826   1.077   6.102   1.197  0.9431 -0.2775 -0.1068
16804TIP3    H171827   1.113   6.142   1.276 -0.7315 -2.9727  2.2388
16804TIP3    H271828   1.014   6.166   1.164  0.4441  0.2886  1.7921
16805TIP3   OH271829   1.372   3.778   2.657  0.2422  0.2235 -0.1278
16805TIP3    H171830   1.375   3.793   2.562  0.4920 -2.7438 -0.7161
16805TIP3    H271831   1.462   3.761   2.681  0.0220 -0.2913  0.3575
16806TIP3   OH271832   6.582   3.975   2.438 -0.3459 -0.4154  0.5281
16806TIP3    H171833   6.621   3.889   2.420  1.6683  0.6349 -0.4784
16806TIP3    H271834   6.640   4.014   2.504  0.1376  1.0438 -0.7055
16807TIP3   OH271835   0.075   1.389   0.100 -0.6889  0.0133  0.1616
16807TIP3    H171836   0.008   1.337   0.144 -0.3400 -1.3863 -0.8945
16807TIP3    H271837   0.067   1.476   0.139 -0.9835 -0.9125  2.3451
16808TIP3   OH271838   0.979   6.473  14.280 -0.6852  0.3670  0.3664
16808TIP3    H171839   1.070   6.490  14.259 -0.8975  0.7442 -0.2597
16808TIP3    H271840   0.950   6.410  14.214 -2.0718  3.4560 -2.2116
16809TIP3   OH271841   4.768   0.007   2.958  0.0394 -0.6117  0.0902
16809TIP3    H171842   4.863   0.024   2.960  0.0956 -0.8180  2.3826
16809TIP3    H271843   4.729   0.094   2.952  0.4096 -0.2636  1.8974
16810TIP3   OH271844   2.106   5.654  15.335 -0.1467  0.0728  0.4131
16810TIP3    H171845   2.035   5.701  15.379 -0.2680  0.0750  0.2148
16810TIP3    H271846   2.087   5.663  15.242 -1.0921 -1.7671  0.3854
16811TIP3   OH271847   5.132   3.100   1.464 -0.0864 -0.0434 -0.2100
16811TIP3    H171848   5.139   3.180   1.516 -0.1526  0.8151 -1.4801
16811TIP3    H271849   5.038   3.089   1.449 -0.0573 -0.1709 -0.3069
16812TIP3   OH271850   2.131   6.330   0.244 -0.1133 -0.0861 -0.0301
16812TIP3    H171851   2.057   6.335   0.185 -0.8054  1.0023  0.8726
16812TIP3    H271852   2.092   6.320   0.331  0.8733 -1.8379  0.2491
16813TIP3   OH271853   0.115   4.823   3.221  0.1381 -0.2733  0.1567
16813TIP3    H171854   0.152   4.841   3.135  0.8221 -0.2015  0.4620
16813TIP3    H271855   0.060   4.899   3.240 -0.2954 -0.4523 -0.3641
16814TIP3   OH271856   0.048   3.180   0.757 -0.8786  0.4741 -0.7561
16814TIP3    H171857   0.033   3.127   0.679 -0.2008 -1.0546  0.0984
16814TIP3    H271858   0.087   3.261   0.725 -0.0611 -0.3654 -1.9729
16815TIP3   OH271859   3.063   0.181  12.120 -0.5556 -0.0746  0.5585
16815TIP3    H171860   3.139   0.161  12.064 -2.4086  0.2644 -2.2882
16815TIP3    H271861   3.070   0.275  12.137 -0.2909 -0.0541  0.3530
16816TIP3   OH271862   3.144   0.427  13.888 -0.3927 -0.6868 -0.3081
16816TIP3    H171863   3.151   0.451  13.795  1.8613 -1.3230 -0.3639
16816TIP3    H271864   3.050   0.429  13.906 -0.7848  1.3874 -2.0729
16817TIP3   OH271865   5.554   0.067   3.884  0.2932  0.0896 -0.0053
16817TIP3    H171866   5.480   0.127   3.895  0.8352  0.3492  2.7524
16817TIP3    H271867   5.626   0.108   3.930  1.2014 -1.7839  0.3513
16818TIP3   OH271868   5.526   0.895   0.660 -0.0874  0.1117 -0.2620
16818TIP3    H171869   5.469   0.871   0.588 -0.4841 -0.1132  0.1250
16818TIP3    H271870   5.472   0.888   0.738 -0.0434  1.6434 -0.0557
16819TIP3   OH271871   2.899   0.133  16.714  0.6890  0.1080 -0.1856
16819TIP3    H171872   2.814   0.111  16.752 -0.0802  1.5128 -1.0177
16819TIP3    H271873   2.938   0.193  16.777  0.7451  0.0258 -0.1416
16820TIP3   OH271874   6.661   3.341   5.442  0.1938 -0.3728 -0.4097
16820TIP3    H171875   6.583   3.339   5.498  0.4500 -0.1378 -0.0413
16820TIP3    H271876   6.684   3.249   5.431  0.1400 -0.4220 -0.1302
16821TIP3   OH271877   0.778   1.670  13.289  0.0637 -0.7966 -1.0759
16821TIP3    H171878   0.694   1.714  13.272  0.4747  0.2068 -0.5706
16821TIP3    H271879   0.841   1.717  13.235  0.5598 -0.5563 -0.3006
16822TIP3   OH271880   6.490   2.995  13.660 -0.2262  0.2955  0.2250
16822TIP3    H171881   6.472   3.064  13.597  0.5333  0.0199 -0.3077
16822TIP3    H271882   6.450   3.026  13.742 -0.1431  1.2195 -0.0767
16823TIP3   OH271883   0.991   5.132  11.174 -0.0107  0.0754 -0.1191
16823TIP3    H171884   0.994   5.187  11.096 -0.4832  0.6612  0.2677
16823TIP3    H271885   0.925   5.066  11.155  0.3741 -0.2135 -0.4816
16824TIP3   OH271886   4.839   3.107  15.599 -0.0040  0.4289 -0.4984
16824TIP3    H171887   4.798   3.179  15.551 -0.2424  0.2745 -0.5308
16824TIP3    H271888   4.849   3.038  15.535 -0.7475  0.0562 -0.2296
16825TIP3   OH271889   5.101   2.544   0.731  0.4976 -0.8325  0.2516
16825TIP3    H171890   5.120   2.617   0.673  0.9900 -0.4183  0.9160
16825TIP3    H271891   5.048   2.582   0.801 -3.7911 -2.0857 -1.9653
16826TIP3   OH271892   5.723   2.973   5.618 -0.0677 -0.2330 -0.7824
16826TIP3    H171893   5.648   2.919   5.641  0.0215  1.0881  3.4227
16826TIP3    H271894   5.799   2.921   5.647  0.2038  0.7531  0.3442
16827TIP3   OH271895   4.210   4.645   2.603 -0.0878 -0.0898  0.2746
16827TIP3    H171896   4.296   4.603   2.610 -0.6908 -1.1965  1.6873
16827TIP3    H271897   4.228   4.739   2.611  0.9400 -0.3479  1.3336
16828TIP3   OH271898   3.159   4.696  16.858 -0.2193 -0.1314  0.1074
16828TIP3    H171899   3.151   4.682  16.764  0.5194  3.3637 -0.5933
16828TIP3    H271900   3.253   4.705  16.873 -0.0774 -2.8622  1.6938
16829TIP3   OH271901   1.477   0.880   1.844 -0.9909 -0.2093 -0.6150
16829TIP3    H171902   1.483   0.817   1.772  0.0031 -3.1003  1.7855
16829TIP3    H271903   1.562   0.925   1.844 -0.8067 -0.5493 -0.9375
16830TIP3   OH271904   0.154   4.984   0.784 -0.1307  0.1288  0.6526
16830TIP3    H171905   0.064   4.951   0.776 -0.2713  0.4224  0.9897
16830TIP3    H271906   0.150   5.075   0.756  0.3446 -0.2473 -0.6743
16831TIP3   OH271907   4.963   4.278   2.428 -0.0861 -0.8047 -0.1409
16831TIP3    H171908   5.040   4.334   2.435 -1.1112  0.9270 -1.7425
16831TIP3    H271909   4.982   4.221   2.353 -0.1374 -0.7492 -0.1962
16832TIP3   OH271910   0.308   2.032  11.423 -0.3164  0.1242 -0.4051
16832TIP3    H171911   0.285   1.961  11.363 -2.4448  0.1613  0.2539
16832TIP3    H271912   0.375   2.082  11.376 -0.6003 -0.8740 -1.9642
16833TIP3   OH271913   3.389   6.775  10.899  0.1379 -0.4580 -1.0359
16833TIP3    H171914   3.303   6.772  10.857 -0.7338  0.6613  0.5540
16833TIP3    H271915   3.421   6.864  10.882  0.2335 -0.3365 -0.2719
16834TIP3   OH271916   2.142   1.524  12.437  0.0980 -0.0749 -0.7191
16834TIP3    H171917   2.121   1.434  12.463  0.5929 -0.3865 -1.3719
16834TIP3    H271918   2.225   1.543  12.480 -0.3904  0.3683  0.0633
16835TIP3   OH271919   1.441   0.755   0.897  0.2863 -0.1068 -0.1544
16835TIP3    H171920   1.385   0.723   0.968  0.3101  1.2404  0.4943
16835TIP3    H271921   1.530   0.748   0.933  0.4642 -1.2441 -0.7875
16836TIP3   OH271922   6.667   4.720  13.739  0.0696 -0.4105  0.0846
16836TIP3    H171923   6.750   4.690  13.701 -1.4249 -1.3091 -2.7318
16836TIP3    H271924   6.637   4.646  13.792 -1.1260 -2.1554 -2.7572
16837TIP3   OH271925   3.754   4.074  11.237  0.0263  0.2567  0.3801
16837TIP3    H171926   3.730   4.063  11.329 -1.0364  2.2080  0.3675
16837TIP3    H271927   3.677   4.043  11.188  1.2126 -2.4473  0.0006
16838TIP3   OH271928   6.381   0.572  15.412 -0.4898  0.2373  0.1147
16838TIP3    H171929   6.333   0.600  15.489  0.6082  0.1897  0.8366
16838TIP3    H271930   6.473   0.568  15.440  0.1243  1.3894 -1.4804
16839TIP3   OH271931   6.277   0.387   1.412 -0.6233  0.0656  0.5052
16839TIP3    H171932   6.300   0.374   1.504 -0.5443 -0.3056  0.4369
16839TIP3    H271933   6.244   0.476   1.408 -2.5838 -0.5647  1.3029
16840TIP3   OH271934   3.403   6.026  15.865  0.6990  0.4609  0.3151
16840TIP3    H171935   3.420   5.937  15.896  0.0010  0.1853 -0.0788
16840TIP3    H271936   3.484   6.052  15.821  0.2641 -0.7103 -1.2588
16841TIP3   OH271937   6.330   2.463  12.716  0.4211 -0.1170 -0.2806
16841TIP3    H171938   6.294   2.551  12.727  1.6214  0.3424  0.0827
16841TIP3    H271939   6.419   2.477  12.685  0.5973 -1.2171 -0.3126
16842TIP3   OH271940   1.907   5.463   5.404  0.4440 -0.0966 -0.5369
16842TIP3    H171941   1.872   5.414   5.330 -0.1324 -0.1198 -0.2588
16842TIP3    H271942   1.992   5.495   5.374  0.0831  0.1507 -1.3137
16843TIP3   OH271943   1.008   5.440  11.283 -0.0022  0.9028  0.5821
16843TIP3    H171944   1.047   5.414  11.199  1.0327 -0.7703  1.5220
16843TIP3    H271945   1.029   5.533  11.291  1.1417  0.7579 -0.3629
16844TIP3   OH271946   5.351   2.470   0.833 -0.5818 -0.2700  0.1250
16844TIP3    H171947   5.279   2.519   0.794  0.0667  1.2289  0.7229
16844TIP3    H271948   5.360   2.506   0.922  0.0869 -1.3068  0.5055
16845TIP3   OH271949   5.826   5.225  13.260 -0.2387  0.8280 -0.5590
16845TIP3    H171950   5.735   5.223  13.291  0.4911 -0.8592  1.8168
16845TIP3    H271951   5.842   5.317  13.239 -2.5448  1.1319 -1.2845
16846TIP3   OH271952   5.861   0.664  11.113 -0.1257 -0.3301  0.5389
16846TIP3    H171953   5.779   0.709  11.094 -0.7960 -1.2411  1.2010
16846TIP3    H271954   5.871   0.602  11.041 -0.1685 -0.4169  0.6075
16847TIP3   OH271955   1.063   5.950   4.046 -0.9373 -0.1233  0.5081
16847TIP3    H171956   1.002   6.023   4.042 -1.2581 -0.1789  2.9576
16847TIP3    H271957   1.031   5.887   3.981 -0.7405  1.7705 -1.5396
16848TIP3   OH271958   4.174   2.642  16.452 -0.0022  0.3283  0.5491
16848TIP3    H171959   4.101   2.702  16.443  0.0843  0.5851  1.4091
16848TIP3    H271960   4.134   2.559  16.478 -0.2493 -0.4030 -1.9454
16849TIP3   OH271961   1.770   6.621   3.225 -0.2241  1.0267 -0.0063
16849TIP3    H171962   1.779   6.535   3.265  0.3051  1.2469  0.3641
16849TIP3    H271963   1.779   6.605   3.131 -0.1092  0.6802  0.0641
16850TIP3   OH271964   5.931   2.016   1.070  0.8568  0.0870 -0.2135
16850TIP3    H171965   5.925   1.959   0.993 -1.6077 -2.2541  1.5099
16850TIP3    H271966   5.945   1.956   1.143  2.9343  2.2128  1.2570
16851TIP3   OH271967   2.595   2.662  12.803  0.2646 -0.1826 -0.0469
16851TIP3    H171968   2.580   2.754  12.823  1.7503  0.2512 -0.8495
16851TIP3    H271969   2.592   2.657  12.708  2.0935 -0.5881 -0.1143
16852TIP3   OH271970   0.587   1.922  14.095  0.5854 -0.0017  0.0776
16852TIP3    H171971   0.628   2.006  14.072 -0.0380  0.3051  0.0782
16852TIP3    H271972   0.515   1.946  14.153  1.9577 -0.7190  2.2003
16853TIP3   OH271973   0.710   5.353  14.649 -0.3858 -0.8441  0.5550
16853TIP3    H171974   0.643   5.323  14.588 -0.3680 -0.5414  0.3869
16853TIP3    H271975   0.792   5.341  14.602 -0.4835  1.0680 -0.1936
16854TIP3   OH271976   0.638   1.051  15.518  0.1203 -0.0795 -0.0186
16854TIP3    H171977   0.689   1.065  15.438 -0.7298  0.4619 -0.4921
16854TIP3    H271978   0.637   0.956  15.530 -1.0172 -0.2949 -1.5404
16855TIP3   OH271979   2.144   4.787  14.787  0.3216 -0.4142 -1.0223
16855TIP3    H171980   2.076   4.722  14.800  1.0290 -0.9754  0.0562
16855TIP3    H271981   2.145   4.803  14.693  0.3035 -2.1519 -1.3446
16856TIP3   OH271982   0.942   2.772  11.649  0.2092  0.4253  0.8801
16856TIP3    H171983   1.003   2.718  11.700  0.0827  0.0198  0.6018
16856TIP3    H271984   0.979   2.861  11.655  0.5914  0.2585  1.0704
16857TIP3   OH271985   3.898   6.356  13.786  0.1473 -0.0933 -0.1272
16857TIP3    H171986   3.954   6.395  13.719 -1.5954  1.1908 -0.9339
16857TIP3    H271987   3.844   6.429  13.817 -0.9565 -1.2198  0.6922
16858TIP3   OH271988   2.817   4.812  11.864 -0.0357 -0.3009 -0.0631
16858TIP3    H171989   2.802   4.725  11.827  1.8639 -1.2217  1.1550
16858TIP3    H271990   2.834   4.795  11.957 -0.1138  1.4465  0.2959
16859TIP3   OH271991   3.378   0.897  16.421 -0.3556 -0.2646  0.3336
16859TIP3    H171992   3.418   0.974  16.380 -0.4215 -0.6225 -0.4019
16859TIP3    H271993   3.452   0.842  16.445 -0.3019  0.0655  0.9557
16860TIP3   OH271994   2.730   2.275  11.495 -0.0887  0.3512  0.0848
16860TIP3    H171995   2.739   2.213  11.567 -1.4925 -0.6173 -0.5153
16860TIP3    H271996   2.754   2.225  11.417 -1.4077  0.4662 -0.4256
16861TIP3   OH271997   0.703   3.777   5.056  0.4251 -0.2224 -0.1212
16861TIP3    H171998   0.631   3.794   5.118  0.3967 -2.4921  0.5606
16861TIP3    H271999   0.779   3.762   5.112  0.9172 -0.1015 -0.7497
16862TIP3   OH272000   4.736   1.220  13.389 -0.8580 -0.0666  0.2822
16862TIP3    H172001   4.824   1.257  13.387 -0.6020 -0.6974 -1.4937
16862TIP3    H272002   4.747   1.133  13.427 -0.7555 -0.0717  0.2398
16863TIP3   OH272003   0.085   6.252  16.897 -0.5298 -0.0158 -0.4651
16863TIP3    H172004   0.151   6.240  16.965 -1.9788 -1.1011  0.8424
16863TIP3    H272005   0.133   6.283  16.821  1.5775 -1.4330  0.2163
16864TIP3   OH272006   5.676   3.263  13.501 -0.7571  0.4538  0.1717
16864TIP3    H172007   5.687   3.356  13.485 -1.2775  0.2506 -1.5429
16864TIP3    H272008   5.695   3.221  13.417 -0.4947 -0.9879  0.9181
16865TIP3   OH272009   2.458   1.800  16.184  0.3035  0.1314 -0.3444
16865TIP3    H172010   2.516   1.778  16.111 -0.3789 -1.0262 -0.5557
16865TIP3    H272011   2.383   1.844  16.143  1.4856  2.7027  0.0352
16866TIP3   OH272012   5.255   1.529  13.069 -0.4447 -0.1372  0.1598
16866TIP3    H172013   5.229   1.439  13.045 -1.0145 -0.4155  1.6933
16866TIP3    H272014   5.178   1.582  13.051 -0.3379 -0.0708 -0.1051
16867TIP3   OH272015   4.222   5.642  12.372  0.4507 -0.1754 -1.0061
16867TIP3    H172016   4.313   5.658  12.398 -0.2758  1.8835  0.5378
16867TIP3    H272017   4.209   5.698  12.295  0.3097  0.0299 -0.8331
16868TIP3   OH272018   2.818   2.781  15.584 -0.1794  0.0095  0.0493
16868TIP3    H172019   2.728   2.769  15.615  0.6488 -0.6788  2.3958
16868TIP3    H272020   2.855   2.693  15.585 -0.0733 -0.0688 -3.1262
16869TIP3   OH272021   3.492   2.970   0.573  0.2129  0.0266  0.4329
16869TIP3    H172022   3.514   2.916   0.648 -1.6602  0.1031  1.0655
16869TIP3    H272023   3.574   3.016   0.552  1.3219 -1.5822  1.0646
16870TIP3   OH272024   3.356   4.935  14.222  0.1080  0.4752 -0.5193
16870TIP3    H172025   3.439   4.920  14.176  0.2277  0.2696 -0.2390
16870TIP3    H272026   3.358   5.028  14.246  0.5265  0.3285  0.0169
16871TIP3   OH272027   3.820   3.927  13.359 -0.4436 -0.3819  0.3635
16871TIP3    H172028   3.752   3.867  13.329 -1.9389  0.8398  1.1491
16871TIP3    H272029   3.778   3.978  13.429  1.5068 -0.0532  1.3629
16872TIP3   OH272030   5.743   0.644  11.989  0.0557  0.1469 -0.1107
16872TIP3    H172031   5.702   0.648  12.076  0.3066 -1.7382  0.1505
16872TIP3    H272032   5.815   0.708  11.994 -0.6505  0.9124  0.6475
16873TIP3   OH272033   0.491   5.168  11.278 -0.3550 -0.0082  0.4950
16873TIP3    H172034   0.578   5.203  11.294  0.1211 -0.1640 -1.5010
16873TIP3    H272035   0.452   5.228  11.214  0.2228 -2.5397 -2.4822
16874TIP3   OH272036   6.617   0.049  14.061 -0.4936 -0.2000  0.3341
16874TIP3    H172037   6.634  -0.025  14.003  0.9780  0.5862 -0.3154
16874TIP3    H272038   6.522   0.052  14.070 -0.8139 -0.1255 -2.3652
16875TIP3   OH272039   1.078   0.981   1.675 -0.0298 -0.1883  0.3883
16875TIP3    H172040   1.105   0.992   1.766 -1.9733 -2.2105  1.3171
16875TIP3    H272041   1.038   1.065   1.651 -1.1752 -0.1994  2.0759
16876TIP3   OH272042   2.260   2.177  13.185  0.2661  0.7018 -0.2296
16876TIP3    H172043   2.292   2.099  13.229 -0.4953 -0.2491 -1.3152
16876TIP3    H272044   2.172   2.190  13.219 -0.2570  0.0689 -1.2888
16877TIP3   OH272045   3.131   0.945   5.513  0.1035 -0.4678  0.0444
16877TIP3    H172046   3.133   1.001   5.435  0.5131 -0.5981 -0.0383
16877TIP3    H272047   3.222   0.922   5.529  0.1647  0.5524  1.2966
16878TIP3   OH272048   6.274   1.973  14.163 -0.3107  0.3732  0.6064
16878TIP3    H172049   6.212   2.001  14.096  0.0615  0.3951  0.2703
16878TIP3    H272050   6.236   1.892  14.199  0.1888 -0.4438 -0.6259
16879TIP3   OH272051   5.901   6.062   5.246 -0.4292  0.0516 -0.3767
16879TIP3    H172052   5.893   6.157   5.255 -0.7464  0.0948 -0.9975
16879TIP3    H272053   5.990   6.048   5.213 -0.9398  0.2787 -1.9257
16880TIP3   OH272054   1.193   3.371   3.423  0.2362 -0.1356 -0.6224
16880TIP3    H172055   1.128   3.441   3.427  0.5553  0.1948 -1.0390
16880TIP3    H272056   1.274   3.416   3.396  0.7598 -0.4554  0.3775
16881TIP3   OH272057   5.451   6.226  13.492 -0.3490 -0.3862 -0.5227
16881TIP3    H172058   5.524   6.241  13.432  2.4593 -0.1890  2.6357
16881TIP3    H272059   5.397   6.305  13.484  0.4324  0.0327 -2.0540
16882TIP3   OH272060   5.795   2.851  13.203  0.3443  0.8360 -0.2718
16882TIP3    H172061   5.885   2.820  13.204  0.6581  1.6918  0.6699
16882TIP3    H272062   5.769   2.849  13.295 -0.4589  0.9854 -0.4898
16883TIP3   OH272063   5.016   1.120   0.987 -0.0539  0.6287  0.4294
16883TIP3    H172064   5.085   1.160   1.041  0.9827 -0.9477  0.3151
16883TIP3    H272065   5.062   1.088   0.910 -1.3636  1.9088 -0.9379
16884TIP3   OH272066   3.080   6.304   4.378 -0.1514 -0.7043 -0.0358
16884TIP3    H172067   3.131   6.295   4.297  0.6438 -0.5757  0.4458
16884TIP3    H272068   3.029   6.384   4.366  0.2798 -0.4622 -0.2342
16885TIP3   OH272069   1.135   2.663   1.242  0.2964  0.0009  0.6563
16885TIP3    H172070   1.125   2.754   1.215  0.7371  0.0089  0.5149
16885TIP3    H272071   1.138   2.614   1.160 -1.4769 -0.3234  0.7326
16886TIP3   OH272072   0.144   1.887  11.238  0.1125  0.1442  0.2579
16886TIP3    H172073   0.071   1.889  11.299  2.2665 -1.5253  3.1295
16886TIP3    H272074   0.118   1.823  11.172 -1.9866  1.4703 -0.2987
16887TIP3   OH272075   0.118   5.085  10.455 -0.0999  0.3279  0.1914
16887TIP3    H172076   0.052   5.098  10.523  0.5658  1.1410  0.7118
16887TIP3    H272077   0.071   5.097  10.373 -0.4580  1.7444  0.5635
16888TIP3   OH272078   0.618   1.788   6.357  0.0727  0.5405  0.6551
16888TIP3    H172079   0.566   1.737   6.295  1.0744 -2.4695  2.0931
16888TIP3    H272080   0.558   1.855   6.389 -1.3929  0.2201 -1.2417
16889TIP3   OH272081   2.825   0.899   1.987  0.3726 -0.5927  0.2945
16889TIP3    H172082   2.838   0.872   1.896  0.1042  0.1863  0.0210
16889TIP3    H272083   2.838   0.818   2.038 -0.9143 -1.3542 -0.5320
16890TIP3   OH272084   1.271   4.647   5.927 -0.2595 -0.4130  0.2534
16890TIP3    H172085   1.279   4.641   6.022  0.7454  0.4379  0.2500
16890TIP3    H272086   1.358   4.677   5.898 -1.2766  1.9348 -0.6628
16891TIP3   OH272087   2.530   5.033  12.956  0.1092  0.3776  0.1601
16891TIP3    H172088   2.485   4.960  13.000  0.0315  0.1222 -0.3351
16891TIP3    H272089   2.472   5.058  12.884  0.8109 -0.0578 -0.5846
16892TIP3   OH272090   5.604   4.265  16.409  0.3714 -0.3643  0.5135
16892TIP3    H172091   5.651   4.330  16.462  0.2873 -0.3377  0.5567
16892TIP3    H272092   5.671   4.227  16.352 -0.0293  1.6193 -1.3957
16893TIP3   OH272093   5.375   5.018  16.735 -0.1454 -0.1520  0.4633
16893TIP3    H172094   5.325   4.946  16.696 -1.6217 -0.3463  2.5665
16893TIP3    H272095   5.315   5.058  16.797  1.2874  1.7261  0.7189
16894TIP3   OH272096   6.528   0.205   4.054 -0.3067  0.0834 -0.6403
16894TIP3    H172097   6.543   0.110   4.048 -1.4494 -0.1151 -0.6435
16894TIP3    H272098   6.529   0.235   3.964  0.7350  0.1995 -0.5999
16895TIP3   OH272099   6.508   1.206  11.352 -0.1986  0.2092  0.2002
16895TIP3    H172100   6.494   1.129  11.406 -1.3118 -0.8429 -1.4837
16895TIP3    H272101   6.458   1.275  11.394 -0.2170 -0.3107  1.0413
16896TIP3   OH272102   2.545   0.161   4.525  0.1968 -0.3991 -0.0234
16896TIP3    H172103   2.486   0.218   4.574  1.1740 -0.6254  1.4812
16896TIP3    H272104   2.587   0.107   4.592  0.9712 -1.3100 -1.2050
16897TIP3   OH272105   5.774   3.375  12.322 -0.6813 -0.1502  0.1279
16897TIP3    H172106   5.709   3.437  12.355  3.1139  3.3806  1.8806
16897TIP3    H272107   5.823   3.348  12.400  1.0238 -1.2962 -1.2633
16898TIP3   OH272108   4.926   4.376   4.021  0.0376  0.3163 -0.7066
16898TIP3    H172109   4.933   4.308   4.088 -0.3097  0.3025 -0.6834
16898TIP3    H272110   5.017   4.399   4.000  0.1535  0.9675  0.4200
16899TIP3   OH272111   1.250   5.156  11.279 -0.1695  0.3823  0.3609
16899TIP3    H172112   1.160   5.126  11.268 -1.3028  3.6429 -0.5636
16899TIP3    H272113   1.301   5.104  11.216 -1.4660 -1.0898  0.4639
16900TIP3   OH272114   3.855   0.482  16.503 -0.0113  0.4194 -0.3767
16900TIP3    H172115   3.770   0.514  16.532  0.5329  1.6638 -0.0853
16900TIP3    H272116   3.838   0.443  16.417 -0.8203  0.9407 -0.4612
16901TIP3   OH272117   5.045   4.911   0.039  0.0480  0.2426 -0.2101
16901TIP3    H172118   5.033   5.006   0.039 -0.5028  0.1877 -1.4221
16901TIP3    H272119   4.986   4.879  -0.028  1.9969 -0.7135 -1.5815
16902TIP3   OH272120   5.966   5.278  17.158  0.6443 -0.2317 -0.4940
16902TIP3    H172121   6.027   5.242  17.223 -0.5332 -1.9082 -0.2456
16902TIP3    H272122   5.970   5.216  17.086 -0.3599 -0.0717 -0.6991
16903TIP3   OH272123   0.107   4.836   2.137 -0.1897 -0.5399  0.6651
16903TIP3    H172124   0.112   4.801   2.048  1.4697  2.5779 -0.6113
16903TIP3    H272125   0.030   4.892   2.137 -0.4930 -0.9376  1.4107
16904TIP3   OH272126   2.165   1.126   2.285  0.0156 -0.7196  0.2865
16904TIP3    H172127   2.231   1.179   2.329 -0.4054 -0.1941  0.3006
16904TIP3    H272128   2.088   1.132   2.342  0.4280 -2.6829  1.1513
16905TIP3   OH272129   6.657   0.086   1.867 -0.0554  0.2986 -0.1395
16905TIP3    H172130   6.710   0.155   1.908 -1.3359  0.9809  0.4426
16905TIP3    H272131   6.682   0.006   1.913 -1.0687  0.9612  1.6769
16906TIP3   OH272132   4.251   1.812  16.168 -0.5333 -0.0595 -0.5928
16906TIP3    H172133   4.256   1.903  16.136 -0.0195 -0.3843 -1.4933
16906TIP3    H272134   4.338   1.796  16.205 -1.5897  0.8228  2.5428
16907TIP3   OH272135   0.351   6.420  16.770 -0.0511 -0.4363  0.4206
16907TIP3    H172136   0.413   6.452  16.704  0.2088 -0.1774  0.7825
16907TIP3    H272137   0.392   6.340  16.803  1.0074  0.6669  1.9272
16908TIP3   OH272138   0.355   5.539   4.845 -0.3968 -0.1171  0.0147
16908TIP3    H172139   0.355   5.613   4.906 -1.4353 -0.0150 -0.0936
16908TIP3    H272140   0.374   5.463   4.899 -2.4782 -0.1940  0.7050
16909TIP3   OH272141   5.970   1.934   1.448  0.0617 -0.1404  1.0252
16909TIP3    H172142   5.928   1.987   1.516  0.6163  3.0958 -0.8901
16909TIP3    H272143   6.063   1.957   1.453  0.0060  0.9082 -1.2571
16910TIP3   OH272144   1.675   5.942   5.155  0.5636 -0.4871  0.2779
16910TIP3    H172145   1.580   5.946   5.146  0.6345  0.1539 -0.3111
16910TIP3    H272146   1.693   5.853   5.186 -0.1479 -0.9718 -0.6372
16911TIP3   OH272147   4.792   6.056   4.023  0.2417 -0.8713 -0.9198
16911TIP3    H172148   4.835   6.129   3.978  0.2965 -0.6561 -0.5295
16911TIP3    H272149   4.731   6.020   3.959 -3.0308  2.2346  0.1115
16912TIP3   OH272150   1.245   4.176  12.327 -0.0967 -0.1869 -0.4226
16912TIP3    H172151   1.338   4.175  12.350 -0.3506  0.4505  0.6708
16912TIP3    H272152   1.245   4.165  12.231  1.1150  0.2920 -0.5039
16913TIP3   OH272153   4.415   3.974  17.186 -0.4439 -0.2750 -0.1064
16913TIP3    H172154   4.348   3.922  17.142  0.1512 -1.9280  0.8720
16913TIP3    H272155   4.407   4.061  17.146 -1.5068 -1.0723 -1.7478
16914TIP3   OH272156   1.671   3.049   3.074 -0.1770  0.6360 -0.2264
16914TIP3    H172157   1.652   3.103   2.997 -1.5326  0.1527 -0.2581
16914TIP3    H272158   1.660   2.959   3.044  1.3995  0.3407  0.0033
16915TIP3   OH272159   0.578   0.496   1.310  0.3453 -0.1242  0.8507
16915TIP3    H172160   0.629   0.494   1.229 -3.0377 -0.0702 -1.5380
16915TIP3    H272161   0.573   0.589   1.332 -2.6451  0.5659 -1.9055
16916TIP3   OH272162   1.489   5.550   6.545 -0.1226  0.3116  0.6250
16916TIP3    H172163   1.500   5.532   6.451  0.2134  0.7508  0.5751
16916TIP3    H272164   1.491   5.463   6.586 -0.7016  0.0840  0.1897
16917TIP3   OH272165   4.860   5.152   4.605  0.1853 -0.3275  0.2130
16917TIP3    H172166   4.954   5.171   4.600  0.3438 -1.2727 -3.0246
16917TIP3    H272167   4.817   5.232   4.574  0.0159 -0.3896  0.2853
16918TIP3   OH272168   1.639   6.039   4.255 -0.1205  0.5323  0.5811
16918TIP3    H172169   1.686   6.120   4.274 -2.1705  2.2279 -1.1157
16918TIP3    H272170   1.552   6.067   4.229 -1.0956 -2.2882  0.4239
16919TIP3   OH272171   3.242   5.390  12.353  0.0956 -0.1764 -0.0454
16919TIP3    H172172   3.176   5.437  12.404 -0.1642 -1.0979  0.4799
16919TIP3    H272173   3.325   5.423  12.386 -0.0839  0.0140  0.2211
16920TIP3   OH272174   3.902   5.485  11.952  0.4287  0.2247  0.2010
16920TIP3    H172175   3.972   5.547  11.933  0.2517  0.5213  0.5004
16920TIP3    H272176   3.887   5.494  12.046  0.9174 -0.8279  0.3857
16921TIP3   OH272177   4.949   2.260   3.194 -0.1716  0.1563 -0.2370
16921TIP3    H172178   5.005   2.270   3.117  0.3230  1.1275  0.2366
16921TIP3    H272179   4.983   2.181   3.237  1.0585  0.8785  0.1901
16922TIP3   OH272180   5.577   2.432   3.151  0.0125 -0.0225 -0.1678
16922TIP3    H172181   5.645   2.420   3.217  0.1107  0.4637 -0.1759
16922TIP3    H272182   5.508   2.370   3.176 -0.4598  0.9497  1.0631
16923TIP3   OH272183   5.497   1.282  16.498  0.4751  0.0126 -0.1264
16923TIP3    H172184   5.544   1.316  16.422  0.2215  1.1565  0.1975
16923TIP3    H272185   5.494   1.356  16.559 -1.3592 -0.1582  0.0436
16924TIP3   OH272186   0.601   0.488  12.236  0.0567 -0.3619  0.1195
16924TIP3    H172187   0.561   0.403  12.220  0.9208 -0.7359 -0.0934
16924TIP3    H272188   0.653   0.506  12.158 -0.8946  0.8424 -0.2924
16925TIP3   OH272189   0.288   2.799   1.604 -0.4712  0.6487  0.3589
16925TIP3    H172190   0.328   2.716   1.633 -2.8085 -0.4381  0.7457
16925TIP3    H272191   0.242   2.831   1.682 -1.0094  1.4227 -0.2713
16926TIP3   OH272192   1.734   2.903  16.422  0.3175 -0.0460 -0.9882
16926TIP3    H172193   1.791   2.972  16.458  0.6606 -0.0334 -1.5512
16926TIP3    H272194   1.725   2.926  16.330 -0.8913  0.1480 -0.8378
16927TIP3   OH272195   1.870   3.031  12.719 -0.2457 -0.0234  0.4116
16927TIP3    H172196   1.949   2.983  12.742 -0.6878 -0.6361  0.6741
16927TIP3    H272197   1.805   2.963  12.702 -1.6212  0.4233  3.3080
16928TIP3   OH272198   0.255   4.782   5.612 -0.6234 -0.1818  0.6179
16928TIP3    H172199   0.270   4.710   5.551  0.5893  1.2723 -0.8860
16928TIP3    H272200   0.161   4.800   5.605 -0.5761 -0.3071 -0.5060
16929TIP3   OH272201   6.618   4.149   1.690 -0.1492 -0.1405 -0.2253
16929TIP3    H172202   6.618   4.163   1.595  0.4316  0.7280 -0.1078
16929TIP3    H272203   6.590   4.058   1.700 -1.0267  0.0051 -1.1819
16930TIP3   OH272204   3.521   3.944   2.250 -0.2912  0.1031 -0.0231
16930TIP3    H172205   3.587   3.962   2.317 -1.8091  0.1821  1.4963
16930TIP3    H272206   3.461   3.882   2.292 -0.7564 -0.6106 -1.6622
16931TIP3   OH272207   1.400   6.254  11.576 -0.3639  0.0702 -0.0710
16931TIP3    H172208   1.485   6.215  11.554 -0.1479  0.4325  0.1200
16931TIP3    H272209   1.364   6.196  11.642  0.0366  0.2885  0.3435
16932TIP3   OH272210   3.206   3.431  17.102 -0.3491 -0.3734  0.3147
16932TIP3    H172211   3.280   3.453  17.159 -0.3511  0.1983  0.1042
16932TIP3    H272212   3.201   3.336  17.104  1.7621 -0.5847 -1.3745
16933TIP3   OH272213   0.288   3.694   0.371  0.0722  0.0669 -0.2557
16933TIP3    H172214   0.273   3.735   0.286  3.5993  1.2430 -0.4942
16933TIP3    H272215   0.348   3.622   0.353 -1.2652 -1.4312  0.9660
16934TIP3   OH272216   1.139   2.260   0.316  0.2110 -0.0048 -0.1797
16934TIP3    H172217   1.163   2.198   0.248  1.2399 -0.4882  0.5987
16934TIP3    H272218   1.221   2.304   0.339 -0.0054 -0.2166  1.0913
16935TIP3   OH272219   2.000   1.559   0.861  0.8721 -0.4864 -0.1868
16935TIP3    H172220   2.036   1.622   0.798 -2.3180  1.9621  0.1051
16935TIP3    H272221   1.951   1.497   0.807  1.6009 -0.9534 -0.3188
16936TIP3   OH272222   1.818   5.837   5.588 -0.1356 -0.0417 -0.0831
16936TIP3    H172223   1.747   5.897   5.565 -0.9592 -0.6916  0.6486
16936TIP3    H272224   1.822   5.841   5.684  2.1533  1.4387 -0.1885
16937TIP3   OH272225   5.698   2.175   1.013  0.2349  0.7074 -0.6470
16937TIP3    H172226   5.654   2.119   0.948 -0.0007 -2.4591  2.0031
16937TIP3    H272227   5.784   2.137   1.024  0.1703  0.9708  1.0883
16938TIP3   OH272228   5.445   3.217  13.925  0.2418 -0.2454 -0.1968
16938TIP3    H172229   5.365   3.237  13.974  0.5879 -0.6594  0.5340
16938TIP3    H272230   5.435   3.266  13.843 -1.1907 -1.0093 -0.5127
16939TIP3   OH272231   3.179   1.036   3.570  0.3910  0.2301 -0.0573
16939TIP3    H172232   3.198   1.123   3.605 -0.5623  0.7341 -0.7348
16939TIP3    H272233   3.178   1.048   3.475 -0.7622 -0.2870 -0.1269
16940TIP3   OH272234   2.070   2.547  11.056 -0.0251 -0.6376 -0.2963
16940TIP3    H172235   2.001   2.495  11.015 -1.6307  1.4721 -0.4185
16940TIP3    H272236   2.080   2.510  11.143 -3.3280  0.6295  0.7750
16941TIP3   OH272237   4.850   5.243   3.078  0.1210  0.0144  0.5698
16941TIP3    H172238   4.805   5.272   3.158 -1.3123 -0.6243  0.0368
16941TIP3    H272239   4.943   5.261   3.094 -0.3418  1.8030  1.5541
16942TIP3   OH272240   5.849   5.917   5.486 -0.5489 -0.1680  0.1005
16942TIP3    H172241   5.863   5.964   5.404  0.0696  0.7949  0.7353
16942TIP3    H272242   5.877   5.828   5.467 -1.0735 -0.1315 -0.9273
16943TIP3   OH272243   3.471   2.431   4.707  0.2136 -0.0999  0.0072
16943TIP3    H172244   3.515   2.348   4.689 -0.3219  0.0145 -2.1682
16943TIP3    H272245   3.527   2.497   4.667 -0.7859  0.2623 -0.8412
16944TIP3   OH272246   3.155   3.047   3.950  0.1479  0.2400  0.7062
16944TIP3    H172247   3.150   3.060   3.855  0.9514 -3.0472  0.0921
16944TIP3    H272248   3.249   3.052   3.969  0.2251 -1.4218  0.8752
16945TIP3   OH272249   4.333   6.324  10.992  0.4724  0.1004  0.5501
16945TIP3    H172250   4.267   6.258  10.974  0.2557  0.7404 -1.1937
16945TIP3    H272251   4.375   6.295  11.074 -0.1028 -1.7707  0.2227
16946TIP3   OH272252   0.998   6.284  11.978 -0.5661 -0.5446  0.1552
16946TIP3    H172253   1.008   6.336  11.899 -2.0039 -1.0950 -0.4190
16946TIP3    H272254   0.967   6.345  12.044 -1.4803 -0.5057 -0.3030
16947TIP3   OH272255   1.886   2.562  15.017 -0.5158 -0.2260  0.8857
16947TIP3    H172256   1.811   2.542  14.962 -0.0393  0.0504  0.1059
16947TIP3    H272257   1.928   2.637  14.973  0.6354 -0.8517  0.8751
16948TIP3   OH272258   2.497   5.628   5.749 -0.0470 -0.1977  0.1276
16948TIP3    H172259   2.516   5.722   5.740  0.0091 -0.0623  1.4875
16948TIP3    H272260   2.448   5.606   5.670 -0.6389  1.1257  0.0989
16949TIP3   OH272261   6.658   2.062  15.299  0.6806  0.2756 -0.2007
16949TIP3    H172262   6.744   2.021  15.307  0.0413 -1.3990 -1.3620
16949TIP3    H272263   6.676   2.156  15.294  2.6023 -0.1124 -2.2414
16950TIP3   OH272264   1.997   0.693  14.507 -0.1532 -0.2144 -0.4825
16950TIP3    H172265   1.955   0.639  14.441 -0.5111 -0.2201 -0.2500
16950TIP3    H272266   1.936   0.765  14.522  0.4024  0.3694 -0.9368
16951TIP3   OH272267   5.513   1.459  14.556 -0.0147 -0.9722 -0.3215
16951TIP3    H172268   5.535   1.534  14.613 -0.9609 -0.7420 -0.2427
16951TIP3    H272269   5.594   1.409  14.551  0.5082 -0.1909  0.0131
16952TIP3   OH272270   4.804   5.549  12.856  0.1951 -0.3279  0.5159
16952TIP3    H172271   4.798   5.460  12.891 -0.5777  0.7001  3.2783
16952TIP3    H272272   4.720   5.563  12.813 -0.0356 -0.6111  0.8677
16953TIP3   OH272273   3.659   5.425   4.196  0.2493  0.3034  0.7791
16953TIP3    H172274   3.721   5.498   4.193  0.5162  0.1020  1.2344
16953TIP3    H272275   3.692   5.369   4.267  0.6833 -0.8142 -0.2664
16954TIP3   OH272276   2.399   4.132  14.149  0.3933 -0.0473  0.0417
16954TIP3    H172277   2.327   4.070  14.146  0.4581 -0.2565  1.8919
16954TIP3    H272278   2.359   4.218  14.135 -0.2509 -0.1539  1.1393
16955TIP3   OH272279   2.062   3.431  15.760 -0.0055  0.1508 -0.6027
16955TIP3    H172280   2.112   3.486  15.820  2.8089 -1.4056 -1.3792
16955TIP3    H272281   2.060   3.480  15.679 -0.4752  0.5669 -0.3465
16956TIP3   OH272282   4.787   2.145   5.582  0.1824  0.4988  0.0355
16956TIP3    H172283   4.718   2.177   5.639  0.4143 -0.5503  0.9207
16956TIP3    H272284   4.821   2.224   5.539 -1.4290  1.0455 -0.2978
16957TIP3   OH272285   2.628   3.506  12.654 -0.3454 -0.1430 -0.0721
16957TIP3    H172286   2.663   3.454  12.727  1.6261  1.5635  0.2822
16957TIP3    H272287   2.544   3.539  12.687  0.4658  0.5271  1.4380
16958TIP3   OH272288   3.538   6.732   5.223  0.1294 -0.5156  0.0993
16958TIP3    H172289   3.526   6.749   5.316 -0.5357 -0.3036 -0.0210
16958TIP3    H272290   3.583   6.647   5.219 -0.9749 -1.1383  0.5847
16959TIP3   OH272291   4.515   2.247   0.204  0.4554  0.4511  0.0992
16959TIP3    H172292   4.491   2.322   0.149 -0.8200  0.3037  0.4466
16959TIP3    H272293   4.602   2.222   0.171 -0.7114 -0.3701 -2.6904
16960TIP3   OH272294   4.289   5.116   2.773  0.3264  0.0132  0.5087
16960TIP3    H172295   4.272   5.172   2.697  0.7758 -0.5801 -0.0431
16960TIP3    H272296   4.383   5.122   2.787  0.8214 -2.4600 -1.0958
16961TIP3   OH272297   6.618   5.234  14.697 -0.3570 -0.0926 -0.8788
16961TIP3    H172298   6.655   5.151  14.725 -0.8909 -0.6108 -1.6682
16961TIP3    H272299   6.558   5.211  14.626  0.7094  1.1170 -2.2463
16962TIP3   OH272300   5.317   2.375  14.408 -0.2420  0.4655  0.1978
16962TIP3    H172301   5.246   2.438  14.393  0.0216  0.4388 -1.3251
16962TIP3    H272302   5.297   2.336  14.493 -1.1570  1.6286  0.5425
16963TIP3   OH272303   5.812   2.114  11.899 -0.1838  0.1087  0.3129
16963TIP3    H172304   5.797   2.128  11.806 -0.3097 -1.7636 -0.0035
16963TIP3    H272305   5.902   2.144  11.914  0.6146 -1.5020 -0.9215
16964TIP3   OH272306   3.687   0.722  13.889 -0.0247 -0.3065  0.0981
16964TIP3    H172307   3.682   0.774  13.809  2.4049  1.3232  0.8662
16964TIP3    H272308   3.679   0.632  13.860 -2.9076  0.3286 -1.4782
16965TIP3   OH272309   4.793   6.297   5.445 -0.1764  0.2004  0.6345
16965TIP3    H172310   4.710   6.267   5.483  0.5729 -2.0939  0.6032
16965TIP3    H272311   4.766   6.356   5.374 -1.7106  0.9404  1.7732
16966TIP3   OH272312   4.740   5.474   2.948  0.4780  0.6094  0.2310
16966TIP3    H172313   4.679   5.458   2.876 -0.5548  1.8817  0.7803
16966TIP3    H272314   4.767   5.387   2.977 -2.7450 -0.1602  1.3401
16967TIP3   OH272315   2.788   4.206   0.376  0.0525 -0.4863  0.2545
16967TIP3    H172316   2.714   4.210   0.316 -0.1572 -2.0325  0.3657
16967TIP3    H272317   2.761   4.145   0.444  0.5114  0.7807  1.6295
16968TIP3   OH272318   1.237   3.032   5.440 -0.8971  0.1572 -0.2891
16968TIP3    H172319   1.244   3.043   5.535 -0.9232 -1.5316 -0.0521
16968TIP3    H272320   1.327   3.014   5.412 -1.1518 -1.3789 -0.2419
16969TIP3   OH272321   6.527   1.932   2.764 -0.6541  0.8628  0.1870
16969TIP3    H172322   6.544   1.886   2.682 -2.1587  0.8641 -0.1543
16969TIP3    H272323   6.547   2.024   2.746  0.7488  0.6060  0.3724
16970TIP3   OH272324   0.928   1.988   4.805 -0.2228  0.8328 -0.3404
16970TIP3    H172325   0.897   2.078   4.808  0.6421  1.1216  0.2247
16970TIP3    H272326   0.905   1.951   4.891  0.7862  1.0009  0.0267
16971TIP3   OH272327   6.320   4.471  14.129 -0.1378  0.0009 -0.4121
16971TIP3    H172328   6.321   4.536  14.058  1.0711 -0.3415 -0.7438
16971TIP3    H272329   6.276   4.515  14.202  2.6246  2.0982  0.1571
16972TIP3   OH272330   4.856   6.011   5.451 -0.1241  0.5319 -0.1925
16972TIP3    H172331   4.829   6.100   5.428 -0.3212  0.4113 -0.4289
16972TIP3    H272332   4.894   5.976   5.371 -0.1190  0.3756 -0.1214
16973TIP3   OH272333   0.940   6.743   2.290  0.1535 -0.2886 -0.2347
16973TIP3    H172334   0.882   6.804   2.335  0.5046  0.7685 -1.1826
16973TIP3    H272335   0.918   6.752   2.197  0.9982 -0.7562 -0.4948
16974TIP3   OH272336   3.997   6.335  12.902  0.3762 -0.3071  0.1546
16974TIP3    H172337   3.926   6.291  12.856  0.0430 -1.3285  1.5533
16974TIP3    H272338   4.047   6.378  12.834  1.0403 -3.3177 -1.4236
16975TIP3   OH272339   1.716   5.938  15.437  0.2322 -0.2239 -0.0333
16975TIP3    H172340   1.632   5.905  15.469  0.6489  0.8335  2.3243
16975TIP3    H272341   1.774   5.862  15.439 -0.0508 -0.4215  0.6376
16976TIP3   OH272342   3.540   0.163  12.888 -0.0994  0.0387  0.2468
16976TIP3    H172343   3.535   0.107  12.965  0.1229 -0.7977 -0.3397
16976TIP3    H272344   3.498   0.245  12.916 -0.6654 -0.4994  1.0250
16977TIP3   OH272345   2.621   0.125  12.324  0.4919  0.0124 -0.6707
16977TIP3    H172346   2.656   0.214  12.326  1.2043 -0.2278  2.0298
16977TIP3    H272347   2.666   0.084  12.250  0.9423  1.5920 -1.3193
16978TIP3   OH272348   3.751   0.175   2.265  0.6662 -0.3258  0.7142
16978TIP3    H172349   3.665   0.218   2.265  0.7688 -0.1145  0.0560
16978TIP3    H272350   3.734   0.089   2.228  0.7828 -0.1810  0.3154
16979TIP3   OH272351   0.124   1.521   0.619 -0.3790  0.0227 -0.4263
16979TIP3    H172352   0.130   1.520   0.715 -0.2884 -0.6856 -0.4386
16979TIP3    H272353   0.134   1.613   0.596 -2.9627  0.5891  0.4171
16980TIP3   OH272354   4.133   1.762   0.179 -0.6576  0.1675  0.2788
16980TIP3    H172355   4.188   1.732   0.107 -1.3116 -0.2884 -0.0520
16980TIP3    H272356   4.057   1.802   0.136 -0.1744  1.5980  0.7225
16981TIP3   OH272357   4.911   5.173  12.732 -0.0604  0.5893 -0.3170
16981TIP3    H172358   4.846   5.229  12.774  0.5611  2.3927 -1.6004
16981TIP3    H272359   4.970   5.147  12.802 -0.2762  1.7101  0.2952
16982TIP3   OH272360   3.526   1.204  13.924  0.2008  0.0953 -0.1235
16982TIP3    H172361   3.577   1.279  13.895  0.0098  0.4856  0.5466
16982TIP3    H272362   3.516   1.215  14.018  0.6463 -1.0624  0.0803
16983TIP3   OH272363   4.506   6.561  13.752 -0.1716 -0.2265  0.5631
16983TIP3    H172364   4.452   6.624  13.704  1.0511 -1.9393 -3.4588
16983TIP3    H272365   4.581   6.613  13.782 -0.0474  0.6663 -1.1315
16984TIP3   OH272366   5.318   0.730   2.636 -0.1043 -0.5574  0.8455
16984TIP3    H172367   5.378   0.696   2.570  0.5203  0.8160  0.6625
16984TIP3    H272368   5.236   0.746   2.588  0.5358  1.0340  0.1988
16985TIP3   OH272369   3.117   5.536   1.003  0.1018  0.0839 -0.4464
16985TIP3    H172370   3.079   5.609   1.051  0.7235  0.4138 -0.4479
16985TIP3    H272371   3.148   5.574   0.921  0.2351 -0.2195 -0.5373
16986TIP3   OH272372   3.618   4.749  10.463 -0.5971  0.0596  0.6315
16986TIP3    H172373   3.560   4.822  10.445 -1.5643 -0.7595  0.3496
16986TIP3    H272374   3.563   4.682  10.503  0.0228 -0.9167 -0.0694
16987TIP3   OH272375   6.061   3.242   1.655 -0.4169 -0.3175  0.2739
16987TIP3    H172376   6.135   3.204   1.703 -1.1175  1.4430  2.9590
16987TIP3    H272377   5.987   3.184   1.675 -0.3004 -0.7262 -0.4323
16988TIP3   OH272378   3.720   4.176   4.841  0.0422 -0.0541  0.3030
16988TIP3    H172379   3.777   4.219   4.778  1.2179  1.7871  2.4708
16988TIP3    H272380   3.631   4.200   4.814  0.4888  0.3265 -0.8662
16989TIP3   OH272381   1.041   1.220   2.887  0.0634 -0.2568  0.1718
16989TIP3    H172382   1.006   1.254   2.805 -2.1008 -1.1922  0.6436
16989TIP3    H272383   1.063   1.129   2.869  3.2075  0.4924 -0.3268
16990TIP3   OH272384   6.089   3.479   2.427  0.2592  0.2194 -0.0641
16990TIP3    H172385   6.174   3.506   2.394 -1.2590  3.3853 -1.8243
16990TIP3    H272386   6.066   3.545   2.492 -0.1414 -1.6589  1.8228
16991TIP3   OH272387   5.504   0.987   3.851 -0.0321 -0.1307 -0.1369
16991TIP3    H172388   5.428   1.045   3.858  0.3921  0.5552 -0.9552
16991TIP3    H272389   5.571   1.041   3.807  0.6069 -1.0247 -0.2869
16992TIP3   OH272390   1.165   2.054  14.794  0.1687 -0.0927 -0.8190
16992TIP3    H172391   1.125   2.113  14.731  0.2035 -0.8524 -1.5719
16992TIP3    H272392   1.130   1.967  14.773 -1.6563 -0.0775  1.7068
16993TIP3   OH272393   3.009   0.712   3.532 -0.0051  0.2447 -0.1037
16993TIP3    H172394   3.043   0.725   3.444 -1.4220  1.2596 -0.5492
16993TIP3    H272395   2.989   0.619   3.537 -1.4766  0.4374 -1.4953
16994TIP3   OH272396   6.642   2.963  15.158 -0.3212  0.3111  0.0168
16994TIP3    H172397   6.553   2.960  15.192 -0.6415  0.5624 -0.7595
16994TIP3    H272398   6.631   2.960  15.063  0.5503 -0.6850 -0.0707
16995TIP3   OH272399   2.179   4.415  16.095 -0.3792  0.3560  0.2766
16995TIP3    H172400   2.101   4.361  16.108 -0.5110  0.3907 -0.3331
16995TIP3    H272401   2.242   4.357  16.051 -0.5732  0.7252 -0.5114
16996TIP3   OH272402   5.856   1.510  14.684  0.0583  0.4163 -0.4892
16996TIP3    H172403   5.879   1.596  14.650  1.4890  0.2315 -0.0542
16996TIP3    H272404   5.859   1.520  14.780  0.1399 -0.0957 -0.4351
16997TIP3   OH272405   5.622   1.492   5.203 -0.3130 -0.5681  1.1391
16997TIP3    H172406   5.637   1.557   5.135 -0.6492 -1.1967  0.4540
16997TIP3    H272407   5.529   1.472   5.198 -0.5364  0.0201  2.3897
16998TIP3   OH272408   2.992   2.205  14.630 -0.6982  0.6522  0.1352
16998TIP3    H172409   3.078   2.168  14.648  0.0650  1.5715 -1.3911
16998TIP3    H272410   2.931   2.148  14.676  0.8116  1.0718  2.8578
16999TIP3   OH272411   5.457   6.081  16.186 -0.6402 -0.8958  0.4703
16999TIP3    H172412   5.485   6.124  16.267  1.4165 -2.6522  0.8183
16999TIP3    H272413   5.477   6.144  16.117 -0.9434  0.0196  1.1966
17000TIP3   OH272414   4.413   1.831   0.503 -0.4477 -0.1790 -0.6434
17000TIP3    H172415   4.406   1.898   0.570 -1.7157 -0.5996 -0.3325
17000TIP3    H272416   4.471   1.869   0.437  0.4078  0.4347  0.4381
17001TIP3   OH272417   6.549   3.318   4.056 -0.5388  0.4681  0.2444
17001TIP3    H172418   6.509   3.352   4.136 -0.9495  3.4103 -1.0697
17001TIP3    H272419   6.520   3.378   3.987  2.7113  0.2959 -1.5126
17002TIP3   OH272420   6.574   2.299  11.881  0.3511  0.0690  0.4674
17002TIP3    H172421   6.574   2.255  11.795  1.2096  0.5249  0.2185
17002TIP3    H272422   6.648   2.359  11.876  0.4294  0.0717  1.5491
17003TIP3   OH272423   1.493   0.495  15.144 -0.3468  0.3926 -0.0817
17003TIP3    H172424   1.575   0.478  15.099 -0.4630 -0.5523  0.0454
17003TIP3    H272425   1.501   0.449  15.227 -1.5569 -0.9717 -0.6694
17004TIP3   OH272426   5.513   6.215   4.243  0.0270 -0.2378 -0.0947
17004TIP3    H172427   5.545   6.128   4.221  0.6561 -0.2613  0.8412
17004TIP3    H272428   5.584   6.274   4.220  0.3387 -0.1738  0.9645
17005TIP3   OH272429   6.178   5.174   2.687  0.6622 -0.2022 -0.7889
17005TIP3    H172430   6.122   5.148   2.614 -0.5177 -0.4978  0.1750
17005TIP3    H272431   6.137   5.133   2.764  1.8592  0.1000  0.0368
17006TIP3   OH272432   3.950   3.463   5.406 -0.2881  0.4123 -0.5522
17006TIP3    H172433   3.964   3.369   5.402  0.4755  0.3699  1.4668
17006TIP3    H272434   3.871   3.479   5.356  0.1988 -1.1350 -1.8831
17007TIP3   OH272435   3.726   2.925   3.752  0.0975  0.4860 -0.0282
17007TIP3    H172436   3.670   2.869   3.699  0.4699 -0.3540  0.4414
17007TIP3    H272437   3.698   3.014   3.732 -2.1536  0.0735  1.0261
17008TIP3   OH272438   6.472   3.420   3.252 -0.3485  0.3033  0.4170
17008TIP3    H172439   6.399   3.481   3.245 -0.9947 -0.4051  0.7513
17008TIP3    H272440   6.500   3.405   3.162  0.5897  1.9736  0.4012
17009TIP3   OH272441   3.981   1.216  15.350  0.7249 -0.2252 -0.1350
17009TIP3    H172442   4.039   1.291  15.364  1.0085 -0.4052 -0.3351
17009TIP3    H272443   3.930   1.240  15.272 -1.6404  1.2649  1.7031
17010TIP3   OH272444   0.108   4.131  13.658 -0.1203 -0.5922 -0.7448
17010TIP3    H172445   0.120   4.127  13.563 -1.1401  1.7478 -1.0234
17010TIP3    H272446   0.167   4.201  13.686  0.5713 -1.6193  0.4704
17011TIP3   OH272447   1.471   5.992   3.723 -0.0364  0.2814  0.0033
17011TIP3    H172448   1.521   5.927   3.673  1.5991  1.1813  0.3920
17011TIP3    H272449   1.392   5.946   3.750  1.1616 -1.6308  0.4471
17012TIP3   OH272450   2.435   1.922   0.862  0.3828 -0.7103 -0.7829
17012TIP3    H172451   2.419   2.010   0.829 -0.8036 -0.5457  0.1992
17012TIP3    H272452   2.529   1.908   0.847  0.6536  0.8220 -0.6606
17013TIP3   OH272453   0.216   4.302   3.172  0.3939  0.1053  0.2060
17013TIP3    H172454   0.257   4.262   3.249  1.9773  1.5598  0.1793
17013TIP3    H272455   0.131   4.260   3.166  1.1464 -1.7146  1.3863
17014TIP3   OH272456   0.377   3.299  17.109 -0.2921  0.0057 -0.6641
17014TIP3    H172457   0.332   3.368  17.159  0.3980  0.4697 -0.6610
17014TIP3    H272458   0.340   3.217  17.142  0.3504  0.2837  0.8353
17015TIP3   OH272459   2.950   2.159   2.553 -0.4007 -0.5369 -0.3739
17015TIP3    H172460   2.953   2.237   2.609 -1.9847 -1.7176  1.4339
17015TIP3    H272461   2.891   2.183   2.482 -1.1814 -0.2098  0.3780
17016TIP3   OH272462   0.334   2.040   1.407 -0.3638 -0.4405 -0.4714
17016TIP3    H172463   0.318   2.123   1.363 -3.2870 -0.7361 -0.1579
17016TIP3    H272464   0.273   2.040   1.481  1.5071 -1.7254  1.2084
17017TIP3   OH272465   0.390   3.446  16.250  0.5731  0.3760 -0.4647
17017TIP3    H172466   0.350   3.408  16.172 -1.5530  0.9658  0.2573
17017TIP3    H272467   0.391   3.540  16.233  0.8113  0.4404 -0.0991
17018TIP3   OH272468   0.655   5.751   2.030  0.0911  0.4584 -0.1706
17018TIP3    H172469   0.578   5.807   2.014 -0.6384 -0.1078  1.1775
17018TIP3    H272470   0.648   5.682   1.964 -0.1524  0.8199 -0.5291
17019TIP3   OH272471   5.643   0.272  17.065 -0.3921  0.1271  0.2081
17019TIP3    H172472   5.645   0.305  16.975 -0.4507  2.2032  0.9143
17019TIP3    H272473   5.714   0.208  17.070 -0.8522 -0.5490 -1.4911
17020TIP3   OH272474   2.339   4.392   4.118 -0.4212  0.3713  0.0993
17020TIP3    H172475   2.392   4.458   4.074  0.1617  0.4721  0.9237
17020TIP3    H272476   2.343   4.415   4.211  0.5279 -1.2938  0.5230
17021TIP3   OH272477   3.795   4.638  15.148  0.6571  0.7435 -0.1809
17021TIP3    H172478   3.821   4.593  15.228 -1.5096  0.8418  0.6356
17021TIP3    H272479   3.714   4.685  15.171 -0.7364 -0.2004 -2.7184
17022TIP3   OH272480   1.893   4.705   3.869 -0.0195 -0.0582 -0.4906
17022TIP3    H172481   1.897   4.790   3.826 -0.2195  0.0209 -0.3522
17022TIP3    H272482   1.984   4.677   3.875  0.1144  0.4921  0.1614
17023TIP3   OH272483   2.747   1.238   5.588 -0.2179 -0.4781 -0.0989
17023TIP3    H172484   2.828   1.241   5.640  1.0750 -0.6807 -1.9663
17023TIP3    H272485   2.677   1.258   5.650  1.3659  0.7286  1.3921
17024TIP3   OH272486   2.963   4.694  12.449  0.2927 -0.0709 -0.4045
17024TIP3    H172487   2.950   4.735  12.364 -1.9147 -0.3559 -0.2609
17024TIP3    H272488   2.887   4.636  12.460 -1.5592  2.6530  3.2920
17025TIP3   OH272489   5.192   5.490   1.048 -0.2162  0.3385 -0.6909
17025TIP3    H172490   5.181   5.566   0.991  0.8164  1.0154 -0.0165
17025TIP3    H272491   5.285   5.469   1.045 -0.0735  0.5648  0.9261
17026TIP3   OH272492   3.650   0.532   4.088 -0.1221 -0.2742  0.0295
17026TIP3    H172493   3.715   0.544   4.019 -1.0430  1.8497 -0.5608
17026TIP3    H272494   3.566   0.527   4.041 -0.6178 -0.3572  0.8982
17027TIP3   OH272495   3.525   0.619  16.773 -0.2505 -0.1649  0.1728
17027TIP3    H172496   3.514   0.648  16.682  1.5350 -0.6603 -0.2318
17027TIP3    H272497   3.566   0.694  16.817 -0.6284 -0.1231  0.4651
17028TIP3   OH272498   1.392   1.372   0.622 -0.5911 -0.4682 -0.3730
17028TIP3    H172499   1.433   1.371   0.709  0.2629 -0.3114 -0.7730
17028TIP3    H272500   1.403   1.282   0.590  0.4977 -0.1369 -0.9655
17029TIP3   OH272501   1.270   5.885   2.389 -0.7960  0.6929  0.3820
17029TIP3    H172502   1.359   5.850   2.397 -1.1449 -0.1117  0.7822
17029TIP3    H272503   1.247   5.913   2.477 -0.5696  1.8525  0.0915
17030TIP3   OH272504   5.525   3.580  16.190  0.2956 -0.2564 -0.0528
17030TIP3    H172505   5.465   3.567  16.116  0.0569 -0.8478  0.2449
17030TIP3    H272506   5.607   3.537  16.163  0.6650  0.7123 -0.5382
17031TIP3   OH272507   0.511   2.251   0.425  0.0955  0.1734 -0.2474
17031TIP3    H172508   0.523   2.208   0.340  2.9914  0.0836  0.0881
17031TIP3    H272509   0.423   2.226   0.453 -0.1410 -1.5305 -2.2502
17032TIP3   OH272510   5.094   1.174   3.358  0.0467  0.0519 -0.2362
17032TIP3    H172511   5.071   1.109   3.291  1.0300  0.2208 -0.7637
17032TIP3    H272512   5.104   1.123   3.438  1.8243 -0.6450 -0.8519
17033TIP3   OH272513   6.101   0.816  13.804  0.0587  0.1004  0.2334
17033TIP3    H172514   6.058   0.764  13.872  0.8084 -1.3498 -0.3614
17033TIP3    H272515   6.167   0.867  13.851  0.4372 -0.7349  0.6230
17034TIP3   OH272516   3.799   3.796  14.562 -0.0080  0.1127  0.0182
17034TIP3    H172517   3.873   3.789  14.502  1.4630  0.5031  1.6982
17034TIP3    H272518   3.816   3.877  14.612 -1.3582 -0.0030  0.7097
17035TIP3   OH272519   3.870   0.914   0.690  0.1748 -0.3053  0.1574
17035TIP3    H172520   3.861   1.002   0.725 -3.6673 -0.7829  0.7863
17035TIP3    H272521   3.821   0.915   0.607 -0.7294 -1.9938  0.6128
17036TIP3   OH272522   4.265   3.183   3.827  0.9706 -0.0057  0.0086
17036TIP3    H172523   4.290   3.198   3.918  2.1609  1.5581 -0.5223
17036TIP3    H272524   4.170   3.196   3.826  1.3322  3.9912  0.4246
17037TIP3   OH272525   1.476   0.942  12.832 -0.3389  0.3138 -0.5762
17037TIP3    H172526   1.553   0.986  12.870 -0.6009  1.4943 -1.3486
17037TIP3    H272527   1.513   0.878  12.771  0.0759  1.3569 -1.4756
17038TIP3   OH272528   3.380   5.271   2.673  0.5565  0.3148 -0.1403
17038TIP3    H172529   3.435   5.197   2.647  1.1782  1.4325 -2.2159
17038TIP3    H272530   3.372   5.263   2.768  0.3870 -2.5372 -0.3212
17039TIP3   OH272531   3.226   3.091   0.955  0.2814 -0.2444 -0.0541
17039TIP3    H172532   3.220   3.186   0.944 -1.2510 -0.3346 -0.3135
17039TIP3    H272533   3.214   3.077   1.049  0.5191 -0.1693 -0.0143
17040TIP3   OH272534   6.500   4.190   2.650  0.5577  0.7537  0.3583
17040TIP3    H172535   6.448   4.237   2.715 -0.7079 -0.8369  0.5563
17040TIP3    H272536   6.550   4.125   2.701  1.4633  1.1394 -0.0130
17041TIP3   OH272537   5.479   1.521   4.579  0.9717  0.0825  0.1992
17041TIP3    H172538   5.387   1.511   4.600  0.7130 -0.4625 -1.0685
17041TIP3    H272539   5.502   1.440   4.533  2.2288 -0.0232  0.9590
17042TIP3   OH272540   4.033   0.817  12.323  0.1312  0.1272  0.0267
17042TIP3    H172541   4.123   0.849  12.325  0.5460 -0.8624 -1.0671
17042TIP3    H272542   3.984   0.884  12.276  0.0021  1.2686  1.7174
17043TIP3   OH272543   2.687   5.406  15.055 -0.0288 -0.1411 -0.3062
17043TIP3    H172544   2.774   5.368  15.061 -0.1846 -0.4418  0.0593
17043TIP3    H272545   2.681   5.464  15.131 -1.8413 -3.6183  2.4951
17044TIP3   OH272546   4.801   4.647   3.844  0.2027 -0.4814 -0.1312
17044TIP3    H172547   4.753   4.595   3.909 -0.7225 -0.4352 -0.7417
17044TIP3    H272548   4.865   4.586   3.807 -2.2066 -1.9375 -2.2967
17045TIP3   OH272549   2.858   2.689  15.080  0.3330  0.1066 -0.4848
17045TIP3    H172550   2.910   2.609  15.088  1.1228  0.3180 -2.5936
17045TIP3    H272551   2.886   2.743  15.154  0.5027 -1.1721  0.4177
17046TIP3   OH272552   6.679   0.765  13.103  0.2008  0.1775  0.1727
17046TIP3    H172553   6.717   0.679  13.090 -1.0497 -0.5746  1.2664
17046TIP3    H272554   6.715   0.794  13.187 -0.6577 -0.0175  0.6195
17047TIP3   OH272555   2.585   1.542   0.675 -0.2315 -0.2093  0.3599
17047TIP3    H172556   2.649   1.479   0.642 -0.7853  0.0684 -1.3626
17047TIP3    H272557   2.503   1.494   0.677 -0.1136 -0.3987  2.0132
17048TIP3   OH272558   4.331   5.656  16.337 -0.2518  0.2585 -0.1345
17048TIP3    H172559   4.319   5.638  16.243 -1.0212  0.6742 -0.1234
17048TIP3    H272560   4.388   5.732  16.340 -0.7377  0.6392 -0.2924
17049TIP3   OH272561   5.807   1.625   0.092  0.5030 -0.1748  0.1015
17049TIP3    H172562   5.857   1.630   0.173  1.4448  1.4075 -0.5349
17049TIP3    H272563   5.815   1.533   0.065  3.2929  0.0126 -0.0568
17050TIP3   OH272564   1.467   2.262   4.218 -0.5659  0.0592 -0.0674
17050TIP3    H172565   1.374   2.257   4.195 -0.8836 -0.4151  1.2800
17050TIP3    H272566   1.485   2.180   4.263 -0.1902  1.2876  2.1276
17051TIP3   OH272567   2.641   6.104  15.897  0.0825 -0.3984  0.5781
17051TIP3    H172568   2.667   6.045  15.968 -0.4563 -2.2730 -0.7123
17051TIP3    H272569   2.685   6.070  15.820  0.0893  1.1742 -0.1447
17052TIP3   OH272570   3.759   1.123  11.926 -0.4467 -0.2690 -0.7945
17052TIP3    H172571   3.746   1.217  11.924  0.7362 -0.0888 -2.1804
17052TIP3    H272572   3.784   1.100  11.836  0.6661 -1.6769 -0.1813
17053TIP3   OH272573   2.721   1.625  12.848 -0.1621  0.5333 -0.2428
17053TIP3    H172574   2.748   1.603  12.937  0.8508 -0.8754 -0.8441
17053TIP3    H272575   2.656   1.558  12.825  0.1911  0.3771 -0.8297
17054TIP3   OH272576   6.248   4.650  15.414 -0.5570  0.4256 -0.2653
17054TIP3    H172577   6.161   4.681  15.392 -1.2288  0.6362  2.3616
17054TIP3    H272578   6.299   4.729  15.431 -0.4301  0.2614  0.1429
17055TIP3   OH272579   0.352   5.229  12.872  0.0797  0.1277  0.1734
17055TIP3    H172580   0.400   5.282  12.935  1.2507 -0.7760  0.0657
17055TIP3    H272581   0.361   5.274  12.789 -0.1715  0.5174  0.3564
17056TIP3   OH272582   2.145   2.194   4.006 -0.0014 -0.1014 -0.0141
17056TIP3    H172583   2.155   2.205   3.911  0.0262 -1.8486 -0.2457
17056TIP3    H272584   2.172   2.278   4.043  1.0143  0.2625 -1.4902
17057TIP3   OH272585   4.487   5.197  15.921  0.1425 -0.1091  0.2310
17057TIP3    H172586   4.403   5.217  15.962  0.2523 -0.4654  0.6392
17057TIP3    H272587   4.465   5.144  15.845 -0.1238  1.2468 -0.6601
17058TIP3   OH272588   4.040   6.031   2.832  0.2617  0.3879  0.6539
17058TIP3    H172589   4.110   6.086   2.868  0.7666  0.5197 -0.4650
17058TIP3    H272590   3.985   6.091   2.782  1.0395 -0.1287 -0.9099
17059TIP3   OH272591   4.050   4.147  14.777  0.4178  0.6060 -0.3335
17059TIP3    H172592   4.074   4.092  14.853  1.4205 -0.1628 -1.1709
17059TIP3    H272593   3.957   4.166  14.790  0.2509 -0.5920  0.4359
17060TIP3   OH272594   6.175   5.433   0.889  0.0610  0.3533 -0.3849
17060TIP3    H172595   6.150   5.518   0.925 -2.4897  0.6298 -2.4755
17060TIP3    H272596   6.176   5.374   0.965 -1.4189  1.6129  0.6805
17061TIP3   OH272597   5.617   0.252   4.775  0.3546 -0.4004 -0.0812
17061TIP3    H172598   5.661   0.262   4.859  0.6162 -4.0575  0.3937
17061TIP3    H272599   5.687   0.226   4.714  0.0225  1.3266 -1.2857
17062TIP3   OH272600   2.329   4.000  15.208  0.1147  0.6820  0.5160
17062TIP3    H172601   2.248   4.011  15.257  0.4907  0.9031  1.1001
17062TIP3    H272602   2.331   3.907  15.183 -0.4649  0.7467  0.2239
17063TIP3   OH272603   5.917   1.759   5.771 -0.4943  1.0136  0.4071
17063TIP3    H172604   5.980   1.743   5.701 -1.3798 -3.3115  0.3131
17063TIP3    H272605   5.957   1.719   5.849 -2.6917 -1.4409  0.4392
17064TIP3   OH272606   2.146   3.631  11.196 -0.2723 -0.6742  0.1502
17064TIP3    H172607   2.206   3.557  11.185  0.9640  0.3882 -0.5506
17064TIP3    H272608   2.204   3.708  11.201 -1.5936  0.6307 -2.4876
17065TIP3   OH272609   6.652   0.713  13.393 -0.1598  0.2766 -0.5870
17065TIP3    H172610   6.620   0.641  13.447 -0.9819  0.1494 -1.2290
17065TIP3    H272611   6.726   0.676  13.345  0.7500  0.4646  0.6137
17066TIP3   OH272612   5.229   4.298  12.263 -0.3730 -0.4155  0.2138
17066TIP3    H172613   5.254   4.275  12.173  1.3030  2.2152 -0.0868
17066TIP3    H272614   5.142   4.338  12.254 -0.7824 -1.3340 -0.0242
17067TIP3   OH272615   1.840   0.557  11.914  0.5252  0.4627 -1.2112
17067TIP3    H172616   1.909   0.623  11.919  2.1178 -1.1747  2.1209
17067TIP3    H272617   1.887   0.474  11.901 -0.8372 -0.5805  0.0770
17068TIP3   OH272618   5.229   2.663  12.762  0.0661 -0.2535 -0.2234
17068TIP3    H172619   5.161   2.642  12.698  1.1101 -0.3102 -1.3270
17068TIP3    H272620   5.180   2.699  12.837 -1.2878 -1.5513 -0.4354
17069TIP3   OH272621   4.533   4.115   3.041 -0.3925  0.1566  0.3400
17069TIP3    H172622   4.590   4.099   3.116 -1.4757 -0.2080  1.1179
17069TIP3    H272623   4.588   4.099   2.965  0.5644 -0.0752  1.0635
17070TIP3   OH272624   6.540   4.932  13.312  0.0762  0.1375  0.2091
17070TIP3    H172625   6.626   4.935  13.354  0.4791 -0.6327 -0.5227
17070TIP3    H272626   6.554   4.971  13.226 -0.0843 -0.7805 -0.2534
17071TIP3   OH272627   3.984   3.128  14.614 -0.2820  0.1557 -0.1990
17071TIP3    H172628   3.974   3.220  14.590  0.8062  0.4473  0.3890
17071TIP3    H272629   3.901   3.087  14.590 -0.1087  0.9003 -2.2066
17072TIP3   OH272630   3.809   5.122   6.010 -0.0083  0.2836 -0.0015
17072TIP3    H172631   3.773   5.034   6.006 -1.9933  0.9545  1.4129
17072TIP3    H272632   3.894   5.111   6.053  1.3850 -1.2853 -2.9306
17073TIP3   OH272633   5.965   1.646  13.203  0.6594 -0.1929 -0.1171
17073TIP3    H172634   6.006   1.573  13.158 -0.4649 -1.4202  0.7799
17073TIP3    H272635   5.896   1.676  13.143  2.1237  1.2102 -1.1765
17074TIP3   OH272636   6.271   4.540   1.053  0.0689  0.0569 -0.3699
17074TIP3    H172637   6.308   4.461   1.092 -1.8153 -0.7253 -0.0549
17074TIP3    H272638   6.241   4.591   1.128 -0.5506  0.1046 -0.6407
17075TIP3   OH272639   6.444   1.703  13.526 -0.2582 -0.3217 -0.0812
17075TIP3    H172640   6.422   1.783  13.479  0.1286 -0.0405  0.2111
17075TIP3    H272641   6.362   1.653  13.529 -0.4515 -0.0262 -0.4315
17076TIP3   OH272642   1.472   3.680  11.132 -0.0816  0.7920 -0.5447
17076TIP3    H172643   1.553   3.636  11.108 -0.1000  0.3763  0.1232
17076TIP3    H272644   1.439   3.718  11.050  0.1737 -0.0421 -1.0355
17077TIP3   OH272645   2.984   1.377   3.390 -0.1076  0.2897  0.0043
17077TIP3    H172646   3.057   1.434   3.366 -0.8173  1.4756  0.5974
17077TIP3    H272647   3.014   1.289   3.367  0.6522  0.9736 -1.7748
17078TIP3   OH272648   0.100   5.088  12.069 -0.3488  0.6052 -0.1811
17078TIP3    H172649   0.134   5.154  12.009  0.8012 -0.9487 -1.3345
17078TIP3    H272650   0.058   5.023  12.012  0.7750 -0.9163  0.6621
17079TIP3   OH272651   0.136   0.480   4.084  0.9409 -0.2159 -0.4952
17079TIP3    H172652   0.146   0.560   4.136  1.1351 -0.5985  0.0669
17079TIP3    H272653   0.226   0.457   4.058  0.8390  0.0122 -1.0701
17080TIP3   OH272654   4.741   1.664   5.144  0.5789  0.6361 -0.3600
17080TIP3    H172655   4.699   1.616   5.073  3.1383  1.0148 -2.2775
17080TIP3    H272656   4.831   1.631   5.146  1.7374  3.4995 -0.0637
17081TIP3   OH272657   1.806   3.691   5.542 -0.0435 -0.2798 -0.1868
17081TIP3    H172658   1.880   3.639   5.573  0.4619  0.5742  0.0610
17081TIP3    H272659   1.826   3.781   5.568 -0.5184  0.1755 -1.3026
17082TIP3   OH272660   0.597   3.956   3.001 -0.1863  0.0822  0.6760
17082TIP3    H172661   0.505   3.959   2.976  0.0635  0.6417 -0.2275
17082TIP3    H272662   0.628   3.872   2.968 -0.1141  0.3705 -0.0120
17083TIP3   OH272663   5.568   6.059   5.864  0.0498 -0.0740  0.3634
17083TIP3    H172664   5.502   6.114   5.820  0.9939  0.2362 -0.7119
17083TIP3    H272665   5.518   6.010   5.929 -1.2511  0.1642 -0.4095
17084TIP3   OH272666   1.744   0.323  14.730 -0.4434 -0.3779 -0.6083
17084TIP3    H172667   1.654   0.314  14.699 -0.6203  0.7743 -0.4647
17084TIP3    H272668   1.752   0.415  14.755 -0.4276 -1.2486  3.1867
17085TIP3   OH272669   5.867   2.240  13.896 -0.2468  0.3513 -0.5299
17085TIP3    H172670   5.881   2.236  13.802  2.7862  1.4993 -0.2698
17085TIP3    H272671   5.850   2.333  13.914 -2.1994 -0.0568 -0.0284
17086TIP3   OH272672   1.155   4.169  10.680  0.3459  0.6091 -0.0781
17086TIP3    H172673   1.210   4.100  10.642  0.2807  1.1201 -1.1122
17086TIP3    H272674   1.065   4.142  10.662  0.0407 -1.2441  3.3014
17087TIP3   OH272675   4.598   5.630  11.793  0.8390 -0.2152 -0.4839
17087TIP3    H172676   4.603   5.636  11.889 -0.7618 -1.1900 -0.3169
17087TIP3    H272677   4.654   5.702  11.763  1.6904 -0.1209  1.1639
17088TIP3   OH272678   2.826   4.220  14.283 -0.4310  0.1438 -0.1224
17088TIP3    H172679   2.741   4.256  14.256  0.1153  1.1365 -0.5535
17088TIP3    H272680   2.842   4.148  14.223 -1.0785 -0.2095  0.1175
17089TIP3   OH272681   3.665   0.496  13.494 -0.5572  0.0719  0.2633
17089TIP3    H172682   3.680   0.411  13.451 -1.5845 -0.7725  1.4976
17089TIP3    H272683   3.665   0.559  13.422 -0.0580 -1.0132 -0.7239
17090TIP3   OH272684   4.775   0.818  13.261  0.4760  0.3645  0.5230
17090TIP3    H172685   4.801   0.734  13.298  0.0551 -0.1291 -0.2733
17090TIP3    H272686   4.680   0.816  13.260  0.4751  0.3225 -0.6561
17091TIP3   OH272687   6.681   5.301  16.249  0.4219 -0.1698  0.5057
17091TIP3    H172688   6.640   5.356  16.316 -0.1943 -0.6871  0.5620
17091TIP3    H272689   6.726   5.232  16.299  1.5074  0.4763  0.4519
17092TIP3   OH272690   5.361   1.710  16.620  0.0757  0.5660 -0.0049
17092TIP3    H172691   5.376   1.802  16.601 -0.3934  0.6019 -0.2102
17092TIP3    H272692   5.319   1.709  16.706 -1.2684  0.6463 -0.6376
17093TIP3   OH272693   0.309   4.956  11.076 -0.0447 -0.3257  0.0021
17093TIP3    H172694   0.258   4.926  11.151 -0.4280  0.2984 -0.0062
17093TIP3    H272695   0.309   5.051  11.082  1.8487 -0.3188  0.4809
17094TIP3   OH272696   2.501   4.095   2.027 -0.2388  0.0689 -0.0080
17094TIP3    H172697   2.469   4.005   2.016 -0.0972  0.2556 -2.8317
17094TIP3    H272698   2.421   4.147   2.040 -0.5103 -0.2465 -0.3817
17095TIP3   OH272699   1.982   0.886   2.410 -0.9068  0.3651 -0.2290
17095TIP3    H172700   2.000   0.877   2.317 -1.6227 -0.5149 -0.2941
17095TIP3    H272701   1.964   0.797   2.440 -0.2180  0.5656  0.8572
17096TIP3   OH272702   4.874   1.639   3.343 -0.1230  0.6380  0.4348
17096TIP3    H172703   4.938   1.588   3.294 -0.3048 -1.9303  2.6890
17096TIP3    H272704   4.926   1.696   3.400  0.1578 -0.2638  1.0918
17097TIP3   OH272705   3.266   6.716  11.558  0.4067  0.2650 -0.2120
17097TIP3    H172706   3.276   6.792  11.615 -1.4824 -1.6183  2.9370
17097TIP3    H272707   3.184   6.732  11.511  0.7560  0.8012 -0.6402
17098TIP3   OH272708   4.906   5.879  17.085 -0.2480 -0.3417  0.6842
17098TIP3    H172709   4.930   5.808  17.025 -1.9412  0.4625 -1.0451
17098TIP3    H272710   4.912   5.958  17.032  1.5023  0.8700  2.5521
17099TIP3   OH272711   5.805   6.363   4.995  0.1610 -0.1326  0.2844
17099TIP3    H172712   5.846   6.422   5.058 -0.9988  1.1709 -0.1254
17099TIP3    H272713   5.726   6.332   5.040 -1.8050  2.4148 -1.1347
17100TIP3   OH272714   3.156   0.899   3.068  0.2518  0.2824 -0.2056
17100TIP3    H172715   3.221   0.842   3.027 -1.4924 -1.0353 -1.2486
17100TIP3    H272716   3.098   0.926   2.997 -1.4002 -0.0276  0.9531
17101TIP3   OH272717   6.131   1.623   4.972 -0.0201  0.0514 -0.0562
17101TIP3    H172718   6.123   1.630   5.067 -1.3648 -1.7478  0.0028
17101TIP3    H272719   6.221   1.650   4.953 -0.7748  4.2431  1.2601
17102TIP3   OH272720   4.637   1.061  14.294  0.2752  0.4212 -0.2854
17102TIP3    H172721   4.660   1.024  14.208  2.7212  0.3940  0.3150
17102TIP3    H272722   4.573   0.999  14.330  0.0931 -0.1929 -1.6002
17103TIP3   OH272723   5.683   5.102  15.687 -0.3258 -0.2250  0.3053
17103TIP3    H172724   5.739   5.121  15.762 -0.0848  0.6529 -0.0849
17103TIP3    H272725   5.665   5.008  15.694 -2.2364  0.2122  2.7893
17104TIP3   OH272726   5.231   0.342   5.931 -0.1375  0.4309 -0.1187
17104TIP3    H172727   5.297   0.411   5.924 -1.1236  1.2127 -3.1070
17104TIP3    H272728   5.185   0.361   6.014  1.5510  1.5018  0.6358
17105TIP3   OH272729   6.681   6.636   5.015  0.1189 -0.4261 -0.5147
17105TIP3    H172730   6.619   6.567   4.990 -1.5624  0.3810  1.1141
17105TIP3    H272731   6.628   6.715   5.019  0.8412  0.0477  2.4128
17106TIP3   OH272732   1.984   1.639   2.864  0.5136 -0.0015 -0.0736
17106TIP3    H172733   2.074   1.613   2.844 -0.0323 -2.2163  0.1015
17106TIP3    H272734   1.930   1.572   2.822 -1.0060  0.5495  0.9330
17107TIP3   OH272735   2.833   0.282  13.111  0.2944  0.0517  0.0740
17107TIP3    H172736   2.914   0.270  13.061 -1.1751 -0.9859 -2.1874
17107TIP3    H272737   2.820   0.199  13.157  0.8437  0.4634  0.9953
17108TIP3   OH272738   1.668   6.726  15.904 -0.2316 -0.1004 -0.1689
17108TIP3    H172739   1.642   6.645  15.948  0.2093 -0.5304 -0.6889
17108TIP3    H272740   1.712   6.697  15.824  2.6554  0.5704  1.0641
17109TIP3   OH272741   3.928   4.102   0.552  0.3026  0.1150  0.1992
17109TIP3    H172742   3.956   4.117   0.462 -0.4551 -0.2104 -0.1024
17109TIP3    H272743   3.882   4.182   0.577  0.7255  0.3010  0.3831
17110TIP3   OH272744   3.337   0.042   1.353  0.1281  0.3359  0.2327
17110TIP3    H172745   3.418  -0.010   1.354 -0.6955 -1.0143 -0.5274
17110TIP3    H272746   3.354   0.111   1.288  0.4912 -0.2333 -0.2870
17111TIP3   OH272747   3.420   5.221  13.565  0.3020 -0.0070  0.3213
17111TIP3    H172748   3.491   5.286  13.563  0.2144  0.1431  1.3681
17111TIP3    H272749   3.446   5.156  13.500  1.2750  0.1896  0.4853
17112TIP3   OH272750   2.065   0.124   4.483 -0.1453  0.9301 -0.0100
17112TIP3    H172751   2.071   0.029   4.482 -1.8907  0.8007 -0.5342
17112TIP3    H272752   2.047   0.145   4.575 -3.3828  0.4284 -0.4304
17113TIP3   OH272753   2.451   6.705   0.008  0.6982 -0.0952  0.1292
17113TIP3    H172754   2.383   6.768   0.035 -0.0498 -0.7562 -0.1710
17113TIP3    H272755   2.464   6.724  -0.086  1.0745  0.1534  0.2273
17114TIP3   OH272756   4.518   4.736   4.808 -0.4892 -0.1282 -0.0397
17114TIP3    H172757   4.443   4.790   4.784 -0.0062  0.0886 -1.1296
17114TIP3    H272758   4.495   4.648   4.777 -0.1468  0.0145 -0.7156
17115TIP3   OH272759   3.005   4.394   0.710  0.9238 -0.3240  0.2979
17115TIP3    H172760   3.009   4.415   0.617  2.0375  0.1082  0.4224
17115TIP3    H272761   2.940   4.454   0.746 -0.2092 -1.1409 -0.3512
17116TIP3   OH272762   5.343   1.347   2.960 -0.2931 -0.4341  0.0531
17116TIP3    H172763   5.271   1.320   2.903 -0.8670  1.3093 -0.0981
17116TIP3    H272764   5.323   1.438   2.983  0.9279 -0.4902  1.4822
17117TIP3   OH272765   0.149   5.202   0.408 -0.0306 -0.0647  0.5520
17117TIP3    H172766   0.180   5.212   0.498 -3.3728 -1.6718  2.0818
17117TIP3    H272767   0.171   5.112   0.384  2.5354  0.8948 -1.1130
17118TIP3   OH272768   5.926   5.118   4.997  0.6973  0.3173  0.2709
17118TIP3    H172769   5.963   5.119   5.085 -0.9529 -0.4305  1.0104
17118TIP3    H272770   5.920   5.026   4.974 -0.2546  0.4331 -0.0008
17119TIP3   OH272771   1.923   3.179   3.362  0.5252  0.0477 -0.3689
17119TIP3    H172772   1.960   3.109   3.308  0.2383  0.0131 -0.5230
17119TIP3    H272773   1.982   3.253   3.349  1.6405 -0.5779  0.8963
17120TIP3   OH272774   0.518   5.132  15.804 -0.1241  0.6075  0.4793
17120TIP3    H172775   0.476   5.194  15.864 -1.3886 -1.2035  1.5493
17120TIP3    H272776   0.524   5.051  15.853  1.8580 -0.0629 -0.7472
17121TIP3   OH272777   1.163   3.560  12.120 -0.1202  0.1194  0.1894
17121TIP3    H172778   1.157   3.471  12.085  0.0812  0.0048  0.4399
17121TIP3    H272779   1.075   3.577  12.155 -0.0389 -0.1519  0.5357
17122TIP3   OH272780   2.707   4.356   3.110 -0.4135  0.1661 -0.4483
17122TIP3    H172781   2.616   4.350   3.138 -0.1147 -0.2743  0.4721
17122TIP3    H272782   2.757   4.358   3.192  0.5536 -2.1969 -0.8769
17123TIP3   OH272783   4.758   3.953   4.508 -0.2353  0.1817 -0.2816
17123TIP3    H172784   4.822   3.951   4.579  0.1526  0.6579 -0.6155
17123TIP3    H272785   4.761   3.865   4.471  0.3874  0.2665 -0.4398
17124TIP3   OH272786   4.022   2.641   5.240  0.4866  0.2798 -0.2893
17124TIP3    H172787   3.996   2.598   5.322  0.4186  1.5038  0.3714
17124TIP3    H272788   4.046   2.570   5.181  0.0042 -0.6616  0.6150
17125TIP3   OH272789   6.014   5.960   4.447  0.2929 -0.2583  0.4752
17125TIP3    H172790   5.943   6.015   4.415  0.9059  0.6970  0.7150
17125TIP3    H272791   5.973   5.875   4.462 -0.9412  0.4180  1.1639
17126TIP3   OH272792   5.001   4.752   0.943 -0.3429  0.5622  0.3305
17126TIP3    H172793   4.958   4.701   0.875  1.6345 -1.3334  0.3903
17126TIP3    H272794   4.929   4.792   0.993 -1.9221 -0.8433 -0.7384
17127TIP3   OH272795   6.138   1.355  13.300  0.0814 -0.0207 -0.3684
17127TIP3    H172796   6.223   1.312  13.309  1.4411  2.3291 -1.0480
17127TIP3    H272797   6.120   1.390  13.387  0.3198  0.3402 -0.4619
17128TIP3   OH272798   4.254   2.064  13.449 -0.0252 -0.8266  0.2622
17128TIP3    H172799   4.293   2.045  13.535 -1.4853  1.1147  1.4444
17128TIP3    H272800   4.257   1.981  13.403  0.8958 -1.9264  2.1613
17129TIP3   OH272801   3.599   1.207   4.836 -0.1842 -0.2710  0.1939
17129TIP3    H172802   3.663   1.202   4.907 -1.2196 -0.9469  1.1257
17129TIP3    H272803   3.608   1.296   4.801  0.4824  0.0065  1.0416
17130TIP3   OH272804   2.792   6.721  14.439  0.2721 -0.4735  0.1026
17130TIP3    H172805   2.818   6.813  14.446  0.1740 -0.3546 -0.9923
17130TIP3    H272806   2.741   6.704  14.518  3.5381 -0.6952  2.3723
17131TIP3   OH272807   2.662   2.149  16.218  0.5626  0.5067  0.1862
17131TIP3    H172808   2.700   2.155  16.306 -0.0373 -0.5814  0.5292
17131TIP3    H272809   2.680   2.060  16.190 -0.0570  0.5691 -0.4266
17132TIP3   OH272810   5.746   0.321   5.020  0.4191  0.3426  0.2223
17132TIP3    H172811   5.710   0.376   5.090 -0.0453  1.8799 -1.1571
17132TIP3    H272812   5.777   0.242   5.065  0.5858  1.4715  2.2143
17133TIP3   OH272813   4.923   2.714  12.078 -0.0554  0.3360  0.0425
17133TIP3    H172814   4.993   2.768  12.040  0.6612 -0.0973  0.7093
17133TIP3    H272815   4.913   2.642  12.016 -1.0486  1.2192 -0.8763
17134TIP3   OH272816   5.550   3.615  13.431 -0.1829 -0.0487 -0.0563
17134TIP3    H172817   5.524   3.706  13.442  0.5667  0.2030 -0.2675
17134TIP3    H272818   5.482   3.565  13.476 -2.5961  0.3702 -2.9315
17135TIP3   OH272819   0.213   1.208   2.004  0.5983 -0.0131  0.0525
17135TIP3    H172820   0.216   1.237   2.095  0.1011  0.1684  0.0125
17135TIP3    H272821   0.146   1.263   1.963  1.2718  0.3481 -0.5825
17136TIP3   OH272822   6.582   4.475  14.236 -0.3199  0.0937  0.2021
17136TIP3    H172823   6.500   4.493  14.189 -1.0145 -0.7160  1.0802
17136TIP3    H272824   6.635   4.426  14.173  0.0264  1.7073 -0.8226
17137TIP3   OH272825   1.739   2.380   4.148  0.5937 -0.0511  0.2386
17137TIP3    H172826   1.747   2.366   4.242 -1.2268  1.1735  0.6281
17137TIP3    H272827   1.657   2.338   4.124  0.5391  0.5153 -0.6042
17138TIP3   OH272828   5.504   0.849   1.065  0.0336  0.1578  0.1090
17138TIP3    H172829   5.432   0.873   1.006 -0.7846  0.5919  1.2560
17138TIP3    H272830   5.571   0.813   1.007 -1.0739 -0.1898 -0.9980
17139TIP3   OH272831   3.055   0.695  16.721 -0.5311 -0.4871  0.2744
17139TIP3    H172832   3.114   0.767  16.743  2.3852 -2.6596  0.0584
17139TIP3    H272833   2.987   0.736  16.667  0.5062  2.2082  0.8465
17140TIP3   OH272834   1.563   2.184   2.835  0.7126  0.0866 -0.6516
17140TIP3    H172835   1.603   2.107   2.874  0.5424  0.0772 -0.4942
17140TIP3    H272836   1.471   2.181   2.863  1.2650  1.7982  1.6002
17141TIP3   OH272837   5.453   6.442  15.715  0.1124  0.2743  0.1386
17141TIP3    H172838   5.480   6.405  15.632 -1.2129 -0.6531  0.0817
17141TIP3    H272839   5.534   6.462  15.761  0.8543  0.5534 -1.2571
17142TIP3   OH272840   5.793   2.299   5.105 -0.2654 -0.0147 -0.2512
17142TIP3    H172841   5.856   2.304   5.033 -0.5350  0.0242 -0.4859
17142TIP3    H272842   5.845   2.317   5.183 -0.0754  0.5001 -0.4927
17143TIP3   OH272843   5.731   2.803   4.549  0.0958  0.1351  0.2924
17143TIP3    H172844   5.702   2.744   4.479 -0.6295 -0.2850  0.9349
17143TIP3    H272845   5.710   2.757   4.630 -1.6379  1.7754  0.8413
17144TIP3   OH272846   6.400   3.880   3.048  0.0422  0.1480 -0.0204
17144TIP3    H172847   6.386   3.886   3.142  1.2580  1.0126  0.1230
17144TIP3    H272848   6.313   3.860   3.012 -0.6677  0.9724  1.1679
17145TIP3   OH272849   1.146   4.601  16.169 -0.0648 -0.2964  0.2005
17145TIP3    H172850   1.198   4.655  16.228  0.6822 -0.7798 -0.0072
17145TIP3    H272851   1.152   4.645  16.084  0.7785 -0.8502 -0.0341
17146TIP3   OH272852   6.717   4.922  11.927 -0.2461  0.0238  0.0985
17146TIP3    H172853   6.729   4.958  11.839 -1.0453  0.1968  0.0495
17146TIP3    H272854   6.625   4.939  11.947 -0.1849 -0.4204  0.7885
17147TIP3   OH272855   0.033   5.205  15.287  0.2095 -0.7821  0.1241
17147TIP3    H172856  -0.049   5.192  15.239  0.8495 -2.3655 -0.5975
17147TIP3    H272857   0.044   5.300  15.289 -0.1396 -0.6204 -2.4018
17148TIP3   OH272858   1.258   5.432  10.678  0.7091  0.4184 -0.2424
17148TIP3    H172859   1.342   5.396  10.707  1.1380  1.1478 -0.5323
17148TIP3    H272860   1.196   5.359  10.684  1.3793 -0.1423 -0.0749
17149TIP3   OH272861   5.841   5.914   0.015  0.6933  0.2236  0.2536
17149TIP3    H172862   5.781   5.870   0.075  0.1128  0.0159 -0.4649
17149TIP3    H272863   5.914   5.853   0.005  1.1328  0.5540  1.2715
17150TIP3   OH272864   6.070   1.661   5.563  0.5257 -0.5629  0.0855
17150TIP3    H172865   6.063   1.728   5.494 -2.4570  1.5065  2.1534
17150TIP3    H272866   6.016   1.589   5.531 -0.1839  0.0437 -0.1306
17151TIP3   OH272867   4.220   4.162  11.543  0.2022 -0.0642  0.2835
17151TIP3    H172868   4.182   4.079  11.573 -1.4292 -0.0108 -1.4880
17151TIP3    H272869   4.167   4.187  11.468  2.7927  0.8527 -1.3773
17152TIP3   OH272870   6.068   6.617   0.250 -0.0780 -0.0566  0.2707
17152TIP3    H172871   6.029   6.702   0.233 -0.2691  0.1695  1.6896
17152TIP3    H272872   6.162   6.632   0.242 -0.1673 -0.0884 -0.9893
17153TIP3   OH272873   0.525   2.371   2.986 -0.5768 -0.1493  0.9766
17153TIP3    H172874   0.618   2.369   2.963 -0.0719  2.3555  2.4010
17153TIP3    H272875   0.520   2.324   3.069 -0.3863  0.6100  1.4219
17154TIP3   OH272876   3.516   0.025  12.184 -0.1725 -0.0481 -0.2462
17154TIP3    H172877   3.440   0.053  12.234 -0.3143  0.5893 -0.8012
17154TIP3    H272878   3.563  -0.035  12.242 -1.0966 -0.4491  0.0942
17155TIP3   OH272879   6.167   0.553   3.987 -0.1634  0.2276  0.1658
17155TIP3    H172880   6.202   0.602   4.061 -1.2231  2.9997 -1.0138
17155TIP3    H272881   6.072   0.559   3.997 -0.4310  2.7920 -2.5335
17156TIP3   OH272882   6.244   6.255   3.795  0.5967  0.2958  0.2165
17156TIP3    H172883   6.213   6.242   3.705  1.9227 -0.5605 -0.1624
17156TIP3    H272884   6.264   6.166   3.825  4.0341  0.7956 -0.1472
17157TIP3   OH272885   2.985   1.789  16.542 -0.0693  0.5284  0.2293
17157TIP3    H172886   2.924   1.836  16.599 -0.8350  1.7750 -1.5331
17157TIP3    H272887   3.007   1.709  16.590 -0.2802  1.7523  2.4623
17158TIP3   OH272888   1.204   1.735   1.802 -0.3079  0.3179  0.3094
17158TIP3    H172889   1.228   1.828   1.809  0.5342  0.0547  1.0495
17158TIP3    H272890   1.254   1.692   1.872 -0.1173 -0.8044 -0.4981
17159TIP3   OH272891   4.873   4.850  13.002  0.1698 -0.3907 -0.0854
17159TIP3    H172892   4.966   4.864  12.984  0.0483  0.2673 -0.2064
17159TIP3    H272893   4.871   4.779  13.066  0.7598 -0.3347 -0.0066
17160TIP3   OH272894   4.403   5.750   5.574  0.1642 -0.6698  0.3902
17160TIP3    H172895   4.450   5.672   5.546  0.7956  0.4185 -1.8103
17160TIP3    H272896   4.316   5.742   5.535 -0.2383 -0.8960  1.3078
17161TIP3   OH272897   2.764   4.047  12.930  0.0331  0.0626 -0.1659
17161TIP3    H172898   2.798   4.136  12.931  0.2236  0.0061 -0.8564
17161TIP3    H272899   2.717   4.037  13.013  2.0457  0.0109  1.0253
17162TIP3   OH272900   5.103   1.088  13.252 -0.1912 -0.3597  0.4287
17162TIP3    H172901   5.076   1.166  13.301 -0.4078  0.6423 -1.2225
17162TIP3    H272902   5.156   1.037  13.315 -1.0680  0.4955  1.9076
17163TIP3   OH272903   2.309   2.751  16.198  0.0785 -0.2331 -0.7541
17163TIP3    H172904   2.241   2.752  16.130 -1.2720 -2.4805  0.4499
17163TIP3    H272905   2.311   2.661  16.229  2.6378  0.1001  0.2920
17164TIP3   OH272906   0.987   4.650  14.669  0.2498 -0.2638  0.3542
17164TIP3    H172907   1.070   4.695  14.681 -1.1668  3.0546 -1.0918
17164TIP3    H272908   0.992   4.615  14.579  0.0073  0.1662  0.1710
17165TIP3   OH272909   1.261   1.939  13.469  0.6423 -0.3271 -0.6687
17165TIP3    H172910   1.166   1.926  13.465  0.6392 -0.2904 -0.7126
17165TIP3    H272911   1.275   2.028  13.437  0.4437  0.6601  1.7541
17166TIP3   OH272912   5.540   6.712   5.905  0.6250  0.2295 -0.1355
17166TIP3    H172913   5.476   6.755   5.848  0.1393 -2.1819 -1.5391
17166TIP3    H272914   5.618   6.701   5.850  1.4776  1.0711  0.8422
17167TIP3   OH272915   3.712   1.851   2.016 -0.4292  0.2143  0.0912
17167TIP3    H172916   3.680   1.906   1.945  0.2759  0.0608 -0.3574
17167TIP3    H272917   3.633   1.820   2.060 -0.8472  1.3717  0.1933
17168TIP3   OH272918   1.513   1.953   5.653 -0.0660 -0.3010 -0.2671
17168TIP3    H172919   1.554   1.867   5.662 -0.2163 -0.3655 -0.1966
17168TIP3    H272920   1.583   2.010   5.622 -0.5157 -0.9915 -2.8440
17169TIP3   OH272921   0.812   2.900  10.678  0.5722  0.1708 -0.2767
17169TIP3    H172922   0.726   2.897  10.722  0.3399  3.1504 -0.3441
17169TIP3    H272923   0.823   2.812  10.643 -2.4326 -0.3643 -0.1919
17170TIP3   OH272924   1.991   1.496  15.608 -0.1235  0.0646 -0.8908
17170TIP3    H172925   2.036   1.552  15.672 -0.5729  0.0465 -0.5573
17170TIP3    H272926   1.927   1.448  15.659 -0.6237  0.1927 -1.3914
17171TIP3   OH272927   1.970   0.242  11.573 -0.5730 -0.3274  0.3401
17171TIP3    H172928   1.938   0.323  11.534 -1.3017  0.4490  2.3923
17171TIP3    H272929   2.064   0.241  11.554 -0.3087  1.6711  1.2953
17172TIP3   OH272930   5.663   0.583   3.502  0.2460  0.0681  0.3537
17172TIP3    H172931   5.634   0.654   3.558  0.5763  0.5515 -0.0795
17172TIP3    H272932   5.627   0.504   3.542 -1.3616  0.6065  0.0481
17173TIP3   OH272933   6.166   6.650   5.689 -0.7420  0.0084  0.0807
17173TIP3    H172934   6.108   6.635   5.763  3.3099 -0.8223  3.4876
17173TIP3    H272935   6.196   6.741   5.701  0.3195 -0.2946 -0.1986
17174TIP3   OH272936   2.498   1.396   5.066  0.0414 -0.5736  0.5439
17174TIP3    H172937   2.559   1.464   5.037 -0.8251 -0.2595 -0.6342
17174TIP3    H272938   2.552   1.318   5.075  0.4797 -0.5527 -1.4627
17175TIP3   OH272939   2.488   3.691   0.109 -0.3467 -0.2844 -0.6667
17175TIP3    H172940   2.575   3.655   0.127 -0.3224  0.0592 -0.0756
17175TIP3    H272941   2.435   3.665   0.184 -0.2123  1.2750  0.0069
17176TIP3   OH272942   2.874   5.652   5.166 -0.0921 -0.7147 -0.0819
17176TIP3    H172943   2.894   5.625   5.256  0.5301 -0.3398 -0.1003
17176TIP3    H272944   2.865   5.747   5.172 -1.7734 -0.8552 -0.1043
17177TIP3   OH272945   0.379   6.721  16.947  0.1537 -0.3748 -0.0499
17177TIP3    H172946   0.430   6.675  16.881  0.1756 -0.9626  0.3706
17177TIP3    H272947   0.386   6.814  16.923 -2.5995 -0.7246 -2.8981
17178TIP3   OH272948   0.678   2.241   3.587  0.2353  0.5018  0.4393
17178TIP3    H172949   0.657   2.151   3.612  0.0910  0.1749 -0.7742
17178TIP3    H272950   0.773   2.242   3.580  0.6118  1.4457  3.9642
17179TIP3   OH272951   0.644   4.844   0.626  1.0209  0.1213 -0.6686
17179TIP3    H172952   0.586   4.875   0.556 -0.6534 -1.8202 -0.2104
17179TIP3    H272953   0.586   4.824   0.699  2.5800  0.6855  0.8026
17180TIP3   OH272954   3.791   6.233   6.776  0.5610  0.8675  0.1420
17180TIP3    H172955   3.707   6.196   6.752  1.3289 -0.4903 -0.5621
17180TIP3    H272956   3.833   6.165   6.829  2.2318  0.4170 -1.6469
17181TIP3   OH272957   0.507   4.216  12.861 -0.0742 -0.1876 -0.1955
17181TIP3    H172958   0.575   4.280  12.883  2.1019 -2.0930 -1.0701
17181TIP3    H272959   0.467   4.193  12.945  0.7255  0.5607  0.4014
17182TIP3   OH272960   0.251   4.863   4.030  0.2340 -0.5470 -0.5170
17182TIP3    H172961   0.279   4.946   4.068 -2.5840  1.0917 -1.6684
17182TIP3    H272962   0.249   4.802   4.104  0.7529  0.8685  0.7155
17183TIP3   OH272963   6.027   5.922  13.928  0.2199  0.3823 -0.0569
17183TIP3    H172964   5.937   5.953  13.935 -0.0095 -0.5424  1.5493
17183TIP3    H272965   6.076   5.998  13.897 -1.1829  0.7246 -1.6233
17184TIP3   OH272966   1.478   0.141   6.050  0.2996 -0.0549 -0.1086
17184TIP3    H172967   1.470   0.185   5.966  1.4972 -0.9406 -0.7191
17184TIP3    H272968   1.389   0.116   6.073  0.1424 -1.7201 -2.2104
17185TIP3   OH272969   3.968   2.964  16.103 -0.2392  0.9984 -0.1728
17185TIP3    H172970   3.891   2.924  16.062  0.7820 -1.0813 -0.1607
17185TIP3    H272971   4.043   2.924  16.059  0.8513  1.6341  1.0377
17186TIP3   OH272972   5.163   3.087   1.886  0.5310  0.7470  0.0035
17186TIP3    H172973   5.154   3.044   1.970  0.2175 -0.3076 -0.5490
17186TIP3    H272974   5.075   3.090   1.850  0.2716  3.2252  0.6373
17187TIP3   OH272975   4.937   0.436  13.183 -0.2024  0.1508  0.2797
17187TIP3    H172976   4.875   0.489  13.134 -0.4584 -0.9663 -0.6508
17187TIP3    H272977   5.023   0.468  13.155 -0.3358  0.9776  0.7699
17188TIP3   OH272978   3.772   1.269  13.784  0.0582  0.3938  0.2520
17188TIP3    H172979   3.780   1.191  13.840  0.7634  2.3388  3.0759
17188TIP3    H272980   3.860   1.305  13.780 -0.3795  1.4347 -0.4272
17189TIP3   OH272981   0.895   4.434   5.621  0.0737  0.0898 -0.5959
17189TIP3    H172982   0.903   4.376   5.697  0.3896 -0.4926 -1.0675
17189TIP3    H272983   0.823   4.397   5.570 -1.3083  1.4674  0.2597
17190TIP3   OH272984   2.968   5.897   2.802 -0.0662 -0.1594  0.1944
17190TIP3    H172985   2.961   5.802   2.792 -1.7973 -0.0311 -0.0843
17190TIP3    H272986   2.951   5.913   2.895 -2.3076  0.0361 -0.2056
17191TIP3   OH272987   3.375   1.613  14.132  0.4799  0.0332 -0.1265
17191TIP3    H172988   3.336   1.552  14.070  0.8163 -0.1556 -0.1581
17191TIP3    H272989   3.451   1.566  14.166 -0.0473 -0.1041  0.8908
17192TIP3   OH272990   5.562   6.539   3.385 -0.5849  0.0676  0.0706
17192TIP3    H172991   5.629   6.485   3.344 -0.9468 -0.3195 -0.0192
17192TIP3    H272992   5.610   6.611   3.426 -0.1847  0.2688 -0.7297
17193TIP3   OH272993   3.435   0.284   5.328 -0.5981 -0.0899 -0.1646
17193TIP3    H172994   3.415   0.284   5.235  0.6669 -0.9687 -0.4696
17193TIP3    H272995   3.350   0.289   5.371 -1.3351 -1.3893 -1.3783
17194TIP3   OH272996   0.907   6.490   1.355  0.2669 -0.7730  0.5455
17194TIP3    H172997   0.977   6.434   1.385  1.1438 -1.2057 -2.0495
17194TIP3    H272998   0.880   6.453   1.271 -0.0656  1.8648 -0.6213
17195TIP3   OH272999   1.079   0.085   1.169  0.7603 -0.1304 -0.2993
17195TIP3    H173000   1.051   0.066   1.258  0.4836  1.9736  0.1105
17195TIP3    H273001   1.171   0.061   1.167  0.5213 -1.1547  0.2306
17196TIP3   OH273002   0.018   0.061  14.825  0.1468  0.2357 -0.9839
17196TIP3    H173003   0.095   0.117  14.836 -0.8835  1.6331 -0.5861
17196TIP3    H273004   0.051  -0.028  14.837  1.4380  0.8952  0.8001
17197TIP3   OH273005   3.908   3.879  15.691  0.2519  0.2146 -0.2227
17197TIP3    H173006   3.917   3.797  15.740 -0.6482  0.0072 -0.4049
17197TIP3    H273007   3.974   3.936  15.730  0.4380 -0.3767  0.3547
17198TIP3   OH273008   1.818   3.358  14.355  0.4302  0.2232  0.0892
17198TIP3    H173009   1.770   3.315  14.285 -0.6391  1.0421  0.2996
17198TIP3    H273010   1.861   3.433  14.313  1.2689 -0.3103 -0.0312
17199TIP3   OH273011   2.949   3.996  15.067  0.0285  0.2866 -0.0056
17199TIP3    H173012   3.020   3.950  15.021 -1.5249  0.3151 -2.6030
17199TIP3    H273013   2.980   4.087  15.073  0.7190  0.0573  0.0023
17200TIP3   OH273014   3.923   4.991  13.305  0.2221  0.6319 -0.4123
17200TIP3    H173015   3.835   4.955  13.295  0.9144 -1.1171 -0.7285
17200TIP3    H273016   3.956   4.999  13.215  0.7057  0.3808 -0.2619
17201TIP3   OH273017   3.900   5.443  16.622  0.0879 -0.5738  0.3581
17201TIP3    H173018   3.827   5.467  16.679 -0.3742  1.9415 -1.1163
17201TIP3    H273019   3.977   5.446  16.679 -0.1339  3.2953  0.7575
17202TIP3   OH273020   5.041   4.766   0.295 -0.4128 -0.0628 -0.3165
17202TIP3    H173021   5.023   4.681   0.255 -0.8518  0.3359 -1.0068
17202TIP3    H273022   5.074   4.819   0.223  0.0410  0.2924  0.1525
17203TIP3   OH273023   5.707   1.567   1.744 -0.1229  0.2334  0.2599
17203TIP3    H173024   5.756   1.485   1.748 -1.5805 -0.6950 -0.2992
17203TIP3    H273025   5.726   1.602   1.657  0.7572  0.6846  0.6169
17204TIP3   OH273026   0.503   0.761  11.420  0.0325 -0.1045 -0.0462
17204TIP3    H173027   0.481   0.684  11.473 -0.1279  1.4664  2.3164
17204TIP3    H273028   0.505   0.833  11.483 -3.4558  2.5622 -2.5919
17205TIP3   OH273029   0.314   1.199  12.259  0.3789 -0.1884 -0.2443
17205TIP3    H173030   0.333   1.200  12.352 -0.1688 -0.4537 -0.1281
17205TIP3    H273031   0.311   1.292  12.235  0.4483 -0.1187  0.0105
17206TIP3   OH273032   3.896   6.479  15.366 -0.1859 -0.4228 -0.1762
17206TIP3    H173033   3.946   6.474  15.284 -0.8059 -1.4452 -0.5159
17206TIP3    H273034   3.811   6.442  15.344 -0.6822  0.1658  0.7075
17207TIP3   OH273035   5.456   4.693  14.325  0.0836  0.3115 -0.0747
17207TIP3    H173036   5.459   4.664  14.234 -0.3995 -0.0449  0.0175
17207TIP3    H273037   5.372   4.738  14.333 -0.0754 -0.0437  0.3064
17208TIP3   OH273038   5.363   6.532  11.615  0.0557  0.2459 -0.0059
17208TIP3    H173039   5.291   6.489  11.662  1.5199  0.0622  2.2176
17208TIP3    H273040   5.341   6.521  11.523 -2.8338  0.3352  0.5710
17209TIP3   OH273041   1.064   4.888   6.070  0.1230 -0.2136  0.4399
17209TIP3    H173042   1.094   4.979   6.071 -2.4963  0.7211  1.2026
17209TIP3    H273043   1.080   4.857   6.159 -1.1291  0.3143  0.8734
17210TIP3   OH273044   4.651   5.485   0.197 -0.1457 -0.2728 -0.1660
17210TIP3    H173045   4.674   5.434   0.275  0.6825  0.4365  0.0667
17210TIP3    H273046   4.558   5.467   0.183  0.1196 -1.8342 -0.0899
17211TIP3   OH273047   5.934   4.714  12.165 -0.0058 -0.0736 -0.5848
17211TIP3    H173048   5.878   4.732  12.240 -2.4156  2.2532 -2.7283
17211TIP3    H273049   6.014   4.764  12.181 -2.0526  3.7596 -1.1629
17212TIP3   OH273050   0.580   3.576  17.157 -0.1337  0.3529  0.7593
17212TIP3    H173051   0.543   3.571  17.069 -0.3237  0.9665  0.8015
17212TIP3    H273052   0.637   3.499  17.164  0.0526  0.4204  0.0219
17213TIP3   OH273053   5.361   4.565   2.783 -0.3112 -0.6467  0.2108
17213TIP3    H173054   5.438   4.514   2.810 -1.3585 -1.8082  1.1145
17213TIP3    H273055   5.346   4.537   2.692 -0.7634 -1.8831  0.6353
17214TIP3   OH273056   5.254   3.540   4.335 -0.3988 -0.4221 -0.4449
17214TIP3    H173057   5.315   3.607   4.366  0.8350 -1.6138 -0.2117
17214TIP3    H273058   5.227   3.494   4.414 -3.1123  1.2433 -0.2946
17215TIP3   OH273059   6.355   3.759   2.373  0.1639 -0.2348 -0.1787
17215TIP3    H173060   6.285   3.788   2.314 -1.4547 -0.4545  1.5415
17215TIP3    H273061   6.354   3.663   2.364  0.1877 -0.2427 -0.0932
17216TIP3   OH273062   5.827   3.070   1.379  0.1405  0.1556 -0.4877
17216TIP3    H173063   5.743   3.031   1.401  0.4760  0.3897  1.4121
17216TIP3    H273064   5.821   3.160   1.411  0.6624  0.5889 -1.5293
17217TIP3   OH273065   3.825   1.498   0.353  0.3777  0.5586  0.2190
17217TIP3    H173066   3.919   1.480   0.360  0.3431  0.1039 -0.3914
17217TIP3    H273067   3.782   1.426   0.398  0.2928  0.1598 -0.4923
17218TIP3   OH273068   1.273   5.702  14.039 -0.1173  0.1336  0.3019
17218TIP3    H173069   1.351   5.753  14.018  1.3057 -1.8309  0.5235
17218TIP3    H273070   1.278   5.627  13.979 -2.7798  0.7911 -0.8668
17219TIP3   OH273071   3.362   6.075  16.797  0.1853 -0.1689 -0.1837
17219TIP3    H173072   3.440   6.094  16.744  0.7737 -2.6863 -0.3131
17219TIP3    H273073   3.290   6.081  16.735  0.8019 -2.4330 -1.1980
17220TIP3   OH273074   0.014   3.817  16.565  0.3479 -0.0063 -0.1757
17220TIP3    H173075  -0.011   3.764  16.490 -1.4368 -1.2873  1.2547
17220TIP3    H273076   0.079   3.764  16.612  1.2993  0.6986 -0.6586
17221TIP3   OH273077   2.200   4.145   0.111 -0.1358  0.4639 -0.1479
17221TIP3    H173078   2.293   4.125   0.116 -0.1624  0.6840  2.4194
17221TIP3    H273079   2.157   4.060   0.106  0.1558  0.3127 -0.1127
17222TIP3   OH273080   5.470   6.463  14.725  0.3574  0.4576  0.3488
17222TIP3    H173081   5.549   6.413  14.703  0.6827  0.8204  0.6802
17222TIP3    H273082   5.436   6.492  14.640  1.1190  1.1182  0.2581
17223TIP3   OH273083   0.530   0.929  13.135 -0.3248 -0.2007 -0.2138
17223TIP3    H173084   0.593   0.863  13.164 -0.2116  0.6086  1.4757
17223TIP3    H273085   0.485   0.888  13.060 -0.7036 -2.4598  1.1631
17224TIP3   OH273086   1.782   3.633   0.390  0.0172 -0.2058 -0.1062
17224TIP3    H173087   1.731   3.662   0.314  0.0912  1.1066  0.3369
17224TIP3    H273088   1.871   3.664   0.372  0.2525 -0.7747  0.0530
17225TIP3   OH273089   3.249   0.337   1.789 -0.4201 -0.6130  0.3889
17225TIP3    H173090   3.218   0.292   1.868 -0.7740  0.7045  1.0288
17225TIP3    H273091   3.184   0.315   1.722  0.1509 -2.1528  0.2971
17226TIP3   OH273092   1.023   0.078   2.590  0.0282 -0.3530 -0.1235
17226TIP3    H173093   1.074   0.116   2.662 -0.8922  1.7042 -0.4700
17226TIP3    H273094   1.088   0.054   2.525  0.6822  3.4314 -1.1257
17227TIP3   OH273095   4.422   0.611   3.577 -0.0324 -0.4173  0.2539
17227TIP3    H173096   4.379   0.663   3.509 -0.0878 -0.7272  0.0489
17227TIP3    H273097   4.399   0.520   3.556 -0.1139 -0.5095  0.7357
17228TIP3   OH273098   3.082   0.735   3.268 -0.0047 -0.7770 -0.2082
17228TIP3    H173099   3.089   0.801   3.199  0.7496 -0.1090  0.4888
17228TIP3    H273100   3.045   0.659   3.224  1.9366 -0.9302 -1.7527
17229TIP3   OH273101   0.690   0.845   2.284  0.2875  0.5548 -0.6842
17229TIP3    H173102   0.599   0.851   2.255  0.3956  0.3842 -1.0484
17229TIP3    H273103   0.695   0.762   2.330  0.7489 -0.3908 -2.3725
17230TIP3   OH273104   3.876   2.283  11.168 -0.5550 -0.3474 -0.0837
17230TIP3    H173105   3.824   2.363  11.162 -1.0794 -0.7363 -1.0073
17230TIP3    H273106   3.827   2.219  11.116 -0.6493 -1.5592  1.4231
17231TIP3   OH273107   5.825   5.761  11.845  0.3203  0.0357 -0.1840
17231TIP3    H173108   5.895   5.816  11.811  0.7123 -0.5726 -0.3800
17231TIP3    H273109   5.870   5.684  11.881 -0.1344  0.2885  0.9903
17232TIP3   OH273110   0.353   2.490  17.080 -0.0743 -0.0355 -0.1270
17232TIP3    H173111   0.258   2.477  17.073 -0.1887 -1.0278  2.2348
17232TIP3    H273112   0.363   2.580  17.111 -0.5362 -0.8388  2.6926
17233TIP3   OH273113   0.925   6.757  15.429  0.3718  0.4079  0.0545
17233TIP3    H173114   0.921   6.662  15.417  2.0231  0.3061  0.0114
17233TIP3    H273115   0.876   6.793  15.356  0.6563 -0.4102 -0.5586
17234TIP3   OH273116   6.302   0.555  10.514  0.4166 -0.3686  0.2483
17234TIP3    H173117   6.359   0.494  10.467 -0.2647 -0.5790 -0.3287
17234TIP3    H273118   6.267   0.505  10.587  1.9461  0.1331  1.3623
17235TIP3   OH273119   0.961   6.054  12.096 -0.0336  0.2481  0.2356
17235TIP3    H173120   0.968   6.134  12.044 -1.6789  0.3966  0.1991
17235TIP3    H273121   0.893   6.073  12.160  0.1391 -0.8416  0.7631
17236TIP3   OH273122   5.178   4.311   4.877  0.1862 -0.8545 -0.0718
17236TIP3    H173123   5.118   4.376   4.840 -0.8114 -1.3772  0.6061
17236TIP3    H273124   5.156   4.307   4.970  2.9845  0.8143  0.8083
17237TIP3   OH273125   3.194   6.267  11.535 -0.0338  0.0358  0.7828
17237TIP3    H173126   3.201   6.311  11.620 -1.0671  0.3968  0.6954
17237TIP3    H273127   3.113   6.300  11.497 -0.4673 -1.3862  0.3825
17238TIP3   OH273128   5.139   6.183  13.954  0.1468  0.4249  0.0229
17238TIP3    H173129   5.058   6.136  13.934  0.2124  0.7752 -1.1289
17238TIP3    H273130   5.156   6.164  14.046 -2.5009  2.1878  1.0009
17239TIP3   OH273131   1.178   0.786  13.193  0.3998  0.4348 -0.0208
17239TIP3    H173132   1.196   0.777  13.099  3.5221 -0.4336  0.5172
17239TIP3    H273133   1.177   0.881  13.208  2.0871  0.5906 -0.6514
17240TIP3   OH273134   3.551   6.224   3.749 -0.1624 -0.4066  0.1535
17240TIP3    H173135   3.564   6.130   3.735  2.0101 -0.6820  3.1167
17240TIP3    H273136   3.484   6.229   3.817 -1.8041  0.3578 -1.4365
17241TIP3   OH273137   0.352   5.973  15.619 -0.3133 -0.1052 -0.4086
17241TIP3    H173138   0.367   5.885  15.585 -1.6389 -0.6128  0.2598
17241TIP3    H273139   0.430   5.990  15.673  0.0294 -0.7950 -0.6661
17242TIP3   OH273140   6.252   3.901  10.668  0.5196 -0.0332 -0.2451
17242TIP3    H173141   6.188   3.972  10.659  0.1784 -0.6127 -3.8075
17242TIP3    H273142   6.318   3.920  10.602  1.8663 -1.6595  0.5642
17243TIP3   OH273143   2.912   0.541  13.010  0.2098 -0.3136 -0.0649
17243TIP3    H173144   2.966   0.609  12.969 -1.9007  0.6473 -1.4187
17243TIP3    H273145   2.958   0.459  12.990  0.9663  0.4273 -1.5180
17244TIP3   OH273146   4.472   0.973   1.401  0.2959  0.0932 -0.2730
17244TIP3    H173147   4.423   0.973   1.319  1.1488 -1.5817 -0.8280
17244TIP3    H273148   4.409   0.943   1.467 -0.3506  1.3117 -0.2988
17245TIP3   OH273149   1.791   0.878  14.529  0.0296  0.0178 -0.0336
17245TIP3    H173150   1.815   0.953  14.583  0.3688 -0.2444  0.1851
17245TIP3    H273151   1.697   0.868  14.541 -0.2213  1.0787 -0.9195
17246TIP3   OH273152   3.920   0.106  16.191  0.0851  0.0305  0.7801
17246TIP3    H173153   3.972   0.104  16.271  1.9330 -0.5096 -0.3595
17246TIP3    H273154   3.859   0.178  16.204  1.5752  1.1513  1.9625
17247TIP3   OH273155   2.922   2.310  13.794  0.0678  0.0874 -0.0135
17247TIP3    H173156   2.923   2.215  13.799 -0.4053  0.1063  0.6654
17247TIP3    H273157   2.959   2.339  13.878  0.7562  0.5061 -0.4524
17248TIP3   OH273158   0.304   5.294  13.528 -0.2310  0.1390  0.4402
17248TIP3    H173159   0.244   5.364  13.555  0.7954  1.4423 -0.5681
17248TIP3    H273160   0.386   5.314  13.573 -0.0428 -0.6595  0.4667
17249TIP3   OH273161   0.634   3.115   3.810  0.2725 -0.5980 -0.2103
17249TIP3    H173162   0.681   3.034   3.830  1.6600  0.5078  1.2591
17249TIP3    H273163   0.695   3.165   3.756  0.7001  0.6825  1.3774
17250TIP3   OH273164   4.664   6.364  11.124 -0.5847  0.2800 -0.0808
17250TIP3    H173165   4.584   6.408  11.152 -0.0901  1.4877 -0.4982
17250TIP3    H273166   4.674   6.389  11.032  0.4275  0.4164  0.0552
17251TIP3   OH273167   6.516   6.738   5.304  0.1187  0.5108  0.1609
17251TIP3    H173168   6.536   6.718   5.396 -0.2351 -1.7291 -0.1897
17251TIP3    H273169   6.486   6.655   5.268  1.7312  0.9607 -2.4056
17252TIP3   OH273170   1.729   4.132  11.324  0.0001 -0.4903 -0.0236
17252TIP3    H173171   1.678   4.147  11.403  0.8047 -0.2575  0.4694
17252TIP3    H273172   1.813   4.175  11.341 -0.3179  0.8592 -1.5881
17253TIP3   OH273173   2.416   4.550  11.172  0.4547  0.0735  0.1148
17253TIP3    H173174   2.378   4.479  11.121 -1.3027  1.7441 -1.0716
17253TIP3    H273175   2.369   4.546  11.256 -0.3962  0.4156 -0.3265
17254TIP3   OH273176   2.919   4.924  10.573 -0.3605  0.4776 -0.3449
17254TIP3    H173177   2.904   5.005  10.525  1.1832  2.2986  1.9980
17254TIP3    H273178   2.978   4.873  10.516  0.1214  1.8271 -1.0961
17255TIP3   OH273179   1.636   5.362   4.834 -0.1853  0.5090  0.6144
17255TIP3    H173180   1.665   5.408   4.755 -0.5042 -0.9411 -0.3871
17255TIP3    H273181   1.699   5.290   4.845 -0.3926  0.4431  1.4390
17256TIP3   OH273182   4.670   3.976  13.128 -0.2040  0.3037  0.0345
17256TIP3    H173183   4.644   3.886  13.149  1.3256 -0.1214  0.2653
17256TIP3    H273184   4.698   3.972  13.037  0.2043  0.4636  0.1523
17257TIP3   OH273185   5.750   0.174  11.047  0.6292  0.3281 -0.3438
17257TIP3    H173186   5.780   0.196  10.958  1.3278  0.8719  0.0158
17257TIP3    H273187   5.688   0.243  11.070  0.2926  0.0757 -0.4785
17258TIP3   OH273188   0.295   2.203  15.319 -0.8330 -0.9812 -0.3563
17258TIP3    H173189   0.358   2.186  15.389 -0.5495  0.5295 -0.2321
17258TIP3    H273190   0.275   2.296  15.325 -0.9219 -0.8374 -2.1964
17259TIP3   OH273191   5.779   5.716  15.638 -0.2383 -0.0096 -0.0449
17259TIP3    H173192   5.764   5.631  15.597 -0.0661  0.5380 -1.2956
17259TIP3    H273193   5.872   5.716  15.661 -0.6234 -0.8499  1.6566
17260TIP3   OH273194   4.995   1.667  13.059  0.7336  0.1756  0.2724
17260TIP3    H173195   4.943   1.629  13.129  0.5688  0.3388  0.2383
17260TIP3    H273196   4.997   1.761  13.079  1.1488  0.1511  0.3645
17261TIP3   OH273197   4.581   1.409  17.147  0.3841  0.1994 -0.0141
17261TIP3    H173198   4.545   1.321  17.138  0.4640  0.0605  0.9119
17261TIP3    H273199   4.598   1.438  17.057  1.0490 -1.0029 -0.2851
17262TIP3   OH273200   3.391   2.290   1.739 -0.4295 -0.6541 -0.2187
17262TIP3    H173201   3.440   2.221   1.783 -0.5562 -1.9187 -1.9950
17262TIP3    H273202   3.304   2.287   1.781 -0.1220 -0.8485  0.4261
17263TIP3   OH273203   2.119   5.142   1.234 -0.1365 -0.5828 -0.2389
17263TIP3    H173204   2.175   5.079   1.279  0.0567 -0.1328  0.1563
17263TIP3    H273205   2.049   5.160   1.297 -0.0449 -0.2031 -0.2447
17264TIP3   OH273206   6.224   0.217  16.528  0.0165 -0.2400 -0.1743
17264TIP3    H173207   6.289   0.156  16.561  0.7515  0.1662 -0.8289
17264TIP3    H273208   6.160   0.163  16.482 -1.0023 -0.8053  1.8270
17265TIP3   OH273209   0.062   1.838  13.641  0.1090 -0.3934  0.3170
17265TIP3    H173210  -0.025   1.872  13.662  0.5633  0.5141  0.7915
17265TIP3    H273211   0.055   1.812  13.549 -0.9047 -1.1600  0.5883
17266TIP3   OH273212   6.432   3.291  14.810  0.3339 -0.1661  0.1507
17266TIP3    H173213   6.471   3.376  14.829  0.7929  0.1985 -2.1687
17266TIP3    H273214   6.356   3.311  14.755 -0.3147 -1.1736  0.6469
17267TIP3   OH273215   3.240   6.233  15.856 -0.1261  0.0224  0.3984
17267TIP3    H173216   3.301   6.306  15.848 -0.7269  0.4705 -0.2405
17267TIP3    H273217   3.296   6.156  15.864  0.5224  0.4096 -0.2632
17268TIP3   OH273218   5.934   2.319   2.528 -0.0600  0.7225  0.5133
17268TIP3    H173219   5.971   2.235   2.500 -1.3344  0.1685  0.4242
17268TIP3    H273220   5.978   2.338   2.610  0.1001 -0.1365  0.6360
17269TIP3   OH273221   3.790   4.791   2.599 -0.5362 -0.1949  0.4415
17269TIP3    H173222   3.824   4.702   2.609 -0.4275 -0.3840 -1.2752
17269TIP3    H273223   3.705   4.780   2.557 -0.8810  0.4888  0.9344
17270TIP3   OH273224   1.595   0.525  15.950  0.7162 -0.4078 -0.1904
17270TIP3    H173225   1.544   0.605  15.961 -0.8409 -1.4082  0.0322
17270TIP3    H273226   1.577   0.498  15.860  0.5653 -0.9632  0.0067
17271TIP3   OH273227   4.151   6.146  13.349 -0.2192 -0.6602 -0.5503
17271TIP3    H173228   4.126   6.054  13.334  0.4214 -1.2716  1.7858
17271TIP3    H273229   4.246   6.145  13.341 -0.3292  0.2882 -2.6140
17272TIP3   OH273230   3.774   3.355  12.172  0.0960 -0.5443  0.0788
17272TIP3    H173231   3.841   3.395  12.117  1.5930 -1.2514  1.3049
17272TIP3    H273232   3.696   3.409  12.159  1.5242  1.6808  0.3285
17273TIP3   OH273233   1.723   4.876   1.523  0.2540  0.3186  0.2501
17273TIP3    H173234   1.679   4.934   1.585  0.1472  1.0963 -0.5394
17273TIP3    H273235   1.688   4.789   1.544  0.1447  0.5788  1.2052
17274TIP3   OH273236   0.305   5.129   1.456 -0.0878  0.1935 -0.2371
17274TIP3    H173237   0.337   5.075   1.384 -1.2246  1.5238 -1.8128
17274TIP3    H273238   0.366   5.203   1.459  0.6373 -0.4340  0.9669
17275TIP3   OH273239   5.260   2.774  16.056  0.3720  0.0273 -0.3187
17275TIP3    H173240   5.300   2.691  16.082  0.2918  0.2549  0.5565
17275TIP3    H273241   5.307   2.841  16.106 -0.1043  0.4347 -0.4092
17276TIP3   OH273242   3.581   6.290  15.715  0.3434  0.5318 -0.0065
17276TIP3    H173243   3.595   6.305  15.809  0.0100  0.1318  0.1074
17276TIP3    H273244   3.645   6.346  15.673  0.3380  0.8952  0.4574
17277TIP3   OH273245   6.468   1.683  17.133 -0.2576 -0.5049  0.5781
17277TIP3    H173246   6.468   1.760  17.075 -1.5264 -2.5512 -2.3649
17277TIP3    H273247   6.552   1.642  17.118  0.8742  0.7373  2.9660
17278TIP3   OH273248   2.194   2.936   5.166 -0.1772  0.6553  0.4523
17278TIP3    H173249   2.248   2.883   5.225 -0.2936 -0.6921 -0.6118
17278TIP3    H273250   2.133   2.874   5.126 -0.0177  1.4983 -1.1904
17279TIP3   OH273251   4.546   2.280   2.210 -0.0252 -0.1041 -0.7004
17279TIP3    H173252   4.631   2.238   2.195  0.6085 -0.0667  2.1793
17279TIP3    H273253   4.567   2.371   2.230 -0.6540 -0.2091  0.5596
17280TIP3   OH273254   1.601   4.619  12.601 -0.1686  0.6972  0.1564
17280TIP3    H173255   1.629   4.689  12.542 -1.2651  0.8982 -0.1327
17280TIP3    H273256   1.611   4.539  12.549 -0.6997  0.8289 -0.1522
17281TIP3   OH273257   4.746   2.827   5.334  0.2657  0.4952 -0.2854
17281TIP3    H173258   4.698   2.771   5.395  0.1003  1.2221  0.2683
17281TIP3    H273259   4.678   2.866   5.278  0.2538  1.0230  0.0814
17282TIP3   OH273260   0.380   1.285  12.712 -0.3537  0.1183 -0.3892
17282TIP3    H173261   0.319   1.217  12.684 -0.8752  0.1631  0.5690
17282TIP3    H273262   0.328   1.339  12.772  1.3440 -1.5022  2.8180
17283TIP3   OH273263   1.060   5.988  15.057  0.2226  0.2241  0.1038
17283TIP3    H173264   0.981   5.972  15.006 -0.3267  0.5282  0.8443
17283TIP3    H273265   1.070   5.910  15.111  0.6214  0.0434 -0.2252
17284TIP3   OH273266   1.355   1.932  11.742  0.2240  0.0783  0.0109
17284TIP3    H173267   1.412   1.873  11.790  1.2506 -0.1866 -1.4765
17284TIP3    H273268   1.285   1.876  11.708  1.5004 -0.4313 -1.8710
17285TIP3   OH273269   5.554   2.447  16.704  0.4352 -0.1188 -0.0900
17285TIP3    H173270   5.621   2.444  16.636 -0.5090 -2.3530 -1.0294
17285TIP3    H273271   5.482   2.497  16.665  1.0571  1.2486  0.4680
17286TIP3   OH273272   3.311   4.975   6.904  0.4148 -0.4459 -0.3193
17286TIP3    H173273   3.367   4.947   6.976  2.2127 -2.1258 -2.2251
17286TIP3    H273274   3.301   5.069   6.917  2.1550 -0.3967  1.1306
17287TIP3   OH273275   1.640   4.583   2.512 -0.1216  0.1690 -0.6386
17287TIP3    H173276   1.574   4.562   2.446 -0.4759  0.4224 -0.3657
17287TIP3    H273277   1.720   4.540   2.480 -0.1370  0.7831 -1.5441
17288TIP3   OH273278   2.284   6.181   1.757 -0.1698  0.3612  0.2528
17288TIP3    H173279   2.281   6.270   1.793  0.4162  0.5500 -0.1471
17288TIP3    H273280   2.218   6.133   1.807 -0.2136  0.9191  0.7485
17289TIP3   OH273281   3.249   3.866   0.504 -0.3677  0.0250 -0.1032
17289TIP3    H173282   3.310   3.793   0.490  0.2652  0.3184  0.9645
17289TIP3    H273283   3.270   3.896   0.593 -0.7970  1.3380 -0.4409
17290TIP3   OH273284   0.411   3.721  16.221  0.3550 -0.3705  0.0934
17290TIP3    H173285   0.470   3.729  16.296  1.2603  2.3111 -0.7921
17290TIP3    H273286   0.468   3.730  16.144 -0.7800 -1.2246 -0.8870
17291TIP3   OH273287   2.096   5.754  16.212  0.0259  0.3340  0.2556
17291TIP3    H173288   2.174   5.737  16.160 -0.1692 -0.9528  0.3577
17291TIP3    H273289   2.066   5.840  16.182  1.9111  1.2143  0.7823
17292TIP3   OH273290   0.243   5.200   5.302  0.2097 -0.0301 -0.2059
17292TIP3    H173291   0.193   5.119   5.296 -1.0729  0.7745 -0.8218
17292TIP3    H273292   0.302   5.198   5.226 -0.2547 -0.0998 -0.5657
17293TIP3   OH273293   0.455   4.201  15.186  0.0546 -0.4678  0.2173
17293TIP3    H173294   0.546   4.186  15.209 -0.3578 -1.7184  1.1849
17293TIP3    H273295   0.453   4.198  15.091  0.9882 -0.6683  0.1959
17294TIP3   OH273296   2.505   1.673  15.156 -0.5191  1.0951  0.4372
17294TIP3    H173297   2.482   1.590  15.198  1.3491  0.2167 -0.2090
17294TIP3    H273298   2.470   1.739  15.216 -2.0996 -0.1100  0.9367
17295TIP3   OH273299   3.711   1.891  11.062 -0.5669 -0.5850  0.2663
17295TIP3    H173300   3.616   1.896  11.070 -0.4851  1.7935  0.4311
17295TIP3    H273301   3.742   1.887  11.153 -0.4762 -0.2729  0.2485
17296TIP3   OH273302   2.414   0.600  10.548  0.2807 -0.3249  0.3154
17296TIP3    H173303   2.440   0.508  10.548 -1.0318 -0.7174  0.7261
17296TIP3    H273304   2.496   0.649  10.541  0.9005 -1.5401 -2.2636
17297TIP3   OH273305   2.823   5.022  16.295  0.4534  0.3541  0.0893
17297TIP3    H173306   2.760   5.071  16.243  0.4318  1.1633  0.8572
17297TIP3    H273307   2.791   4.932  16.295 -0.9831  0.8419  0.8809
17298TIP3   OH273308   2.004   3.614  15.578  0.4158  0.5442  0.0773
17298TIP3    H173309   2.077   3.673  15.558  2.0797 -1.7382 -1.0766
17298TIP3    H273310   1.961   3.600  15.493  0.9122 -0.9318  0.0489
17299TIP3   OH273311   5.133   6.002   0.717 -0.1041 -0.5000 -0.6771
17299TIP3    H173312   5.219   6.031   0.747  0.0487 -1.2657 -0.3472
17299TIP3    H273313   5.114   6.058   0.642  0.0418  0.6400  0.1111
17300TIP3   OH273314   6.775   2.446   5.059 -0.0636 -0.0659 -0.4930
17300TIP3    H173315   6.755   2.452   4.966 -0.3686 -0.0234 -0.4264
17300TIP3    H273316   6.804   2.534   5.083 -0.7808  0.1459 -0.3707
17301TIP3   OH273317   3.005   0.489  16.413  0.6299 -0.5433  0.3905
17301TIP3    H173318   3.091   0.532  16.416 -1.1012  3.5279 -1.4016
17301TIP3    H273319   2.951   0.539  16.474 -0.8906 -2.0464  0.3471
17302TIP3   OH273320   3.447   1.977   3.251 -0.4799  0.3662 -0.1482
17302TIP3    H173321   3.359   2.015   3.251 -0.5591  0.1859 -0.1541
17302TIP3    H273322   3.470   1.971   3.344  0.0522  1.6009 -0.1770
17303TIP3   OH273323   3.550   6.090   6.316  0.2198  1.0225 -0.0167
17303TIP3    H173324   3.578   6.004   6.347 -0.5842  0.7968  0.0998
17303TIP3    H273325   3.564   6.087   6.221 -0.6067  0.4390 -0.1376
17304TIP3   OH273326   3.511   0.070  11.479 -0.5307  0.8569 -0.0076
17304TIP3    H173327   3.445   0.116  11.531 -1.0000  0.6800 -0.4382
17304TIP3    H273328   3.484   0.084  11.388  1.0101  2.2817 -0.3021
17305TIP3   OH273329   0.032   6.529  17.096  1.1765 -0.5551 -0.0978
17305TIP3    H173330   0.087   6.605  17.118 -0.4142 -0.0346  2.5376
17305TIP3    H273331   0.002   6.496  17.181 -0.7434 -2.1882 -1.3258
17306TIP3   OH273332   5.998   5.850  13.302  0.6996  0.4778  0.5268
17306TIP3    H173333   6.044   5.819  13.224  0.4302 -0.0896  0.5841
17306TIP3    H273334   6.049   5.814  13.375 -0.4776 -1.1944  0.5895
17307TIP3   OH273335   0.771   5.506   1.415 -0.5554 -0.0582 -0.0608
17307TIP3    H173336   0.697   5.456   1.380 -1.0742  0.3360  0.4562
17307TIP3    H273337   0.799   5.456   1.492 -2.4410  1.4818  1.7490
17308TIP3   OH273338   0.096   3.923   3.608 -0.4718 -0.5238  0.1304
17308TIP3    H173339   0.007   3.958   3.615  0.6199  2.6627 -0.2337
17308TIP3    H273340   0.145   3.965   3.679  0.9978 -1.3885 -0.3089
17309TIP3   OH273341   4.208   5.913   2.341  0.0970  0.2092  0.0023
17309TIP3    H173342   4.113   5.906   2.332 -0.0309  1.9883 -0.4240
17309TIP3    H273343   4.226   6.006   2.326  2.2246 -0.5597 -2.8942
17310TIP3   OH273344   3.938   4.613   4.948 -0.0285 -0.4240  0.3534
17310TIP3    H173345   3.844   4.630   4.938  0.0319 -0.2054  0.1285
17310TIP3    H273346   3.971   4.692   4.992  0.8176  1.6796 -3.5753
17311TIP3   OH273347   2.480   5.837  15.539 -0.3183  0.3738 -0.0411
17311TIP3    H173348   2.524   5.842  15.624  0.6601  0.1497 -0.5197
17311TIP3    H273349   2.432   5.754  15.541 -1.4470  1.0195  0.8109
17312TIP3   OH273350   5.440   2.107   5.066  0.0220 -0.1479 -0.3253
17312TIP3    H173351   5.466   2.191   5.029  1.3433 -0.1992  0.3998
17312TIP3    H273352   5.523   2.058   5.073 -0.6948 -1.4459 -0.5792
17313TIP3   OH273353   2.982   4.902  15.874 -0.2908  0.3628 -0.6030
17313TIP3    H173354   3.038   4.928  15.947  0.9897 -0.9184 -1.0736
17313TIP3    H273355   2.965   4.983  15.825  0.0576  0.9777  0.2749
17314TIP3   OH273356   5.295   0.360  14.421  0.6115  0.2430  0.1705
17314TIP3    H173357   5.227   0.380  14.357  0.3740 -0.5509  0.1570
17314TIP3    H273358   5.343   0.441  14.433 -0.2123  0.7587  0.0194
17315TIP3   OH273359   5.195   3.363  15.598  0.3997  0.0738 -0.5675
17315TIP3    H173360   5.151   3.313  15.667  2.2938  0.3341  0.9007
17315TIP3    H273361   5.205   3.300  15.526  1.3067 -1.2338  0.6485
17316TIP3   OH273362   0.195   5.035  14.063 -0.9237  0.3342  0.4945
17316TIP3    H173363   0.233   4.988  13.989  0.8463  0.5238  1.2270
17316TIP3    H273364   0.184   5.125  14.031 -0.6482  0.2963  0.2836
17317TIP3   OH273365   0.370   2.668  15.997  0.2474 -0.2750 -0.1806
17317TIP3    H173366   0.348   2.611  15.923 -2.3204 -1.2129  1.1883
17317TIP3    H273367   0.362   2.757  15.961 -0.8914 -0.7125 -1.0864
17318TIP3   OH273368   6.045   2.032   3.014  0.1435 -0.3766 -0.2450
17318TIP3    H173369   6.102   1.985   3.075  0.6352  0.5798  0.0391
17318TIP3    H273370   6.051   1.981   2.933  0.7956 -0.7163  0.0066
17319TIP3   OH273371   6.520   4.796  11.724  0.4363  0.4668  0.0263
17319TIP3    H173372   6.499   4.888  11.737 -0.5356  0.0865  1.4875
17319TIP3    H273373   6.474   4.771  11.644 -3.2671  0.1921  1.9957
17320TIP3   OH273374   4.988   2.545  16.764  0.2581  0.7269 -0.6874
17320TIP3    H173375   4.900   2.507  16.776  0.1595  1.3262  0.6900
17320TIP3    H273376   5.007   2.532  16.671  0.0997 -2.4107 -0.4057
17321TIP3   OH273377   1.238   4.258   3.339  0.2057  0.4554 -0.0009
17321TIP3    H173378   1.308   4.322   3.335  0.6138  0.0869  0.9984
17321TIP3    H273379   1.158   4.308   3.322  0.4910  1.2741  1.0049
17322TIP3   OH273380   5.051   5.673   2.549 -0.3240 -0.3348 -0.2500
17322TIP3    H173381   5.130   5.620   2.543 -1.4428 -2.0352 -0.7218
17322TIP3    H273382   4.998   5.630   2.616 -0.9458  0.6488 -0.0792
17323TIP3   OH273383   6.685   5.509  11.629 -0.1494  0.0034  0.0051
17323TIP3    H173384   6.779   5.521  11.641  0.0512 -0.9256 -0.6133
17323TIP3    H273385   6.661   5.441  11.692 -0.1270 -0.8356 -0.8815
17324TIP3   OH273386   2.111   6.684   0.316 -0.0673 -0.1056  0.6629
17324TIP3    H173387   2.091   6.655   0.227  0.6314 -0.1510  0.5103
17324TIP3    H273388   2.044   6.644   0.371 -2.0755  1.9646 -0.1237
17325TIP3   OH273389   0.438   0.031  11.549  0.1105 -0.3078 -0.1321
17325TIP3    H173390   0.348   0.013  11.573 -0.0600 -0.2729 -0.7208
17325TIP3    H273391   0.489   0.015  11.629 -0.4616  0.0668  0.3057
17326TIP3   OH273392   1.761   1.366   4.934  0.5904 -0.3532  0.3697
17326TIP3    H173393   1.687   1.415   4.895  0.3540  1.1877  2.5369
17326TIP3    H273394   1.724   1.281   4.957 -0.2001 -0.0088  0.4047
17327TIP3   OH273395   6.387   5.727   4.694  0.4413 -0.5182  0.2784
17327TIP3    H173396   6.453   5.791   4.723 -0.4108 -0.0511  1.2226
17327TIP3    H273397   6.386   5.661   4.763  1.8879 -2.0477 -1.0643
17328TIP3   OH273398   1.844   6.385  15.625 -0.7867  0.6713 -0.1669
17328TIP3    H173399   1.908   6.352  15.562  0.0440  1.7257  0.0933
17328TIP3    H273400   1.791   6.308  15.648 -0.0236 -0.0877 -0.8648
17329TIP3   OH273401   2.534   3.526   4.870 -0.0357 -0.1827  0.6555
17329TIP3    H173402   2.480   3.595   4.907 -0.1326 -0.4276  0.9739
17329TIP3    H273403   2.555   3.557   4.782  1.2057  0.9733  1.3230
17330TIP3   OH273404   5.056   0.169  13.210 -0.5173  0.0619  0.0465
17330TIP3    H173405   4.981   0.113  13.187 -0.7243 -0.7087  2.3719
17330TIP3    H273406   5.022   0.258  13.205 -1.4034 -0.2471  0.4349
17331TIP3   OH273407   0.160   3.182   2.627 -0.5417  0.1727 -0.3427
17331TIP3    H173408   0.082   3.168   2.574  0.0609  1.3437 -1.6145
17331TIP3    H273409   0.157   3.114   2.694 -1.5138 -1.1683 -1.6945
17332TIP3   OH273410   1.033   4.298  16.176  0.2446 -0.6625 -0.4280
17332TIP3    H173411   1.034   4.393  16.189  0.2151 -0.5561 -1.1516
17332TIP3    H273412   0.970   4.266  16.241 -0.1884 -0.1247 -0.5680
17333TIP3   OH273413   0.589   1.173   3.868  0.1289  0.0853 -0.3701
17333TIP3    H173414   0.571   1.262   3.900 -1.9118  0.0933 -1.4147
17333TIP3    H273415   0.521   1.119   3.907  1.0917 -0.9635 -0.1117
17334TIP3   OH273416   0.859   1.653   2.450  0.6962  0.2968 -0.3969
17334TIP3    H173417   0.925   1.584   2.457  1.1199  0.6752 -0.5400
17334TIP3    H273418   0.908   1.729   2.417  0.4476  0.9497  0.6626
17335TIP3   OH273419   1.066   2.171   2.486  0.0708  0.6642 -0.4344
17335TIP3    H173420   1.156   2.138   2.485 -0.1554 -0.0027 -0.0502
17335TIP3    H273421   1.074   2.265   2.474  1.0093  0.9749  1.9874
17336TIP3   OH273422   0.606   2.577  14.718 -0.3337  0.2058 -0.3708
17336TIP3    H173423   0.701   2.590  14.719 -0.4262  1.1804  2.0844
17336TIP3    H273424   0.571   2.660  14.687 -0.4392  0.9425  1.6042
17337TIP3   OH273425   0.647   0.670  12.569 -0.4074 -0.6103  0.0841
17337TIP3    H173426   0.724   0.614  12.567 -0.1016 -0.1835 -0.1922
17337TIP3    H273427   0.586   0.631  12.507  0.0808 -0.2469 -0.6354
17338TIP3   OH273428   3.582   1.007   0.034 -0.2273 -0.4270 -0.0222
17338TIP3    H173429   3.522   1.080   0.023  1.5629  1.0108 -0.9140
17338TIP3    H273430   3.538   0.933  -0.008 -1.1820  0.6796 -1.0466
17339TIP3   OH273431   3.303   4.753   3.764 -0.5930  0.1837 -0.1238
17339TIP3    H173432   3.305   4.657   3.765 -0.5640  0.1870  0.6222
17339TIP3    H273433   3.211   4.775   3.778 -1.1063  0.2688 -2.9517
17340TIP3   OH273434   1.070   1.743  13.296 -0.2961  0.0753  0.0030
17340TIP3    H173435   1.029   1.781  13.373  1.0232  0.1380  0.6915
17340TIP3    H273436   1.112   1.816  13.251 -0.4923 -0.0674 -0.4262
17341TIP3   OH273437   3.279   0.439  14.539  0.0752 -0.1348 -0.3052
17341TIP3    H173438   3.263   0.470  14.628  0.1452  0.2040 -0.4090
17341TIP3    H273439   3.246   0.349  14.539 -1.0732  0.2635 -0.2744
17342TIP3   OH273440   5.946   6.640   2.319  0.9695 -0.0824  0.2438
17342TIP3    H173441   5.851   6.634   2.306  1.1351  0.8981 -1.7797
17342TIP3    H273442   5.982   6.566   2.271  1.2079 -1.1228  1.9570
17343TIP3   OH273443   3.563   1.679   1.697 -0.1031 -0.1113  0.3575
17343TIP3    H173444   3.578   1.694   1.604  1.9223  0.0015  0.6434
17343TIP3    H273445   3.582   1.763   1.738  1.2131 -0.7049  1.0375
17344TIP3   OH273446   0.106   2.982  15.293 -0.2528 -0.2786 -0.6159
17344TIP3    H173447   0.017   2.996  15.259 -0.6891 -0.5321  0.3711
17344TIP3    H273448   0.107   2.890  15.319 -0.0527 -0.0139  0.3415
17345TIP3   OH273449   5.885   0.959   0.424  0.2772 -0.3990 -0.2317
17345TIP3    H173450   5.790   0.970   0.429  0.4408  1.0416  0.1030
17345TIP3    H273451   5.919   1.048   0.414  1.5725 -0.9366 -0.8053
17346TIP3   OH273452   0.320   6.349  13.022  0.0723 -0.1964 -0.3185
17346TIP3    H173453   0.279   6.292  12.956 -0.5923  0.9556 -0.9341
17346TIP3    H273454   0.247   6.389  13.068  0.5374 -0.2544  0.4913
17347TIP3   OH273455   2.519   2.124   4.115 -0.5236  0.2561 -0.6489
17347TIP3    H173456   2.580   2.065   4.071 -0.9658 -0.3027 -0.5146
17347TIP3    H273457   2.576   2.186   4.161 -0.0559  0.6760 -1.7512
17348TIP3   OH273458   3.213   0.315  11.362  0.4477  0.1123  0.0728
17348TIP3    H173459   3.128   0.355  11.344  0.5135 -0.1368 -0.8626
17348TIP3    H273460   3.250   0.298  11.275  0.4007 -1.9878  0.4082
17349TIP3   OH273461   6.552   0.943  15.786 -0.3462 -0.0181 -0.0719
17349TIP3    H173462   6.584   0.853  15.794 -0.0750  0.0045 -0.8144
17349TIP3    H273463   6.474   0.946  15.841  1.6242  0.3153  2.9461
17350TIP3   OH273464   1.264   2.406   5.936 -0.0766  0.2166 -0.4580
17350TIP3    H173465   1.310   2.440   5.859 -1.9018 -0.5526 -1.9653
17350TIP3    H273466   1.208   2.337   5.902 -1.9365  0.7395  1.3517
17351TIP3   OH273467   4.356   2.054  16.692  0.3828 -0.0981 -0.0932
17351TIP3    H173468   4.352   2.073  16.786  0.7460  1.3587 -0.3568
17351TIP3    H273469   4.436   2.003  16.681  0.9725  0.7348  0.2379
17352TIP3   OH273470   1.516   0.856   3.681 -0.1214  0.1634  0.2757
17352TIP3    H173471   1.442   0.907   3.713 -0.3339 -1.0049  1.7447
17352TIP3    H273472   1.591   0.891   3.729 -0.4687 -1.7182  2.3139
17353TIP3   OH273473   2.755   5.820   5.626 -0.0336 -0.4684  0.0452
17353TIP3    H173474   2.704   5.796   5.549  0.4459  1.7022 -1.0423
17353TIP3    H273475   2.830   5.761   5.625 -1.6105 -2.6006  0.7493
17354TIP3   OH273476   2.163   5.395  15.357  0.3023 -0.2750  0.4414
17354TIP3    H173477   2.200   5.381  15.269  0.2242  0.7055  0.2446
17354TIP3    H273478   2.146   5.489  15.361  3.6961  0.4194  2.8197
17355TIP3   OH273479   4.199   4.293   1.577 -0.2042  0.2816 -0.2741
17355TIP3    H173480   4.243   4.223   1.625 -0.0139  0.2606 -0.4773
17355TIP3    H273481   4.177   4.358   1.645 -1.9430 -0.7403  0.1938
17356TIP3   OH273482   2.454   2.843   0.304 -0.2821  0.2914  0.3320
17356TIP3    H173483   2.455   2.926   0.351 -1.2531 -1.4885  3.7978
17356TIP3    H273484   2.361   2.821   0.296 -0.0169 -1.0922  0.7528
17357TIP3   OH273485   1.515   6.637   1.719  0.0475  0.0904 -0.0610
17357TIP3    H173486   1.433   6.649   1.671 -0.4029 -0.2094  0.6019
17357TIP3    H273487   1.492   6.656   1.810  1.1256  1.6527 -0.0901
17358TIP3   OH273488   2.512   2.478   2.307 -0.4272 -0.5332 -0.0733
17358TIP3    H173489   2.503   2.528   2.226 -0.7992 -1.1932 -0.4509
17358TIP3    H273490   2.541   2.391   2.278  0.7762 -0.3778  0.6162
17359TIP3   OH273491   6.161   3.769   3.478 -0.1378  0.0971  0.1947
17359TIP3    H173492   6.100   3.829   3.522  0.2441 -0.5911  1.6906
17359TIP3    H273493   6.112   3.687   3.471 -0.1915  0.1931 -0.6970
17360TIP3   OH273494   0.866   0.013   2.014 -0.0375  0.2257 -0.5149
17360TIP3    H173495   0.848   0.084   1.953 -1.6913 -1.0364 -1.5960
17360TIP3    H273496   0.910  -0.054   1.962  1.1246  0.2417  0.3896
17361TIP3   OH273497   5.045   5.457  16.101  0.2542  0.6376  0.3199
17361TIP3    H173498   5.117   5.434  16.160 -0.5767 -0.9736  0.7676
17361TIP3    H273499   4.981   5.500  16.158 -1.0609 -1.9519  0.9431
17362TIP3   OH273500   2.983   4.387   3.578 -0.3256  0.1812 -0.6949
17362TIP3    H173501   2.982   4.482   3.585  2.2547  0.1962  0.2240
17362TIP3    H273502   3.008   4.356   3.665  0.6552 -1.2333 -1.4425
17363TIP3   OH273503   1.275   6.654   4.325  0.4144 -0.0090  0.2673
17363TIP3    H173504   1.281   6.712   4.250 -1.2987  1.8271  1.4376
17363TIP3    H273505   1.191   6.610   4.315 -0.2029  0.8325  1.4346
17364TIP3   OH273506   0.813   3.971   3.909  0.0456 -0.4174  0.0091
17364TIP3    H173507   0.907   3.988   3.900 -0.1968  0.2688 -1.4967
17364TIP3    H273508   0.780   4.046   3.957 -0.1509  0.8332 -1.9546
17365TIP3   OH273509   0.860   0.494  12.524  0.5360 -0.3728  0.7224
17365TIP3    H173510   0.941   0.515  12.571  1.7541  0.0599 -1.4478
17365TIP3    H273511   0.876   0.522  12.434 -2.2203  0.1283  0.2984
17366TIP3   OH273512   0.765   0.436  13.452 -0.1855  0.0962  0.1201
17366TIP3    H173513   0.850   0.393  13.454 -0.9842 -1.5446 -0.1117
17366TIP3    H273514   0.740   0.437  13.360 -0.0312  1.4234  0.0695
17367TIP3   OH273515   6.775   2.825  14.634  0.5159  0.1450  0.5336
17367TIP3    H173516   6.723   2.747  14.656  0.5363  0.5654  2.2403
17367TIP3    H273517   6.842   2.794  14.574 -0.3876 -0.8444  0.0034
17368TIP3   OH273518   3.660   5.490   2.339 -0.4611 -0.7408 -0.5765
17368TIP3    H173519   3.671   5.579   2.371 -0.6945 -0.2981 -1.6777
17368TIP3    H273520   3.607   5.499   2.260 -1.6279 -2.0029  0.0290
17369TIP3   OH273521   2.140   0.600  13.344 -0.0386  0.0698  0.2203
17369TIP3    H173522   2.192   0.533  13.299 -0.0060 -0.3560  0.8797
17369TIP3    H273523   2.166   0.593  13.436 -1.1719 -0.0632  0.5455
17370TIP3   OH273524   1.755   0.044  17.012  0.5002  0.0597  0.0795
17370TIP3    H173525   1.745   0.036  16.917  2.6841 -0.5710 -0.1421
17370TIP3    H273526   1.677   0.000  17.047 -0.3737  0.3545 -1.3997
17371TIP3   OH273527   2.021   1.623   1.125  0.2213  0.2168 -0.0176
17371TIP3    H173528   2.003   1.622   1.031  1.2211  0.0336 -0.2157
17371TIP3    H273529   1.938   1.649   1.165 -0.0994  0.7132 -0.9762
17372TIP3   OH273530   1.706   5.034  16.690  0.2330 -0.7101  0.1675
17372TIP3    H173531   1.755   4.971  16.638  1.9072  1.3576 -0.9390
17372TIP3    H273532   1.773   5.093  16.725 -1.3117  1.1446  0.1647
17373TIP3   OH273533   4.258   5.013   4.354  0.2183 -0.5627 -0.5975
17373TIP3    H173534   4.214   4.978   4.276 -0.4390 -1.5003  0.1848
17373TIP3    H273535   4.323   4.946   4.376  0.0615 -0.5324 -0.0490
17374TIP3   OH273536   2.189   6.112  14.208  0.4615  0.2934  0.2367
17374TIP3    H173537   2.204   6.048  14.278 -0.0498 -0.8113 -0.6468
17374TIP3    H273538   2.114   6.163  14.238 -0.5417 -0.9860 -0.0431
17375TIP3   OH273539   2.874   3.729   3.994  0.0143  0.4407 -0.1457
17375TIP3    H173540   2.912   3.700   4.077  0.8779 -0.9319 -0.9866
17375TIP3    H273541   2.826   3.809   4.017 -0.4008 -0.3121  1.8046
17376TIP3   OH273542   2.916   5.603   5.735 -0.1606 -0.2457  0.0226
17376TIP3    H173543   2.889   5.520   5.696 -1.1393 -2.2504  4.3639
17376TIP3    H273544   3.011   5.595   5.745  0.0099  0.0263 -1.1615
17377TIP3   OH273545   5.841   0.291   4.249 -0.0115  0.1933  0.5626
17377TIP3    H173546   5.868   0.383   4.243 -1.4843  0.5820 -0.8890
17377TIP3    H273547   5.910   0.243   4.203 -0.0452  0.7877 -0.1427
17378TIP3   OH273548   3.190   5.027   2.592 -0.1419 -0.4709  0.4197
17378TIP3    H173549   3.199   4.994   2.502 -0.1202 -1.0631  0.6415
17378TIP3    H273550   3.259   4.982   2.641 -1.5731 -1.8575  1.2198
17379TIP3   OH273551   0.687   4.107   4.962 -0.4001  0.2272  0.1930
17379TIP3    H173552   0.736   4.024   4.961 -0.2285  0.2613  2.1912
17379TIP3    H273553   0.681   4.130   5.055  0.4709  3.0196 -0.3587
17380TIP3   OH273554   0.439   5.532  11.553  0.3068  0.1322  0.5380
17380TIP3    H173555   0.450   5.619  11.515 -0.3323  0.3274  0.7856
17380TIP3    H273556   0.528   5.495  11.556  0.3306 -0.1117 -1.6418
17381TIP3   OH273557   2.134   2.623   5.750 -0.3604  0.1689 -0.4062
17381TIP3    H173558   2.144   2.532   5.778 -2.3547 -0.0928 -0.3504
17381TIP3    H273559   2.070   2.660   5.811 -0.5473  1.2285 -1.2109
17382TIP3   OH273560   5.333   1.909  12.185 -0.3561  0.0677 -0.0916
17382TIP3    H173561   5.253   1.869  12.219 -0.5492 -0.5602 -1.2422
17382TIP3    H273562   5.328   1.898  12.091  1.2335 -0.2698 -0.1722
17383TIP3   OH273563   1.621   2.340   5.041  0.2253 -0.4384  0.2262
17383TIP3    H173564   1.546   2.358   4.984  1.0881  1.4638 -0.4045
17383TIP3    H273565   1.695   2.328   4.980  0.7897 -0.4019  0.8878
17384TIP3   OH273566   2.775   4.097   2.426  0.0866  0.3224  0.5105
17384TIP3    H173567   2.725   4.061   2.500 -0.1759  0.3227  0.3349
17384TIP3    H273568   2.726   4.070   2.349  0.2436  0.5072  0.3459
17385TIP3   OH273569   0.537   3.487   4.890 -0.4497 -0.2016  0.2286
17385TIP3    H173570   0.451   3.521   4.912 -0.8108  0.1908 -1.6297
17385TIP3    H273571   0.595   3.564   4.891 -0.3412 -0.2855  0.4334
17386TIP3   OH273572   5.387   3.589   0.679 -0.1682  0.3450  0.0181
17386TIP3    H173573   5.425   3.594   0.591 -0.5420 -0.3339 -0.1873
17386TIP3    H273574   5.402   3.499   0.707 -1.1844  0.2027  0.1368
17387TIP3   OH273575   1.706   0.597  15.603  0.4362  0.3797 -0.9528
17387TIP3    H173576   1.783   0.547  15.629 -0.0507 -0.1002 -0.4068
17387TIP3    H273577   1.632   0.547  15.638 -0.0722  1.3619 -0.5933
17388TIP3   OH273578   3.896   4.948  10.617 -0.0173 -0.4321  0.1200
17388TIP3    H173579   3.890   5.031  10.570 -0.3754 -0.9184 -0.7275
17388TIP3    H273580   3.906   4.882  10.547 -0.4299 -1.1639  0.7358
17389TIP3   OH273581   2.235   0.984  11.978 -0.9519  0.0153 -0.1157
17389TIP3    H173582   2.244   1.040  11.902 -1.5839 -1.7370 -1.5563
17389TIP3    H273583   2.244   1.043  12.053 -0.6640  1.8437 -1.5243
17390TIP3   OH273584   5.751   6.395   4.203 -0.1392  0.5256 -0.0929
17390TIP3    H173585   5.719   6.485   4.196 -0.5055  0.3082 -1.7746
17390TIP3    H273586   5.767   6.369   4.112 -1.9925 -1.8036  0.1706
17391TIP3   OH273587   4.672   4.833  15.636  0.4714 -0.2966 -0.9213
17391TIP3    H173588   4.740   4.772  15.606  1.3353  0.8586 -1.4026
17391TIP3    H273589   4.712   4.879  15.709 -0.3491 -0.6234 -0.2581
17392TIP3   OH273590   6.595   2.012   0.101  0.1155 -0.7139 -0.4938
17392TIP3    H173591   6.585   2.014   0.006 -0.8675 -0.1985 -0.3857
17392TIP3    H273592   6.531   2.075   0.133 -1.0363 -2.3692  0.6328
17393TIP3   OH273593   0.214   6.569  13.623  0.2275 -0.5010  0.2972
17393TIP3    H173594   0.167   6.649  13.597 -1.7111 -1.7004 -0.1124
17393TIP3    H273595   0.305   6.586  13.600 -0.1031  1.6405  0.3688
17394TIP3   OH273596   6.366   2.739   3.128 -0.5042 -0.1529  0.0904
17394TIP3    H173597   6.271   2.747   3.120 -0.6037 -0.6867  0.6624
17394TIP3    H273598   6.398   2.740   3.037 -0.9325  1.3290 -0.0648
17395TIP3   OH273599   0.250   3.373  15.629 -0.4482 -0.1794 -0.4187
17395TIP3    H173600   0.292   3.290  15.605  0.2133 -0.0994  0.4160
17395TIP3    H273601   0.323   3.433  15.644 -0.5793 -0.7285  3.6896
17396TIP3   OH273602   5.781   1.861  16.767  0.0530  0.1936 -0.0230
17396TIP3    H173603   5.778   1.810  16.848 -2.0763  0.7289  0.2914
17396TIP3    H273604   5.849   1.926  16.781  1.1634 -1.0399  0.4938
17397TIP3   OH273605   3.298   5.347  14.800 -0.2709  0.1222  0.1257
17397TIP3    H173606   3.257   5.279  14.854  0.0892  0.4533  0.8278
17397TIP3    H273607   3.227   5.408  14.781 -0.3108  0.2176  0.5734
17398TIP3   OH273608   1.880   4.105  12.161  0.6187  0.0571 -0.5537
17398TIP3    H173609   1.953   4.087  12.102 -0.5492 -2.6834 -1.3463
17398TIP3    H273610   1.855   4.019  12.195 -1.4901  1.0371  0.5894
17399TIP3   OH273611   2.433   1.903   1.672 -1.0099  0.4745 -0.0631
17399TIP3    H173612   2.396   1.967   1.613  1.3217  0.9283 -1.1731
17399TIP3    H273613   2.475   1.839   1.615 -0.8875 -0.4966  1.0680
17400TIP3   OH273614   6.594   0.817   3.816 -0.0480 -0.0865  0.3602
17400TIP3    H173615   6.683   0.789   3.795 -0.2161 -0.4693  0.1368
17400TIP3    H273616   6.543   0.797   3.737 -0.2632  0.4577  0.3560
17401TIP3   OH273617   1.726   1.700  15.421 -0.2124  0.4713  0.6132
17401TIP3    H173618   1.634   1.690  15.447 -0.0450  0.9929  1.4721
17401TIP3    H273619   1.767   1.744  15.496  0.7218  0.3183  0.2085
17402TIP3   OH273620   3.079   0.797  11.119  0.0420  0.0213 -0.0410
17402TIP3    H173621   2.997   0.773  11.163 -0.2514  0.3200 -0.4216
17402TIP3    H273622   3.096   0.723  11.060 -2.2373  1.7518 -3.1548
17403TIP3   OH273623   5.691   1.699   3.961 -0.7118 -0.1382 -0.1867
17403TIP3    H173624   5.742   1.705   3.880  1.6514  1.7536  1.2980
17403TIP3    H273625   5.695   1.607   3.986  0.3742 -0.3520 -1.0936
17404TIP3   OH273626   0.096   0.759   0.171  0.4716  0.4948 -0.3798
17404TIP3    H173627   0.091   0.754   0.076  0.2466  0.0172 -0.3472
17404TIP3    H273628   0.161   0.827   0.188  0.5479  0.5505 -0.8727
17405TIP3   OH273629   0.401   6.308  11.684 -0.5028 -1.0118 -0.4643
17405TIP3    H173630   0.469   6.320  11.617  0.9686 -1.2379  0.9262
17405TIP3    H273631   0.383   6.214  11.682  0.4228 -1.2242  0.2320
17406TIP3   OH273632   6.118   5.554   0.632 -0.1125 -0.0276  0.2027
17406TIP3    H173633   6.085   5.512   0.712  0.5221 -1.3586 -0.1986
17406TIP3    H273634   6.053   5.531   0.566 -0.0626  0.1182  0.1042
17407TIP3   OH273635   4.241   4.032   1.692  0.1804 -0.3689 -0.3240
17407TIP3    H173636   4.325   3.989   1.677 -0.3001 -0.7800 -2.0314
17407TIP3    H273637   4.199   3.981   1.761  1.4196 -0.0061  0.7260
17408TIP3   OH273638   1.215   2.626   3.540 -0.3019  0.0872 -0.2803
17408TIP3    H173639   1.311   2.633   3.535 -0.2697 -1.0042 -1.9751
17408TIP3    H273640   1.184   2.714   3.517  0.3000 -0.2352 -2.6570
17409TIP3   OH273641   5.511   3.232  15.304  0.1240  0.0004  0.1502
17409TIP3    H173642   5.604   3.232  15.280  0.1107  0.5852  0.0936
17409TIP3    H273643   5.473   3.162  15.250  0.6852 -0.8300  0.8087
17410TIP3   OH273644   0.665   4.593   0.233  0.0022 -0.0665 -0.4381
17410TIP3    H173645   0.657   4.676   0.186  0.9873  0.1672 -0.2019
17410TIP3    H273646   0.727   4.611   0.303 -0.1062 -0.8964 -0.1247
17411TIP3   OH273647   3.231   2.176  13.553 -0.2351  0.4723  0.0230
17411TIP3    H173648   3.166   2.174  13.483 -0.3390  0.8474  0.1118
17411TIP3    H273649   3.220   2.261  13.595  0.6872  0.7806 -0.3139
17412TIP3   OH273650   6.209   2.849   4.027 -0.0459  0.4962  0.1027
17412TIP3    H173651   6.295   2.823   3.993  0.5173  1.6925  0.5837
17412TIP3    H273652   6.228   2.918   4.090 -1.4524  1.8044 -0.8369
17413TIP3   OH273653   0.206   3.828   5.860  0.1600  0.1474 -0.2878
17413TIP3    H173654   0.149   3.849   5.934 -0.6628 -0.6239 -0.6746
17413TIP3    H273655   0.283   3.788   5.900  0.2972  0.8988  0.2245
17414TIP3   OH273656   3.722   0.908  12.375  0.6483 -0.6124  0.2530
17414TIP3    H173657   3.710   0.942  12.464 -1.7249 -0.7873  0.0796
17414TIP3    H273658   3.749   0.984  12.323  0.6484 -0.1940  0.8624
17415TIP3   OH273659   0.960   3.549   5.612 -0.4010 -0.1016  0.7737
17415TIP3    H173660   1.003   3.586   5.535 -2.5834 -0.6870 -0.8433
17415TIP3    H273661   0.908   3.621   5.647 -1.7485 -0.5554 -0.1698
17416TIP3   OH273662   2.894   5.017  15.447  0.4809 -0.3552  0.0826
17416TIP3    H173663   2.825   5.067  15.490  0.4438 -0.3458  0.0117
17416TIP3    H273664   2.946   4.981  15.519  1.6160  1.2944  0.1459
17417TIP3   OH273665   3.617   4.785   1.619  0.1438  0.2705  0.0497
17417TIP3    H173666   3.712   4.793   1.623  0.4356 -2.1132 -0.5651
17417TIP3    H273667   3.589   4.856   1.560  1.8796 -0.7778 -2.1567
17418TIP3   OH273668   0.435   4.258   1.768  0.3842  0.1381  0.2782
17418TIP3    H173669   0.431   4.272   1.673  0.4422  2.2951  0.5466
17418TIP3    H273670   0.344   4.264   1.797  0.4926  0.7612  0.5022
17419TIP3   OH273671   2.494   0.872  16.377  0.1370 -0.1575  0.1304
17419TIP3    H173672   2.498   0.898  16.470  0.9694  0.5905 -0.0959
17419TIP3    H273673   2.524   0.950  16.330 -0.4390 -0.4808 -0.7839
17420TIP3   OH273674   3.220   5.269  12.127 -0.8471  0.0348  0.0917
17420TIP3    H173675   3.222   5.359  12.092 -0.8406 -0.4927 -1.3200
17420TIP3    H273676   3.232   5.280  12.221 -2.6137  1.6529  0.2062
17421TIP3   OH273677   6.294   0.202  14.943  0.1426  0.2081  0.1237
17421TIP3    H173678   6.284   0.173  14.853  1.0125  0.0862  0.0612
17421TIP3    H273679   6.389   0.205  14.958  0.0159 -1.4988  1.5803
17422TIP3   OH273680   6.207   6.396  14.239 -0.0640 -0.0651  0.3276
17422TIP3    H173681   6.248   6.311  14.258  1.4569  0.0993 -1.9025
17422TIP3    H273682   6.153   6.380  14.162 -1.2945  0.6095  1.0199
17423TIP3   OH273683   4.476   3.266  11.527  0.0739 -0.0961  0.5539
17423TIP3    H173684   4.506   3.312  11.605  2.9580 -1.8710  0.6444
17423TIP3    H273685   4.490   3.173  11.547 -1.9774 -0.8392 -1.0040
17424TIP3   OH273686   5.179   5.828  16.585  0.0607 -0.2020 -0.4842
17424TIP3    H173687   5.247   5.892  16.561  1.1444 -1.2163 -0.1702
17424TIP3    H273688   5.172   5.835  16.680 -1.2872  0.8733 -0.6317
17425TIP3   OH273689   5.549   1.777   1.381 -0.6915  0.1016  0.4121
17425TIP3    H173690   5.487   1.708   1.358 -1.0357  0.5764 -0.1033
17425TIP3    H273691   5.633   1.732   1.389 -1.0787 -0.5355  1.0502
17426TIP3   OH273692   1.728   6.691  13.213  0.0066 -0.4939  0.1092
17426TIP3    H173693   1.690   6.771  13.250  0.4658 -0.1875 -0.0576
17426TIP3    H273694   1.724   6.627  13.284 -0.5184 -0.3714  0.1904
17427TIP3   OH273695   6.385   5.995  16.405 -0.0801  0.4994 -0.7220
17427TIP3    H173696   6.475   6.029  16.397  1.0720 -2.1553 -0.2742
17427TIP3    H273697   6.374   5.978  16.498 -0.5967 -0.2786 -0.9139
17428TIP3   OH273698   2.064   3.935   2.568 -0.3967  0.3153 -0.1074
17428TIP3    H173699   2.118   3.998   2.520  0.9544 -0.3039  0.5504
17428TIP3    H273700   2.079   3.955   2.660 -1.4412  0.2371  0.0932
17429TIP3   OH273701   3.392   4.813  11.994  0.1739 -0.9540 -0.1280
17429TIP3    H173702   3.433   4.894  11.964 -2.1329  0.2987 -0.1484
17429TIP3    H273703   3.425   4.800  12.083  0.2753  0.2306  0.0201
17430TIP3   OH273704   6.200   4.150  15.373 -0.9564 -0.4850  0.4549
17430TIP3    H173705   6.275   4.208  15.362 -1.7767  0.2315 -1.9897
17430TIP3    H273706   6.232   4.063  15.349 -0.7010 -0.3253  0.2128
17431TIP3   OH273707   0.777   2.901  12.850 -0.5007 -0.8657  0.3148
17431TIP3    H173708   0.758   2.976  12.793  0.4452 -1.1079 -0.3295
17431TIP3    H273709   0.868   2.880  12.832 -0.6550 -1.9457  0.7657
17432TIP3   OH273710   1.000   2.941  11.169 -0.3559  0.5640  0.1530
17432TIP3    H173711   1.014   2.854  11.132 -2.0826  0.2785  0.1170
17432TIP3    H273712   1.012   2.929  11.263 -3.5238 -0.4525  0.5387
17433TIP3   OH273713   6.608   4.977   1.667 -0.2754  0.1563  0.1053
17433TIP3    H173714   6.686   4.999   1.615 -1.1883 -0.5201 -1.6192
17433TIP3    H273715   6.599   5.049   1.728 -0.2879  2.0693 -2.0095
17434TIP3   OH273716   3.411   5.267  10.966  0.3889  0.1209 -0.3812
17434TIP3    H173717   3.329   5.291  11.008  1.7228  0.1690  2.4245
17434TIP3    H273718   3.395   5.182  10.927 -0.9201  0.0200  0.3354
17435TIP3   OH273719   0.053   0.429   4.716 -0.2235 -0.2763  0.3073
17435TIP3    H173720  -0.020   0.431   4.778 -0.1393  0.5331  0.3937
17435TIP3    H273721   0.127   0.466   4.764 -0.2557  0.7339 -0.3860
17436TIP3   OH273722   2.528   6.660  12.821  0.1161 -0.1342  0.1830
17436TIP3    H173723   2.539   6.702  12.736  0.7248  3.2511  1.7783
17436TIP3    H273724   2.616   6.634  12.847 -0.0567 -1.0892 -0.1755
17437TIP3   OH273725   6.054   0.714  15.891  0.0584  0.0848  0.2807
17437TIP3    H173726   6.107   0.750  15.820  0.4105  1.1892  1.0942
17437TIP3    H273727   6.082   0.760  15.969 -1.6004  0.2103  0.8527
17438TIP3   OH273728   6.360   3.036  14.504  0.7225  0.2683  0.5710
17438TIP3    H173729   6.432   3.038  14.441 -0.0213 -1.1411 -0.3784
17438TIP3    H273730   6.291   3.088  14.462  0.4498 -0.1388  0.5141
17439TIP3   OH273731   5.699   0.013  14.276  0.0264 -0.0851  0.0807
17439TIP3    H173732   5.615   0.056  14.291  0.7749  1.7919 -0.7531
17439TIP3    H273733   5.701  -0.060  14.338 -2.0782 -0.0006  0.3106
17440TIP3   OH273734   1.606   0.029  11.507  0.0492  0.5017 -0.0826
17440TIP3    H173735   1.650  -0.055  11.510  2.0410  1.4572 -0.6841
17440TIP3    H273736   1.614   0.057  11.416 -1.3263  1.0018 -0.0823
17441TIP3   OH273737   6.780   4.809   4.353  0.0874  0.2932  0.1144
17441TIP3    H173738   6.816   4.897   4.364  1.5708 -0.3402  0.5489
17441TIP3    H273739   6.686   4.823   4.338  0.2138  1.9142  0.6559
17442TIP3   OH273740   3.437   0.926  14.871  0.4112  0.1937  0.1817
17442TIP3    H173741   3.482   0.910  14.788  1.2424 -0.0194  0.6551
17442TIP3    H273742   3.500   0.976  14.923 -0.1103  0.3501  0.6681
17443TIP3   OH273743   3.535   5.920   1.403 -0.4806  0.9297  0.3629
17443TIP3    H173744   3.496   5.939   1.489 -1.0035 -0.1971  0.3947
17443TIP3    H273745   3.626   5.895   1.423 -1.0912 -1.1402  0.8314
17444TIP3   OH273746   1.377   2.791  16.754  0.3856 -0.3422  0.5365
17444TIP3    H173747   1.464   2.757  16.770  0.6431 -0.2065 -0.4976
17444TIP3    H273748   1.375   2.809  16.660 -1.0809 -1.2819  0.3447
17445TIP3   OH273749   4.052   4.451   5.370  0.5953  0.2201 -0.2680
17445TIP3    H173750   4.094   4.389   5.430 -0.1295 -0.7493 -0.7402
17445TIP3    H273751   4.116   4.462   5.299  1.3697  1.2150  0.5463
17446TIP3   OH273752   5.696   6.740   4.499  0.5112 -0.5542  0.1802
17446TIP3    H173753   5.782   6.699   4.498  0.0566 -1.6241  1.3213
17446TIP3    H273754   5.714   6.834   4.494  1.6247 -0.8241 -1.5439
17447TIP3   OH273755   6.779   1.450  11.293  0.0879 -0.0176  0.4161
17447TIP3    H173756   6.743   1.395  11.223 -0.6443 -0.1126  0.8522
17447TIP3    H273757   6.703   1.476  11.344  0.6033  0.1536  1.1080
17448TIP3   OH273758   2.890   3.521   1.939 -0.7331 -0.2542 -0.6853
17448TIP3    H173759   2.871   3.432   1.909 -1.2031 -0.9965  1.6240
17448TIP3    H273760   2.852   3.577   1.871  1.3725 -1.7115 -3.2899
17449TIP3   OH273761   6.698   6.113   3.237 -0.2757 -1.0959 -0.4451
17449TIP3    H173762   6.635   6.174   3.274 -1.3048 -1.7514 -1.0980
17449TIP3    H273763   6.671   6.027   3.270  1.5372 -1.1802  1.0055
17450TIP3   OH273764   0.941   2.071   0.005  1.2312  0.1046 -0.0979
17450TIP3    H173765   0.947   2.000   0.069  0.3938  0.7711  0.7631
17450TIP3    H273766   0.858   2.115   0.027  1.1864  0.6661 -1.3184
17451TIP3   OH273767   3.564   6.530  13.686 -0.3606 -0.2301  0.7014
17451TIP3    H173768   3.655   6.559  13.691 -0.3697 -0.2281  0.8647
17451TIP3    H273769   3.529   6.547  13.773 -0.9539  1.2454  0.2110
17452TIP3   OH273770   2.229   1.535  14.958  0.2635 -0.2501 -0.1385
17452TIP3    H173771   2.165   1.499  15.020  1.8331  0.1206  1.8004
17452TIP3    H273772   2.225   1.629  14.971  1.7294 -0.2613  0.6356
17453TIP3   OH273773   3.565   2.084  12.781  0.4032  0.1432  0.0194
17453TIP3    H173774   3.644   2.104  12.831  1.2522 -1.9767 -0.3880
17453TIP3    H273775   3.496   2.076  12.846  1.1941 -1.1255  0.7358
17454TIP3   OH273776   0.821   3.230   3.988  0.2358 -0.6602 -0.0379
17454TIP3    H173777   0.774   3.293   3.934  1.8658  1.7450  1.1722
17454TIP3    H273778   0.896   3.204   3.935  1.3272  0.9856  0.6279
17455TIP3   OH273779   0.442   1.242  11.772 -0.2839  0.3792  0.1268
17455TIP3    H173780   0.428   1.189  11.693 -1.5570 -0.2752  0.7432
17455TIP3    H273781   0.517   1.201  11.815  0.4567  0.7763 -0.7561
17456TIP3   OH273782   2.806   4.713  16.796  0.0753 -0.0258 -0.1037
17456TIP3    H173783   2.757   4.662  16.732  0.7891  0.0742 -0.7500
17456TIP3    H273784   2.842   4.786  16.746  0.3494  0.2489  0.4846
17457TIP3   OH273785   2.974   0.050  14.830 -0.4101 -0.1529  0.0951
17457TIP3    H173786   2.963   0.001  14.749 -0.3002 -0.0911  0.0422
17457TIP3    H273787   2.934  -0.006  14.897 -1.3165  0.2061 -0.1356
17458TIP3   OH273788   1.988   2.808   4.583  0.1667 -0.2404 -0.4387
17458TIP3    H173789   1.918   2.742   4.588 -1.2584  1.1388 -1.4133
17458TIP3    H273790   2.068   2.759   4.602 -0.7251 -2.4261 -1.9507
17459TIP3   OH273791   3.627   1.034  11.011  0.4911  1.1298  0.3910
17459TIP3    H173792   3.629   1.020  10.916 -0.7195  0.1669  0.4762
17459TIP3    H273793   3.719   1.033  11.037  0.7834  0.0509 -0.5948
17460TIP3   OH273794   1.114   5.216   0.025 -0.2750  0.5790  0.0856
17460TIP3    H173795   1.030   5.173   0.006 -0.3296  0.1853  1.1778
17460TIP3    H273796   1.140   5.255  -0.059 -0.8041 -0.5755 -0.6378
17461TIP3   OH273797   0.840   5.060   3.731  0.2536  0.3872  0.1527
17461TIP3    H173798   0.765   5.116   3.754 -0.6519 -0.5289 -0.4694
17461TIP3    H273799   0.903   5.120   3.691 -0.1595  1.1715  0.6479
17462TIP3   OH273800   5.157   1.860  11.002  0.1544  0.1234 -0.4344
17462TIP3    H173801   5.201   1.781  10.969  0.0521  0.1022 -0.5212
17462TIP3    H273802   5.143   1.914  10.925  1.0708  0.6482 -0.2423
17463TIP3   OH273803   1.299   1.401  10.753  0.5025 -0.6192 -0.1098
17463TIP3    H173804   1.236   1.384  10.822  0.7823 -0.4004  0.2023
17463TIP3    H273805   1.249   1.447  10.685 -0.2715 -2.6032 -0.9658
17464TIP3   OH273806   4.173   5.635   6.630  0.1832  0.6793  0.5937
17464TIP3    H173807   4.242   5.574   6.604  0.4648  1.1681  0.1770
17464TIP3    H273808   4.221   5.713   6.659 -0.2180  1.5527 -1.0235
17465TIP3   OH273809   2.928   1.234   0.464  0.0673 -0.1363  0.3795
17465TIP3    H173810   3.021   1.251   0.450  0.3434 -0.0324  2.1226
17465TIP3    H273811   2.920   1.139   0.459 -0.1111 -0.0724 -1.6377
17466TIP3   OH273812   5.348   5.306   0.634 -0.0702 -0.2926  0.4478
17466TIP3    H173813   5.319   5.293   0.724 -0.3770  1.2544  0.6008
17466TIP3    H273814   5.317   5.228   0.588 -2.3026  0.0880  1.1471
17467TIP3   OH273815   3.359   4.408   1.840  0.3952  0.1958 -0.0905
17467TIP3    H173816   3.442   4.447   1.813 -1.0822  1.6271 -3.1091
17467TIP3    H273817   3.337   4.451   1.922  2.3271  0.1743  0.4782
17468TIP3   OH273818   4.086   5.185   4.453  0.1096 -0.0113  0.3134
17468TIP3    H173819   4.096   5.255   4.388 -0.8368 -0.4561 -0.3368
17468TIP3    H273820   4.138   5.112   4.418 -1.0976 -0.5585 -0.4485
17469TIP3   OH273821   6.521   3.757   0.472  0.4268  0.2275 -0.4712
17469TIP3    H173822   6.501   3.835   0.420  1.2344  0.1495 -0.9180
17469TIP3    H273823   6.527   3.788   0.562 -0.3556  0.4785 -0.5006
17470TIP3   OH273824   3.535   6.126   4.241  0.1134  0.2776  0.4338
17470TIP3    H173825   3.571   6.047   4.282 -3.0864 -0.1682  2.7528
17470TIP3    H273826   3.542   6.110   4.147  0.6868 -2.2436  0.8501
17471TIP3   OH273827   1.821   6.298  14.215 -0.2739 -0.2749  0.3460
17471TIP3    H173828   1.741   6.253  14.190  0.7779 -2.0660  0.0471
17471TIP3    H273829   1.880   6.285  14.141 -0.3149  2.7557 -0.3395
17472TIP3   OH273830   4.539   6.410   2.547 -0.3871 -0.2344  0.6174
17472TIP3    H173831   4.539   6.506   2.549  1.1562 -0.2210  1.4595
17472TIP3    H273832   4.585   6.389   2.465 -0.4360 -0.2517  0.5946
17473TIP3   OH273833   4.966   0.153   3.786 -0.2156 -0.1428 -0.1079
17473TIP3    H173834   4.922   0.115   3.862  0.0282 -1.6524 -0.6845
17473TIP3    H273835   5.056   0.119   3.791 -0.0401  0.2066 -0.7596
17474TIP3   OH273836   1.286   1.330  14.214  0.1940  0.3898 -1.1260
17474TIP3    H173837   1.379   1.309  14.220  0.2963  0.9685 -0.5789
17474TIP3    H273838   1.245   1.281  14.285 -0.0067 -0.3102 -1.7174
17475TIP3   OH273839   4.348   0.998   5.001  0.2358  0.4182  0.0543
17475TIP3    H173840   4.377   0.930   4.939  1.1186  0.8869 -0.0659
17475TIP3    H273841   4.262   1.024   4.968  1.0102  1.2121 -1.4779
17476TIP3   OH273842   4.422   0.821  11.199 -0.2073  0.2188 -0.1550
17476TIP3    H173843   4.403   0.908  11.233 -0.1556  0.1562  0.0363
17476TIP3    H273844   4.464   0.836  11.115  0.4680  0.3947  0.2066
17477TIP3   OH273845   4.076   4.911   4.170  0.1764  0.3273  0.1225
17477TIP3    H173846   4.053   4.991   4.124  2.5179  0.8883 -0.1851
17477TIP3    H273847   4.107   4.851   4.102  0.1620 -0.1953  0.5610
17478TIP3   OH273848   0.985   4.582  14.406 -0.0083  0.4133  0.3509
17478TIP3    H173849   1.061   4.631  14.375 -0.2169  1.7603  1.8293
17478TIP3    H273850   1.019   4.495  14.427  0.5795  0.1901 -1.3949
17479TIP3   OH273851   2.579   3.350   0.627  0.2249 -0.0239 -0.0920
17479TIP3    H173852   2.577   3.304   0.711 -0.2605  1.5300  0.7822
17479TIP3    H273853   2.655   3.313   0.581  0.9955 -0.3399  1.3768
17480TIP3   OH273854   5.508   3.800  16.702 -0.3509 -0.7143  0.1805
17480TIP3    H173855   5.473   3.854  16.631  0.0813 -0.0890  0.4325
17480TIP3    H273856   5.442   3.806  16.771 -0.0722 -0.0959  0.3959
17481TIP3   OH273857   3.730   2.323  17.072 -0.4420  0.1368  0.0580
17481TIP3    H173858   3.789   2.366  17.010  0.5055 -0.0450  0.8142
17481TIP3    H273859   3.697   2.394  17.127  0.2796  0.0571  0.6126
17482TIP3   OH273860   0.300   5.810   2.978 -0.4431 -0.3053  0.6839
17482TIP3    H173861   0.356   5.733   2.971 -0.8017 -0.7244  2.0924
17482TIP3    H273862   0.349   5.869   3.037 -0.3366  0.3972 -0.0919
17483TIP3   OH273863   2.233   1.971   2.644 -0.3357 -0.0495  0.2988
17483TIP3    H173864   2.280   1.959   2.561 -0.4347 -0.6563  0.3211
17483TIP3    H273865   2.283   1.918   2.706  1.0144  2.0716  1.1483
17484TIP3   OH273866   0.796   5.511   6.056  0.7542  0.3941 -0.2730
17484TIP3    H173867   0.857   5.582   6.037  1.3784 -0.3826 -1.3428
17484TIP3    H273868   0.841   5.432   6.024  0.4947 -0.6232  1.6895
17485TIP3   OH273869   5.502   1.772  12.413 -0.0484  0.4911 -0.3510
17485TIP3    H173870   5.525   1.864  12.403 -1.9068  0.9841 -0.5726
17485TIP3    H273871   5.518   1.733  12.327  0.8443  0.5621 -0.2264
17486TIP3   OH273872   1.767   5.880   0.346  0.1378 -0.0555 -0.4157
17486TIP3    H173873   1.783   5.821   0.419 -1.5821 -0.0608 -0.0141
17486TIP3    H273874   1.674   5.870   0.326 -0.4079  2.9141  0.0572
17487TIP3   OH273875   5.905   1.243  15.046 -0.3136  0.3778  0.3067
17487TIP3    H173876   5.868   1.223  15.132 -0.9957 -1.6135 -0.3977
17487TIP3    H273877   5.966   1.172  15.028 -1.2007 -0.0237 -1.3995
17488TIP3   OH273878   1.808   5.117   0.007  0.1066 -0.0999  0.3503
17488TIP3    H173879   1.798   5.114   0.102 -0.1401  0.7948  0.3633
17488TIP3    H273880   1.791   5.209  -0.016 -2.8068 -0.8205 -0.8781
17489TIP3   OH273881   5.606   3.502   2.690 -0.2652  0.0758  0.7376
17489TIP3    H173882   5.599   3.541   2.778  2.1721  0.4806  0.8375
17489TIP3    H273883   5.612   3.408   2.706 -0.2380  0.1182  0.9823
17490TIP3   OH273884   0.290   3.367  14.060 -0.1591  0.2185 -0.1037
17490TIP3    H173885   0.310   3.456  14.029  1.2222 -0.0036  0.0915
17490TIP3    H273886   0.325   3.310  13.992  0.9466 -0.2190  0.8092
17491TIP3   OH273887   5.602   2.224   2.948  0.2192  0.4808 -0.1818
17491TIP3    H173888   5.536   2.257   2.888 -0.8888  0.5713  1.0512
17491TIP3    H273889   5.596   2.281   3.025 -0.3253 -1.3074  1.1581
17492TIP3   OH273890   3.116   0.277  12.662  0.0458 -0.1794  0.0386
17492TIP3    H173891   3.211   0.272  12.654  0.0245 -1.2728  0.3628
17492TIP3    H273892   3.083   0.246  12.577 -0.0289  0.9670 -0.3725
17493TIP3   OH273893   4.555   5.445  14.321  0.0739 -0.4487 -0.4760
17493TIP3    H173894   4.565   5.510  14.251  0.5004 -0.2012 -0.1910
17493TIP3    H273895   4.504   5.375  14.282 -1.8413  0.7851 -0.3190
17494TIP3   OH273896   6.273   4.514   2.161  0.2931  0.0217  0.6991
17494TIP3    H173897   6.321   4.432   2.150  1.9841  0.9331  0.8867
17494TIP3    H273898   6.249   4.540   2.072 -0.2511 -0.6721  0.6406
17495TIP3   OH273899   0.843   1.433  11.436 -0.0262  0.3262  0.1606
17495TIP3    H173900   0.851   1.404  11.345 -0.5463 -0.3865  0.3388
17495TIP3    H273901   0.775   1.501  11.434  0.2690  0.6192 -0.0459
17496TIP3   OH273902   1.500   6.758  17.128 -0.1966 -0.5217 -0.1242
17496TIP3    H173903   1.439   6.685  17.140  0.5087 -1.0044  0.5728
17496TIP3    H273904   1.473   6.823  17.193  0.3704 -0.9721  0.5774
17497TIP3   OH273905   3.128   3.756  13.487  0.2959 -0.6819  0.2431
17497TIP3    H173906   3.175   3.688  13.439  1.5322  1.1084 -1.2533
17497TIP3    H273907   3.102   3.819  13.419 -0.2461  0.6358  1.6083
17498TIP3   OH273908   0.686   6.631   4.787  0.0191 -0.0585 -0.0075
17498TIP3    H173909   0.780   6.628   4.803  0.1571  0.4435 -0.6706
17498TIP3    H273910   0.658   6.712   4.829 -0.1674 -0.3323  0.4048
17499TIP3   OH273911   4.218   2.493  13.934  0.7851 -0.2424 -0.5029
17499TIP3    H173912   4.183   2.576  13.902  0.8820  0.2165  0.5316
17499TIP3    H273913   4.256   2.451  13.857 -0.4309  0.0599 -1.3005
17500TIP3   OH273914   2.616   3.794  15.238  0.0665  0.1129  0.0783
17500TIP3    H173915   2.684   3.816  15.302 -1.4235  1.9246  1.1275
17500TIP3    H273916   2.627   3.859  15.169 -0.4541  0.3003  0.1668
17501TIP3   OH273917   5.614   3.375   1.621 -0.1885 -0.3331  0.4083
17501TIP3    H173918   5.649   3.304   1.675 -0.1103 -1.3599 -0.9590
17501TIP3    H273919   5.519   3.366   1.627 -0.2241  0.6621  1.7760
17502TIP3   OH273920   5.727   4.590   2.747 -0.9212  0.5102  0.1235
17502TIP3    H173921   5.806   4.608   2.797 -1.0032  0.3985  0.2932
17502TIP3    H273922   5.658   4.640   2.790 -0.8494  1.0025 -0.3225
17503TIP3   OH273923   0.662   1.131  13.820  0.1913  0.3341  0.3243
17503TIP3    H173924   0.693   1.054  13.772 -0.2822 -0.0190  0.5832
17503TIP3    H273925   0.681   1.112  13.912  0.3658  0.6656  0.3593
17504TIP3   OH273926   2.780   1.142   4.624  0.4467 -0.0812 -0.3586
17504TIP3    H173927   2.866   1.183   4.623 -0.0920  1.1534  0.9319
17504TIP3    H273928   2.724   1.203   4.672 -1.4904 -0.2231 -2.2735
17505TIP3   OH273929   1.516   2.373  12.685  0.3673  0.1485  0.1542
17505TIP3    H173930   1.481   2.455  12.650  1.0828 -0.0872 -1.1659
17505TIP3    H273931   1.608   2.372  12.656  0.8295 -0.3486  1.5571
17506TIP3   OH273932   1.538   6.547  13.070  0.4255 -0.9369  0.0331
17506TIP3    H173933   1.552   6.568  12.978 -0.5166 -1.9339 -0.3476
17506TIP3    H273934   1.607   6.595  13.116  1.4976 -1.1912 -1.2690
17507TIP3   OH273935   2.587   1.288   1.507 -0.4338 -0.8164  1.3653
17507TIP3    H173936   2.648   1.347   1.553  0.9453 -0.3463 -0.9124
17507TIP3    H273937   2.640   1.249   1.438 -2.1864 -2.2352  0.7594
17508TIP3   OH273938   2.916   5.219  16.435 -0.2191 -0.2401  0.1385
17508TIP3    H173939   2.888   5.131  16.409 -0.2178 -0.1847 -0.0530
17508TIP3    H273940   2.920   5.268  16.353  2.3119 -0.7503 -0.1113
17509TIP3   OH273941   5.633   0.258  15.620  0.3352  0.2196  0.2829
17509TIP3    H173942   5.707   0.199  15.629  0.9040  0.9277  0.3223
17509TIP3    H273943   5.593   0.234  15.536 -0.7530 -1.6527  1.2610
17510TIP3   OH273944   4.844   5.839   4.960 -0.4401  0.1692  0.0160
17510TIP3    H173945   4.804   5.800   5.037 -0.8302 -0.6401 -0.5819
17510TIP3    H273946   4.776   5.894   4.922 -0.0069  1.1761  0.6534
17511TIP3   OH273947   6.202   6.684   2.100 -0.6772  0.5766 -0.5760
17511TIP3    H173948   6.186   6.604   2.148 -1.3887  0.7513 -0.5131
17511TIP3    H273949   6.297   6.695   2.102 -0.7400  1.3811  2.0948
17512TIP3   OH273950   4.418   1.584   5.515 -0.2833  0.0096 -0.9140
17512TIP3    H173951   4.511   1.581   5.537 -0.7780 -0.7210  1.2862
17512TIP3    H273952   4.416   1.626   5.428  2.0533  0.2229 -0.9442
17513TIP3   OH273953   6.790   1.228   1.658  0.3721 -0.2549 -0.0320
17513TIP3    H173954   6.790   1.138   1.627  0.9304 -0.5203  0.7166
17513TIP3    H273955   6.882   1.252   1.663  0.2271  0.5127 -0.6229
17514TIP3   OH273956   1.073   6.618   2.725 -0.2006  0.4147 -0.0354
17514TIP3    H173957   1.005   6.555   2.748 -0.0951 -0.0300 -0.9126
17514TIP3    H273958   1.027   6.687   2.677 -0.0658  0.1883 -0.4982
17515TIP3   OH273959   6.507   6.461  11.666  0.3384  0.2259 -0.2724
17515TIP3    H173960   6.467   6.546  11.651 -1.1018 -0.5937 -1.3995
17515TIP3    H273961   6.436   6.406  11.700  0.9854 -0.7680 -0.4559
17516TIP3   OH273962   4.980   6.498  13.202  0.2573  0.1037 -0.2270
17516TIP3    H173963   4.907   6.460  13.153  0.6939 -0.2338 -0.6209
17516TIP3    H273964   4.996   6.582  13.160  0.1670  0.1308 -0.2084
17517TIP3   OH273965   0.386   1.309  16.584  0.4207 -0.8292 -0.1910
17517TIP3    H173966   0.326   1.286  16.514  0.0704 -1.2853  0.2526
17517TIP3    H273967   0.433   1.228  16.603 -0.6710 -1.1529  1.2391
17518TIP3   OH273968   3.137   5.138   5.032 -0.1129 -0.1038  0.1177
17518TIP3    H173969   3.059   5.161   5.081 -0.2054  0.9506 -0.4967
17518TIP3    H273970   3.136   5.042   5.028 -0.7596 -0.1453  1.0768
17519TIP3   OH273971   0.493   5.857  11.739 -0.4592 -0.1409 -0.5031
17519TIP3    H173972   0.440   5.924  11.696  2.0701  1.0851 -1.8985
17519TIP3    H273973   0.429   5.801  11.783 -2.7998  2.0687 -0.8546
17520TIP3   OH273974   3.512   0.576  14.303  0.1217  0.2768 -0.3979
17520TIP3    H173975   3.545   0.640  14.240  0.6382  2.0931  1.6314
17520TIP3    H273976   3.470   0.628  14.371 -0.8056 -1.6439  0.5710
17521TIP3   OH273977   2.970   3.877   2.374 -0.1444 -0.1644 -0.1786
17521TIP3    H173978   3.009   3.892   2.288 -0.0014  0.8131  0.0401
17521TIP3    H273979   2.896   3.938   2.378  1.0189  1.2628  1.1203
17522TIP3   OH273980   3.532   5.932  12.385  0.5883 -0.5246  0.0874
17522TIP3    H173981   3.442   5.963  12.382  0.6594 -0.2460  0.7245
17522TIP3    H273982   3.549   5.901  12.296  0.2578  0.5405 -0.3729
17523TIP3   OH273983   3.018   5.987   3.808 -0.0297  0.5622 -0.4876
17523TIP3    H173984   3.106   5.956   3.832 -0.8658 -1.4171  0.2953
17523TIP3    H273985   3.002   5.947   3.723 -0.3109  0.5566 -0.4331
17524TIP3   OH273986   0.844   5.191   0.682  0.4706  0.7887 -0.7716
17524TIP3    H173987   0.927   5.144   0.676  0.0070  0.1163 -2.1890
17524TIP3    H273988   0.839   5.217   0.775  1.7044 -0.1511 -0.4072
17525TIP3   OH273989   1.232   6.618  14.359 -0.0539 -0.0744  0.9204
17525TIP3    H173990   1.313   6.620  14.410  0.3772  1.4486  0.2346
17525TIP3    H273991   1.164   6.599  14.423  0.7030 -0.2489  1.7016
17526TIP3   OH273992   0.517   2.964  14.014 -0.1135  0.0051  0.0669
17526TIP3    H173993   0.428   2.930  14.024 -0.0617 -0.0640  0.2815
17526TIP3    H273994   0.519   3.043  14.068  0.5875 -1.1242  1.7773
17527TIP3   OH273995   1.925   5.112   3.218 -0.0981  0.0951 -0.2655
17527TIP3    H173996   1.928   5.207   3.206  0.3971  0.2074  0.6121
17527TIP3    H273997   1.989   5.095   3.287  1.0878 -1.0873 -1.6009
17528TIP3   OH273998   4.733   0.033   0.680 -0.1544 -0.1915 -0.4016
17528TIP3    H173999   4.829   0.037   0.683 -0.1758  0.3853 -0.3606
17528TIP3    H274000   4.713  -0.059   0.694  0.4199 -0.4546 -1.2544
17529TIP3   OH274001   1.851   2.797  11.749 -0.4613 -0.1578  0.0273
17529TIP3    H174002   1.907   2.856  11.800 -0.8572  0.8206 -0.6408
17529TIP3    H274003   1.868   2.821  11.658 -2.8335  1.0003 -0.1625
17530TIP3   OH274004   6.726   6.538  13.359 -0.5122  0.2646  0.2845
17530TIP3    H174005   6.748   6.481  13.432 -1.0748 -0.2857  0.0291
17530TIP3    H274006   6.769   6.621  13.379 -0.9654  0.2308  1.4238
17531TIP3   OH274007   6.571   0.142  13.334  0.6449 -0.2056  0.0508
17531TIP3    H174008   6.517   0.085  13.279 -0.8877  1.4477 -0.2433
17531TIP3    H274009   6.556   0.230  13.300  1.6884  0.5779  1.4942
17532TIP3   OH274010   0.995   1.074   0.645  0.2406 -0.2027 -0.0698
17532TIP3    H174011   1.090   1.076   0.633  0.5989  2.1993  2.1312
17532TIP3    H274012   0.984   1.084   0.740 -2.2249 -0.8673 -0.2406
17533TIP3   OH274013   6.411   2.956   4.399  0.0063  0.6916 -0.2017
17533TIP3    H174014   6.382   2.978   4.487 -0.7540  1.4160 -0.6147
17533TIP3    H274015   6.453   2.870   4.408 -0.2154  0.6795  0.8255
17534TIP3   OH274016   0.081   6.338   1.231  0.2272  0.2126  0.3783
17534TIP3    H174017   0.096   6.420   1.279  0.1637  1.4285 -1.5581
17534TIP3    H274018  -0.013   6.324   1.237 -0.1467  1.6893 -1.3500
17535TIP3   OH274019   6.079   1.720   1.716 -0.3283  0.7781  0.4585
17535TIP3    H174020   6.129   1.727   1.797  0.8363  0.5670 -0.2232
17535TIP3    H274021   6.004   1.778   1.729  0.3526  1.4971  1.3155
17536TIP3   OH274022   6.444   0.264  11.354  0.0875 -0.6846 -0.0782
17536TIP3    H174023   6.390   0.342  11.341 -1.6283 -1.5937  1.2478
17536TIP3    H274024   6.534   0.297  11.355 -0.6554  1.7749  3.3902
17537TIP3   OH274025   2.281   2.537  10.641 -0.8385 -0.6643  0.3212
17537TIP3    H174026   2.267   2.558  10.549 -1.1833  1.5944  0.8327
17537TIP3    H274027   2.208   2.579  10.687 -1.3711 -2.7982  1.5392
17538TIP3   OH274028   6.565   4.391  16.679 -0.1388  0.1690 -0.1578
17538TIP3    H174029   6.561   4.474  16.726 -0.1172  0.0272  0.0988
17538TIP3    H274030   6.609   4.412  16.597 -0.4847  0.4882 -0.2648
17539TIP3   OH274031   1.675   3.342   2.960  0.1956  0.8721  0.0505
17539TIP3    H174032   1.687   3.273   2.895 -0.6039  0.2064  0.5928
17539TIP3    H274033   1.581   3.345   2.975  0.4379  0.3374  1.8757
17540TIP3   OH274034   5.401   2.969   5.059  0.3996  0.1232  0.4339
17540TIP3    H174035   5.318   2.952   5.102 -0.3068  2.6647  0.1875
17540TIP3    H274036   5.466   2.965   5.129  0.0252 -1.1557  0.7443
17541TIP3   OH274037   1.313   5.725  11.960 -0.6744 -0.7342 -0.3506
17541TIP3    H174038   1.272   5.643  11.934  0.6416 -0.8060 -2.3727
17541TIP3    H274039   1.380   5.741  11.894  0.3199  1.0613  0.9929
17542TIP3   OH274040   4.963   3.710   3.934 -0.4218 -0.8409 -0.2304
17542TIP3    H174041   5.026   3.643   3.962  0.2188 -0.6970 -1.2894
17542TIP3    H274042   5.016   3.779   3.896 -1.1973 -0.4845 -0.6919
17543TIP3   OH274043   1.460   2.858  17.194 -0.2792 -0.3790  0.0853
17543TIP3    H174044   1.407   2.937  17.182 -0.6090 -0.8563 -1.7506
17543TIP3    H274045   1.406   2.801  17.248 -0.8312 -0.1243 -0.1987
17544TIP3   OH274046   5.111   6.093  11.062 -0.8630  0.0934 -0.5760
17544TIP3    H174047   5.067   6.156  11.118  0.7271  0.9204 -0.2054
17544TIP3    H274048   5.192   6.072  11.108 -0.6147 -0.9863 -1.4715
17545TIP3   OH274049   5.183   4.051  16.563 -0.9123  0.2221  0.1371
17545TIP3    H174050   5.201   4.143  16.545 -0.3671  0.5470  2.1513
17545TIP3    H274051   5.126   4.052  16.640  1.0171 -1.1268  1.6929
17546TIP3   OH274052   1.083   1.512   6.710  0.1266  0.0806 -0.4589
17546TIP3    H174053   0.989   1.523   6.694 -0.8189 -2.4065  2.2681
17546TIP3    H274054   1.106   1.431   6.665  0.2056 -0.7806  1.0379
17547TIP3   OH274055   3.569   3.281   1.711  0.1696  0.5399 -0.2328
17547TIP3    H174056   3.509   3.353   1.696  0.5094  1.3563  1.9344
17547TIP3    H274057   3.609   3.301   1.796  2.0059 -1.0006 -0.6687
17548TIP3   OH274058   0.641   0.296   3.687 -0.5837  0.2601  0.4529
17548TIP3    H174059   0.687   0.228   3.638  0.3180  2.0791 -1.3812
17548TIP3    H274060   0.565   0.318   3.632 -1.2697  0.2284  1.3728
17549TIP3   OH274061   4.455   4.133  10.975  0.1624  0.3819 -0.2789
17549TIP3    H174062   4.391   4.082  11.025  0.6845  1.2470  1.3531
17549TIP3    H274063   4.454   4.219  11.016  0.0196  1.4043 -2.3541
17550TIP3   OH274064   4.336   0.942   2.465  0.7165  0.3900 -0.5546
17550TIP3    H174065   4.311   0.867   2.519  0.6984  1.2859  0.7450
17550TIP3    H274066   4.394   0.906   2.398  0.4634 -0.8239 -0.1301
17551TIP3   OH274067   0.979   5.932   6.138 -0.1250 -0.0045  0.1368
17551TIP3    H174068   0.892   5.921   6.175  0.0829 -1.8097  0.1609
17551TIP3    H274069   1.023   5.994   6.196 -0.7540 -0.5680  1.2259
17552TIP3   OH274070   3.700   6.344   0.420  0.0612 -0.1675  0.4337
17552TIP3    H174071   3.674   6.267   0.471 -0.7111 -1.5004 -1.7995
17552TIP3    H274072   3.762   6.308   0.355 -0.3517  1.0767 -0.6839
17553TIP3   OH274073   6.655   1.514  15.028  0.2052 -0.5596  0.6005
17553TIP3    H174074   6.679   1.432  15.070  1.4368 -0.4754  0.1076
17553TIP3    H274075   6.737   1.547  14.990 -0.6663 -0.1818 -1.0538
17554TIP3   OH274076   1.946   0.645   1.120  0.5889 -0.5664  0.4103
17554TIP3    H174077   1.896   0.713   1.165 -0.9929 -1.2867 -0.1625
17554TIP3    H274078   2.037   0.673   1.126  0.1817  0.5379  1.9871
17555TIP3   OH274079   5.889   3.061   1.766  0.2100 -0.4700  0.2284
17555TIP3    H174080   5.836   3.002   1.712 -1.7829  2.3325 -1.0930
17555TIP3    H274081   5.961   3.006   1.797 -1.1475 -3.4087 -1.3920
17556TIP3   OH274082   5.302   4.144  13.037 -0.2213 -0.4112 -0.4562
17556TIP3    H174083   5.374   4.083  13.055  0.5082  0.6977  0.5578
17556TIP3    H274084   5.255   4.151  13.120 -0.2127  0.4928 -0.5137
17557TIP3   OH274085   6.022   4.506   4.680 -0.0126 -0.0981  1.0569
17557TIP3    H174086   6.020   4.419   4.641  0.5070  0.7739 -1.0393
17557TIP3    H274087   6.107   4.511   4.723  0.0020 -0.5738  1.0872
17558TIP3   OH274088   2.336   4.338   5.062 -0.5565 -0.0913 -0.2574
17558TIP3    H174089   2.309   4.246   5.060 -1.5009  0.1700 -0.0851
17558TIP3    H274090   2.345   4.359   5.155 -1.6497  0.3397 -0.2282
17559TIP3   OH274091   1.521   0.190  12.828 -0.0311  0.0528  0.6149
17559TIP3    H174092   1.598   0.237  12.861  0.3336  0.8809 -1.3024
17559TIP3    H274093   1.457   0.259  12.809 -1.1511 -0.5963  1.8309
17560TIP3   OH274094   1.454   6.632   2.706 -0.7604  0.3136 -1.1207
17560TIP3    H174095   1.375   6.594   2.666 -0.0111 -0.7096 -1.6809
17560TIP3    H274096   1.524   6.608   2.646  0.0781  0.6340 -0.2841
17561TIP3   OH274097   0.763   5.811  10.251 -0.3774 -0.4065 -0.4347
17561TIP3    H174098   0.691   5.875  10.251 -0.3013 -0.3212 -1.2461
17561TIP3    H274099   0.842   5.864  10.239 -0.1110 -0.4410  0.9773
17562TIP3   OH274100   0.447   6.640  13.527 -0.5274  0.1009 -0.0306
17562TIP3    H174101   0.522   6.581  13.536 -0.1100  0.6248  0.0039
17562TIP3    H274102   0.468   6.714  13.584 -0.6298  0.6870 -0.7309
17563TIP3   OH274103   5.068   4.555  12.135  0.1149 -0.2446 -0.0023
17563TIP3    H174104   5.007   4.623  12.162  0.3546  0.0252 -0.1445
17563TIP3    H274105   5.141   4.561  12.197 -1.0695 -2.1571  1.7265
17564TIP3   OH274106   2.301   6.145   2.917  0.2459 -0.4240  0.1445
17564TIP3    H174107   2.254   6.093   2.981 -1.0117  0.1568 -0.2810
17564TIP3    H274108   2.330   6.223   2.966 -0.1027 -0.3131  0.1749
17565TIP3   OH274109   2.317   2.447   3.784 -0.3764 -0.0095  0.1153
17565TIP3    H174110   2.272   2.365   3.762  0.1582 -0.5136  0.8519
17565TIP3    H274111   2.330   2.491   3.700 -0.1985 -0.9342 -0.3529
17566TIP3   OH274112   4.109   2.253  12.205  0.1550  0.6701 -0.1729
17566TIP3    H174113   4.130   2.197  12.130  1.0938  0.8243 -0.0334
17566TIP3    H274114   4.136   2.341  12.179 -3.8022  1.7064 -1.4954
17567TIP3   OH274115   6.260   2.194  15.446  0.4726 -0.1270 -0.6295
17567TIP3    H174116   6.321   2.265  15.431  2.0462 -1.3183 -0.1303
17567TIP3    H274117   6.311   2.114  15.433 -0.1460 -1.2155  2.5395
17568TIP3   OH274118   2.759   3.940  12.216 -0.3349 -0.5450 -0.9352
17568TIP3    H174119   2.682   3.972  12.263  0.2772 -0.4097 -0.0080
17568TIP3    H274120   2.806   4.018  12.189 -0.4110 -0.6281 -1.3084
17569TIP3   OH274121   2.487   1.419  12.032 -0.0805  0.1459  0.5306
17569TIP3    H174122   2.556   1.467  11.985 -0.2638  0.0458  0.1582
17569TIP3    H274123   2.518   1.329  12.036 -0.2195  0.0908  0.3160
17570TIP3   OH274124   4.745   0.552  13.006  0.0096 -0.0001  0.5650
17570TIP3    H174125   4.690   0.543  12.928 -0.4716  2.6353  0.5123
17570TIP3    H274126   4.689   0.523  13.078  0.2591 -1.8973  0.0628
17571TIP3   OH274127   3.975   4.496   2.135  0.4482 -0.3999  0.1638
17571TIP3    H174128   3.975   4.569   2.197 -0.1963 -0.8035  0.6487
17571TIP3    H274129   3.901   4.514   2.077  0.2822 -0.6712  0.2902
17572TIP3   OH274130   4.775   6.134   0.011  1.5131  0.1986  0.6998
17572TIP3    H174131   4.691   6.169   0.040  1.8674 -0.6629  2.9829
17572TIP3    H274132   4.763   6.116  -0.082 -0.6847  0.5102  0.8712
17573TIP3   OH274133   2.578   2.651  13.438  0.1841 -0.6451  0.5170
17573TIP3    H174134   2.666   2.613  13.432  0.2100 -0.3553 -1.7321
17573TIP3    H274135   2.519   2.576  13.434  0.3091 -0.7151 -0.1443
17574TIP3   OH274136   0.150   1.315  11.970 -0.7902  0.0911  0.0010
17574TIP3    H174137   0.108   1.237  11.936  0.7050 -0.6313 -0.2651
17574TIP3    H274138   0.229   1.326  11.916 -0.2094  0.9331  0.9669
17575TIP3   OH274139   6.549   2.410   4.527  0.2777 -0.1449  0.8377
17575TIP3    H174140   6.482   2.355   4.567  1.0350 -2.5278 -0.9226
17575TIP3    H274141   6.501   2.468   4.468 -0.3388 -1.3274  0.1341
17576TIP3   OH274142   1.667   0.026  15.326 -0.1971  0.2945 -0.4397
17576TIP3    H174143   1.634  -0.041  15.265  0.6192 -0.4325 -0.1027
17576TIP3    H274144   1.697  -0.024  15.401  1.1989  0.9737 -0.5222
17577TIP3   OH274145   1.061   4.757  13.870 -0.0112  0.3390  0.0427
17577TIP3    H174146   1.095   4.795  13.951 -1.2882 -0.9751  1.2637
17577TIP3    H274147   1.087   4.665  13.874 -0.0930  0.2540 -1.0504
17578TIP3   OH274148   4.138   2.966  12.097  0.2030  0.4406  0.5142
17578TIP3    H174149   4.073   3.027  12.132 -1.0560 -0.5116 -0.0661
17578TIP3    H274150   4.146   2.990  12.005 -0.2018 -0.1500  0.3142
17579TIP3   OH274151   5.308   6.064   0.385 -0.3817  0.0188 -0.3040
17579TIP3    H174152   5.319   6.019   0.302  3.4189 -0.1942  0.1550
17579TIP3    H274153   5.304   5.994   0.451  1.1757  0.2061  0.0276
17580TIP3   OH274154   5.422   5.605  10.851 -0.0067 -0.1509 -0.5425
17580TIP3    H174155   5.336   5.639  10.828 -0.5081 -1.4787 -0.7007
17580TIP3    H274156   5.426   5.519  10.810  0.4658 -1.0924  1.3447
17581TIP3   OH274157   3.517   1.737  14.950  0.3473  0.4510  0.0593
17581TIP3    H174158   3.426   1.723  14.925  0.3507  0.7049 -0.0907
17581TIP3    H274159   3.567   1.685  14.886  0.2899 -0.0591  0.4205
17582TIP3   OH274160   0.592   0.439   4.521  0.0422  0.2938  0.1229
17582TIP3    H174161   0.539   0.519   4.529  0.6887  0.5549  2.5601
17582TIP3    H274162   0.633   0.446   4.435 -0.9137  1.9451 -0.2443
17583TIP3   OH274163   3.664   0.996   4.121  0.5283  0.1755 -0.1036
17583TIP3    H174164   3.668   1.012   4.215  1.2218  0.4727 -0.1739
17583TIP3    H274165   3.612   0.917   4.112  1.2961 -0.4329  0.6003
17584TIP3   OH274166   4.550   5.493   4.397  0.1134 -0.0496 -0.6489
17584TIP3    H174167   4.463   5.475   4.363  0.0039  0.6950 -0.7875
17584TIP3    H274168   4.551   5.454   4.485 -0.1221 -0.6494 -0.9096
17585TIP3   OH274169   3.050   4.744  14.866  0.1275 -0.1873  0.0178
17585TIP3    H174170   3.134   4.776  14.835 -0.2861  0.3656 -0.5757
17585TIP3    H274171   2.998   4.823  14.881 -0.6579 -0.5363 -0.7299
17586TIP3   OH274172   3.571   1.636  12.313  0.0017  0.1527  0.5477
17586TIP3    H174173   3.581   1.701  12.243 -0.9984 -0.1906  0.0640
17586TIP3    H274174   3.594   1.683  12.393  0.9776  0.6102  0.0206
17587TIP3   OH274175   1.284   6.065  11.732 -0.2342 -0.1949  0.5964
17587TIP3    H174176   1.332   6.055  11.814  0.5100  1.4288  0.3945
17587TIP3    H274177   1.192   6.050  11.756 -0.0546  0.4465  1.7632
17588TIP3   OH274178   2.377   3.575  16.533  0.0111  0.1181  0.0829
17588TIP3    H174179   2.320   3.622  16.594  0.7231  1.3172 -0.1424
17588TIP3    H274180   2.465   3.604  16.554  0.4079 -0.5972 -0.5309
17589TIP3   OH274181   6.400   6.766  16.839 -0.6960  0.0394  0.0581
17589TIP3    H174182   6.333   6.721  16.890 -1.6059  1.4831  0.1843
17589TIP3    H274183   6.483   6.738  16.879 -1.2412 -1.0831  0.4547
17590TIP3   OH274184   3.994   4.370   1.386  0.8620  0.2606  0.4047
17590TIP3    H174185   4.059   4.369   1.456  2.2408  2.6775 -0.7193
17590TIP3    H274186   4.040   4.333   1.310  0.9373  1.8194 -0.3526
17591TIP3   OH274187   1.685   5.371   2.170  0.3179  0.0777  0.1226
17591TIP3    H174188   1.658   5.281   2.188  0.1133 -0.2416 -1.5964
17591TIP3    H274189   1.623   5.425   2.219  1.8098 -0.6765  3.0054
17592TIP3   OH274190   6.329   4.909   4.051 -0.1665  0.5796  0.3930
17592TIP3    H174191   6.247   4.925   4.004  0.4873 -0.7845 -1.3176
17592TIP3    H274192   6.384   4.985   4.030  0.1604 -0.0760 -1.1853
17593TIP3   OH274193   4.618   1.785   2.682 -0.1606  0.6755 -0.2582
17593TIP3    H174194   4.585   1.712   2.735 -1.3933  0.8805 -0.7019
17593TIP3    H274195   4.651   1.744   2.602  1.1551  0.4215  0.3933
17594TIP3   OH274196   1.722   5.482   3.439 -0.2379 -0.1306  0.1058
17594TIP3    H174197   1.645   5.537   3.453 -0.5346  0.2119 -2.4241
17594TIP3    H274198   1.721   5.463   3.345  1.3862 -2.2118  0.4406
17595TIP3   OH274199   2.422   4.673  13.574 -0.5143  0.1777 -0.4828
17595TIP3    H174200   2.339   4.711  13.545 -0.9048  1.6645  2.2818
17595TIP3    H274201   2.464   4.742  13.625  0.0348 -2.1232  2.4399
17596TIP3   OH274202   2.410   5.846   4.605  0.1524  0.3053  0.1058
17596TIP3    H174203   2.346   5.908   4.639 -0.2537  0.3285 -0.6832
17596TIP3    H274204   2.420   5.870   4.513 -1.9609 -2.3979 -0.9476
17597TIP3   OH274205   1.142   3.080  15.608 -0.2371  0.4005 -0.2446
17597TIP3    H174206   1.165   3.084  15.515 -2.6808 -1.2718 -1.0172
17597TIP3    H274207   1.187   3.001  15.639 -0.4436  0.2495 -0.3294
17598TIP3   OH274208   0.413   2.145  12.092  0.3179  0.2302  0.5927
17598TIP3    H174209   0.473   2.158  12.018 -0.8709  0.3711 -0.3834
17598TIP3    H274210   0.437   2.060  12.128 -0.7189 -1.1102 -1.6110
17599TIP3   OH274211   4.891   6.179  16.449  0.1652 -0.2500  0.0307
17599TIP3    H174212   4.929   6.246  16.392  0.7146  1.4400  2.2399
17599TIP3    H274213   4.910   6.097  16.405  2.1198  0.8574 -1.3677
17600TIP3   OH274214   3.067   2.283   4.798  0.2552 -0.6107  0.2472
17600TIP3    H174215   3.002   2.352   4.808  2.3839  1.4850  0.4478
17600TIP3    H274216   3.031   2.225   4.731 -2.5473 -0.5232  1.5402
17601TIP3   OH274217   6.342   6.748   2.444 -0.4888 -0.0720  0.5167
17601TIP3    H174218   6.247   6.737   2.447 -0.5863  0.1760 -0.9898
17601TIP3    H274219   6.374   6.674   2.393 -0.2323  1.5224 -1.7711
17602TIP3   OH274220   0.378   4.878  14.212 -0.3131  0.3808 -0.1461
17602TIP3    H174221   0.335   4.800  14.249 -1.1386  1.0572  0.3609
17602TIP3    H274222   0.315   4.913  14.149  0.7330 -0.2674 -1.6065
17603TIP3   OH274223   1.036   6.289   5.145  0.6575  0.1924 -0.6946
17603TIP3    H174224   1.118   6.338   5.144  0.6006  0.2844 -0.9887
17603TIP3    H274225   0.996   6.310   5.229  1.6118 -0.9862  0.0870
17604TIP3   OH274226   0.885   1.784  12.992 -0.0750 -0.0782 -0.0190
17604TIP3    H174227   0.843   1.800  12.907  1.0058  1.2225 -0.3462
17604TIP3    H274228   0.845   1.848  13.051 -0.8852 -1.0346  0.5126
17605TIP3   OH274229   6.163   4.084   0.619  0.0905 -0.6775 -0.8938
17605TIP3    H174230   6.132   4.171   0.596  0.6551 -0.5081 -1.0206
17605TIP3    H274231   6.091   4.026   0.595 -0.1953 -0.2725 -1.0216
17606TIP3   OH274232   3.577   3.507  12.062  0.6357  0.1040  0.2407
17606TIP3    H174233   3.615   3.573  12.120  0.2917 -0.0109  0.5992
17606TIP3    H274234   3.484   3.530  12.057  0.6589  0.1038 -0.2517
17607TIP3   OH274235   1.142   5.879  13.221  0.0309 -0.4573  0.0001
17607TIP3    H174236   1.207   5.914  13.282  0.4531  0.5532 -0.9870
17607TIP3    H274237   1.089   5.955  13.197 -1.1747 -1.1660  0.3610
17608TIP3   OH274238   1.862   0.721  16.461 -0.2736 -0.8269 -0.2735
17608TIP3    H174239   1.937   0.735  16.405  0.2024  0.4957  0.6546
17608TIP3    H274240   1.801   0.669  16.407  0.2767  0.1295 -1.8847
17609TIP3   OH274241   3.404   4.472  14.605  0.3642  0.5105 -0.4142
17609TIP3    H174242   3.315   4.440  14.590  0.8737 -0.3395 -1.7904
17609TIP3    H274243   3.448   4.459  14.521  2.9740 -2.9642  1.2563
17610TIP3   OH274244   3.341   4.619   4.667 -0.1548 -0.2650  0.2399
17610TIP3    H174245   3.293   4.659   4.740 -1.0700 -0.6032 -0.1658
17610TIP3    H274246   3.395   4.551   4.708  0.7922  0.8042  0.8286
17611TIP3   OH274247   3.438   2.149  12.547  0.6968 -0.3520  0.0806
17611TIP3    H174248   3.493   2.152  12.625  1.8723  2.2366 -0.7439
17611TIP3    H274249   3.492   2.103  12.482  0.3627 -1.0850  0.3118
17612TIP3   OH274250   3.920   1.829  13.310 -0.3221  0.2117 -0.4682
17612TIP3    H174251   3.842   1.783  13.281 -1.2303  2.2635 -1.4622
17612TIP3    H274252   3.978   1.828  13.233 -1.4348  2.8670 -1.4967
17613TIP3   OH274253   1.867   6.373   5.176  0.2002  0.3499  0.9115
17613TIP3    H174254   1.906   6.375   5.089 -0.0826  0.6684  0.7872
17613TIP3    H274255   1.787   6.426   5.167 -1.0162 -1.4129  0.7888
17614TIP3   OH274256   0.597   1.703   5.949 -0.1874 -0.2751 -0.0026
17614TIP3    H174257   0.683   1.719   5.987 -1.0835  0.9032  1.6860
17614TIP3    H274258   0.543   1.674   6.023 -1.5529  0.2559 -0.7382
17615TIP3   OH274259   2.204   1.001  14.854  0.2141  0.0868  0.4841
17615TIP3    H174260   2.252   1.082  14.872  2.6377 -1.0236 -0.4497
17615TIP3    H274261   2.226   0.943  14.928  2.1043 -1.1257 -0.9365
17616TIP3   OH274262   3.730   4.824  12.962  0.3181 -0.1686 -0.1965
17616TIP3    H174263   3.822   4.805  12.942  0.2410 -0.5680 -0.1770
17616TIP3    H274264   3.724   4.815  13.057  0.5730  1.2483 -0.0294
17617TIP3   OH274265   6.717   0.634   5.711  0.5270 -0.4664  0.1949
17617TIP3    H174266   6.709   0.670   5.799  1.5250 -1.4275  0.7089
17617TIP3    H274267   6.788   0.684   5.671  1.6555 -1.5520  0.7761
17618TIP3   OH274268   1.658   2.417   3.854  0.0205 -0.4427 -0.3832
17618TIP3    H174269   1.564   2.433   3.848  0.3390  1.2553 -2.2500
17618TIP3    H274270   1.684   2.457   3.937 -0.2302  3.9210 -2.1435
17619TIP3   OH274271   5.080   5.058   5.878  0.2360 -0.0452  0.0654
17619TIP3    H174272   5.030   5.133   5.844 -0.1277 -0.6440 -0.7647
17619TIP3    H274273   5.052   5.050   5.969  0.0966  0.6797  0.0917
17620TIP3   OH274274   1.416   1.077   1.118 -0.0160 -0.4163 -0.0001
17620TIP3    H174275   1.333   1.029   1.115 -0.0703 -0.4341  1.1468
17620TIP3    H274276   1.434   1.100   1.027 -1.5296  0.0292 -0.2095
17621TIP3   OH274277   4.092   1.469  15.365 -0.4841 -0.1424 -0.2428
17621TIP3    H174278   4.064   1.475  15.273 -2.0831 -0.8167  0.1719
17621TIP3    H274279   4.094   1.560  15.395 -1.7836 -0.0325 -0.4355
17622TIP3   OH274280   4.458   1.573   0.347  0.0174 -0.1700 -0.4846
17622TIP3    H174281   4.458   1.635   0.420  0.8336  0.2328 -0.8057
17622TIP3    H274282   4.530   1.513   0.367 -1.8295 -2.1218  0.6968
17623TIP3   OH274283   2.682   5.543   5.951  0.2449  0.0155  0.2601
17623TIP3    H174284   2.606   5.587   5.914  0.1459 -0.2613  0.1299
17623TIP3    H274285   2.649   5.458   5.981  1.0427 -1.4041 -2.5045
17624TIP3   OH274286   4.206   2.066   1.545 -0.0514 -0.3557 -0.1678
17624TIP3    H174287   4.241   2.082   1.633 -0.3664  0.1884 -0.1394
17624TIP3    H274288   4.114   2.092   1.550  0.2545  1.0051 -1.0182
17625TIP3   OH274289   6.572   4.022  14.951  0.4420 -0.0190  0.3900
17625TIP3    H174290   6.563   3.927  14.960 -0.3950 -0.0476 -0.6128
17625TIP3    H274291   6.561   4.056  15.040  1.1731 -0.8789  0.8286
17626TIP3   OH274292   2.466   0.400   0.840  0.2978 -0.2875  0.5374
17626TIP3    H174293   2.375   0.372   0.849 -0.8136  2.9708  0.4925
17626TIP3    H274294   2.493   0.425   0.928  0.1815  1.3434  0.1358
17627TIP3   OH274295   6.470   1.608   2.670 -0.1199  0.5614 -0.3596
17627TIP3    H174296   6.430   1.669   2.732  2.0314  1.6950  0.0448
17627TIP3    H274297   6.531   1.557   2.722  0.4079  0.2807 -1.2186
17628TIP3   OH274298   3.531   0.150  15.182 -0.2414  0.0531  0.3386
17628TIP3    H174299   3.525   0.112  15.269 -0.1309 -1.3728 -0.2324
17628TIP3    H274300   3.482   0.089  15.126 -0.0838  0.7894 -0.6337
17629TIP3   OH274301   5.334   3.395   1.626 -0.2432 -0.1886 -0.5524
17629TIP3    H174302   5.321   3.456   1.554  1.2844  0.5860 -0.2048
17629TIP3    H274303   5.251   3.397   1.674 -0.9635 -0.0359 -1.7506
17630TIP3   OH274304   6.431   2.388  14.923 -0.1909  0.0075 -0.3920
17630TIP3    H174305   6.405   2.451  14.856  0.7208 -0.4507 -1.2106
17630TIP3    H274306   6.490   2.327  14.877 -1.2473 -1.6104  0.2976
17631TIP3   OH274307   0.708   5.575   0.427  0.2347 -0.0543 -0.2625
17631TIP3    H174308   0.632   5.631   0.408 -0.5614 -1.3254 -1.0413
17631TIP3    H274309   0.679   5.488   0.400  1.9219 -0.6009 -0.3767
17632TIP3   OH274310   5.896   6.596  11.594 -0.4578 -0.5261  0.0463
17632TIP3    H174311   5.989   6.615  11.582 -0.1747 -1.5663  0.4778
17632TIP3    H274312   5.854   6.628  11.514  0.3155 -0.3727 -0.3089
17633TIP3   OH274313   1.153   1.362   2.212 -0.2073  0.4908  0.1924
17633TIP3    H174314   1.223   1.297   2.219  0.1945  0.8310 -0.5552
17633TIP3    H274315   1.077   1.312   2.180  0.2140  0.4454 -0.7850
17634TIP3   OH274316   0.863   1.808   5.398  0.5034 -0.3674  0.0591
17634TIP3    H174317   0.810   1.885   5.379  0.6056 -0.0697  0.9477
17634TIP3    H274318   0.936   1.841   5.450  0.0875 -1.1793  1.1998
17635TIP3   OH274319   1.146   3.451  14.580 -0.0654 -0.2893  0.1845
17635TIP3    H174320   1.097   3.528  14.552 -1.4332 -1.1435  0.1860
17635TIP3    H274321   1.201   3.429  14.505 -0.9854 -0.3620 -0.4850
17636TIP3   OH274322   4.596   5.899  12.229  0.4855  0.7630  0.3755
17636TIP3    H174323   4.565   5.911  12.139  0.7716  2.2505  0.4418
17636TIP3    H274324   4.517   5.905  12.283  0.3678  0.3029  0.2544
17637TIP3   OH274325   6.455   1.105   3.472 -0.4483 -0.1513  0.0973
17637TIP3    H174326   6.430   1.194   3.445 -0.6767 -0.1018  0.4579
17637TIP3    H274327   6.479   1.061   3.391 -1.4336 -0.1079 -0.2372
17638TIP3   OH274328   1.469   0.184   5.476  1.1664 -0.1997 -0.4538
17638TIP3    H174329   1.437   0.269   5.447  1.6911 -0.4896 -1.9739
17638TIP3    H274330   1.392   0.128   5.477  0.8295  0.2607  0.4949
17639TIP3   OH274331   6.545   5.957  10.428 -0.1415  0.1053 -0.3229
17639TIP3    H174332   6.582   6.002  10.505  0.1379  1.2717 -1.1194
17639TIP3    H274333   6.598   5.877  10.420 -0.4470 -0.2609  0.9326
17640TIP3   OH274334   2.080   5.576   5.831 -0.3108 -0.0280  0.3115
17640TIP3    H174335   2.142   5.507   5.807  0.0562  0.0654  0.9597
17640TIP3    H274336   2.011   5.571   5.764  0.9655  0.6274 -1.1146
17641TIP3   OH274337   6.414   6.499   2.319  0.5508 -0.5977  0.1521
17641TIP3    H174338   6.498   6.463   2.289  1.3581 -0.0890  1.6595
17641TIP3    H274339   6.358   6.422   2.331 -0.3298 -0.7865 -3.7568
17642TIP3   OH274340   3.788   6.523  17.158 -0.0052  0.3630  0.2331
17642TIP3    H174341   3.772   6.431  17.180  1.6058 -0.2178 -0.8265
17642TIP3    H274342   3.742   6.536  17.075 -1.6666  1.0434  1.2138
17643TIP3   OH274343   3.876   6.315  14.750 -0.4815 -0.4120  0.0569
17643TIP3    H174344   3.791   6.274  14.735  0.0055 -1.8953  1.1034
17643TIP3    H274345   3.867   6.403  14.715 -1.8424 -1.1450 -1.5594
17644TIP3   OH274346   1.654   0.799   5.758  0.5262  0.3504  0.5315
17644TIP3    H174347   1.632   0.724   5.813 -1.3807  0.9140  0.6356
17644TIP3    H274348   1.726   0.769   5.703 -0.3178 -1.6377  0.4282
17645TIP3   OH274349   2.695   4.366   1.043 -0.2670 -0.0842  0.6377
17645TIP3    H174350   2.646   4.302   1.096 -0.1876 -1.1839 -0.5618
17645TIP3    H274351   2.632   4.396   0.977  0.1099 -0.0353  0.2974
17646TIP3   OH274352   3.164   3.224   1.408  0.2177  0.3635 -0.2897
17646TIP3    H174353   3.188   3.316   1.410  1.8375 -0.0037 -1.3389
17646TIP3    H274354   3.082   3.221   1.359  0.0243  1.2585 -0.0373
17647TIP3   OH274355   0.225   2.450   3.513  0.3557  0.2664 -0.1300
17647TIP3    H174356   0.131   2.434   3.520  0.3238 -0.3661 -1.6328
17647TIP3    H274357   0.236   2.542   3.534 -0.7469  0.6226 -1.0467
17648TIP3   OH274358   1.120   3.531   6.101 -0.2802  0.1651 -0.1619
17648TIP3    H174359   1.183   3.577   6.045 -0.2758 -0.4643 -0.6948
17648TIP3    H274360   1.104   3.591   6.174  1.5785  0.0051  0.4276
17649TIP3   OH274361   6.607   3.531  12.433 -0.0205  0.3041  0.3999
17649TIP3    H174362   6.541   3.583  12.387  0.1856  0.7477  0.5911
17649TIP3    H274363   6.646   3.593  12.496 -1.5989 -0.7283  2.5254
17650TIP3   OH274364   4.400   0.174   4.326 -0.2538  0.7582  0.1635
17650TIP3    H174365   4.494   0.159   4.326 -0.5495 -1.4272 -0.3067
17650TIP3    H274366   4.369   0.133   4.406 -0.8393  1.4421  0.3012
17651TIP3   OH274367   1.571   5.023  12.269 -0.8478 -0.1080  0.3164
17651TIP3    H174368   1.604   5.113  12.269 -0.0379 -0.3897  0.4031
17651TIP3    H274369   1.623   4.980  12.201  1.1675 -1.3236  2.4526
17652TIP3   OH274370   1.226   5.875   1.287  1.0255  0.0866 -0.1762
17652TIP3    H174371   1.278   5.920   1.354  3.7921  0.7137 -2.5014
17652TIP3    H274372   1.153   5.935   1.269  0.7561  0.3322  1.5591
17653TIP3   OH274373   0.716   1.591   2.128  0.3913  0.3854 -0.3559
17653TIP3    H174374   0.696   1.652   2.057 -1.3670  2.1047  1.5069
17653TIP3    H274375   0.788   1.632   2.175 -0.2052  0.5768  0.3930
17654TIP3   OH274376   6.482   2.129   2.585 -0.4285 -0.5664 -0.0766
17654TIP3    H174377   6.486   2.143   2.490  0.6234 -1.0722 -0.1300
17654TIP3    H274378   6.390   2.135   2.607 -0.6736 -0.3262 -1.1222
17655TIP3   OH274379   4.859   4.749  15.869  0.2519  0.4662  0.0853
17655TIP3    H174380   4.863   4.844  15.880  1.3923  0.4296  0.1555
17655TIP3    H274381   4.951   4.721  15.875  0.0763 -0.4893 -1.2622
17656TIP3   OH274382   6.242   2.537  12.356  0.5005 -0.7783  0.3017
17656TIP3    H174383   6.184   2.589  12.300 -0.1233 -0.6671  1.0384
17656TIP3    H274384   6.328   2.577  12.343  0.4068 -0.8645 -0.7041
17657TIP3   OH274385   3.980   2.298   4.025 -0.3114 -0.2471  0.5887
17657TIP3    H174386   3.950   2.389   4.017  2.0977  0.5511  0.0240
17657TIP3    H274387   4.063   2.304   4.072  1.0189 -1.9135 -1.4224
17658TIP3   OH274388   5.740   2.185   0.593  0.6639 -0.0932 -0.2402
17658TIP3    H174389   5.820   2.190   0.541 -0.0336  1.2242 -1.2471
17658TIP3    H274390   5.693   2.266   0.574 -1.0874 -0.9759  0.0562
17659TIP3   OH274391   5.330   3.998  16.006  0.5848  0.1271 -0.6368
17659TIP3    H174392   5.356   4.054  16.080  0.5560  0.4489 -0.8657
17659TIP3    H274393   5.413   3.969  15.968  0.5976 -0.2156 -0.3453
17660TIP3   OH274394   2.172   2.980   6.114  0.1115 -0.0163 -0.1496
17660TIP3    H174395   2.199   2.999   6.204 -0.7033 -1.1551  0.3635
17660TIP3    H274396   2.231   3.032   6.060  0.7089  0.5871  1.0359
17661TIP3   OH274397   0.644   3.903   0.573  0.4813  0.1041 -0.3674
17661TIP3    H174398   0.585   3.944   0.636  0.4512  0.0792 -0.3797
17661TIP3    H274399   0.600   3.913   0.488  0.1284 -0.6170 -0.2692
17662TIP3   OH274400   3.208   1.992  13.775 -0.2841 -0.4476 -0.1749
17662TIP3    H174401   3.246   2.031  13.696  0.6524  0.2486  0.6059
17662TIP3    H274402   3.116   2.019  13.772 -0.6389 -1.6744 -1.7767
17663TIP3   OH274403   2.002   4.773   5.656  0.3271 -0.2898  0.3789
17663TIP3    H174404   2.043   4.774   5.569  1.6397 -1.8618  0.9373
17663TIP3    H274405   1.929   4.835   5.648 -0.2234 -1.1210 -2.1606
17664TIP3   OH274406   5.168   2.495  16.154 -0.0638 -0.6107  0.2828
17664TIP3    H174407   5.110   2.439  16.103  1.1288 -1.6211 -0.0202
17664TIP3    H274408   5.246   2.441  16.169  1.0209  0.8669  0.2097
17665TIP3   OH274409   0.518   6.417   3.376 -0.2287 -0.2024  0.0057
17665TIP3    H174410   0.443   6.466   3.343 -0.7520 -1.4181 -0.6792
17665TIP3    H274411   0.510   6.422   3.471  0.9661  2.8551  0.0720
17666TIP3   OH274412   1.504   0.554   6.629 -0.9917 -0.1636  0.2289
17666TIP3    H174413   1.568   0.624   6.641  1.0187 -1.9587  0.6592
17666TIP3    H274414   1.521   0.520   6.541 -1.7071 -0.3339  0.1492
17667TIP3   OH274415   4.366   6.539   2.732 -0.2675 -0.2761  0.0790
17667TIP3    H174416   4.403   6.499   2.653 -2.0229  1.2221 -1.6131
17667TIP3    H274417   4.442   6.559   2.786  1.2249  0.2890 -2.0748
17668TIP3   OH274418   4.727   5.611  11.505  0.1444 -0.0605  0.6427
17668TIP3    H174419   4.726   5.607  11.601  0.2225  0.7514  0.6834
17668TIP3    H274420   4.751   5.702  11.485 -0.9967  0.0825 -0.1412
17669TIP3   OH274421   0.005   3.002  11.499 -0.4854  0.1406 -0.3723
17669TIP3    H174422   0.054   2.923  11.479 -2.3051 -0.7993 -1.3294
17669TIP3    H274423  -0.001   3.049  11.415 -1.5125  0.0525 -0.3620
17670TIP3   OH274424   3.176   4.140   0.135 -0.4279 -0.0909 -0.5564
17670TIP3    H174425   3.156   4.078   0.205  0.6889  0.6170  0.4239
17670TIP3    H274426   3.252   4.103   0.091 -1.2129 -0.6077 -1.5199
17671TIP3   OH274427   5.355   1.081   2.535  0.2049  0.3258 -0.6290
17671TIP3    H174428   5.303   1.019   2.587 -0.3219 -0.0940 -1.6398
17671TIP3    H274429   5.323   1.070   2.446 -0.0362  2.1855 -0.8119
17672TIP3   OH274430   5.821   4.001   0.251  0.3188 -0.1345 -0.3137
17672TIP3    H174431   5.875   4.079   0.261 -1.9971  1.7657 -1.6223
17672TIP3    H274432   5.803   3.997   0.157 -1.9459 -0.5417  0.0832
17673TIP3   OH274433   5.564   2.310   4.941  0.2172 -0.5563  0.2922
17673TIP3    H174434   5.633   2.335   5.002 -1.1767  0.6251  1.4720
17673TIP3    H274435   5.577   2.366   4.865  0.4635 -0.2027  0.5887
17674TIP3   OH274436   1.207   3.970   1.744  0.1264  0.0082 -0.9991
17674TIP3    H174437   1.162   3.886   1.745 -0.8705  0.5056  0.9167
17674TIP3    H274438   1.145   4.031   1.782  0.7795  1.6792 -2.4812
17675TIP3   OH274439   4.497   4.291   0.797 -0.3365  0.5901  0.1900
17675TIP3    H174440   4.450   4.211   0.774 -0.6333  0.7114  0.3679
17675TIP3    H274441   4.436   4.362   0.776 -0.5341  0.7155  1.1371
17676TIP3   OH274442   2.791   6.087  15.177 -0.1666 -0.3054  0.1903
17676TIP3    H174443   2.751   6.003  15.158  0.1680 -0.4842  0.2585
17676TIP3    H274444   2.885   6.068  15.183 -0.2291 -0.2340  1.8253
17677TIP3   OH274445   2.395   5.403   4.975 -0.2281 -0.2334  0.5589
17677TIP3    H174446   2.442   5.326   5.005 -2.5854 -1.3812  1.5315
17677TIP3    H274447   2.461   5.473   4.976  1.5499 -1.8339  1.3088
17678TIP3   OH274448   2.773   5.270   2.562 -0.3782  0.2407  0.3539
17678TIP3    H174449   2.867   5.277   2.579 -0.6402  1.6303  1.4523
17678TIP3    H274450   2.767   5.238   2.472  1.1438  0.2609  0.2191
17679TIP3   OH274451   0.868   0.842   0.510  0.1437 -0.1839 -0.4805
17679TIP3    H174452   0.914   0.858   0.427 -0.6738  1.8929 -0.5784
17679TIP3    H274453   0.904   0.906   0.570  0.3751 -1.3596  0.6837
17680TIP3   OH274454   5.456   4.700  13.775 -0.2498 -0.3494 -0.4450
17680TIP3    H174455   5.486   4.791  13.776  1.8657 -1.0042 -0.8982
17680TIP3    H274456   5.512   4.656  13.711 -0.7270 -2.1528  0.3092
17681TIP3   OH274457   0.464   5.287   2.699  0.0219  0.2033  0.3508
17681TIP3    H174458   0.432   5.209   2.652 -2.4539  0.9718  0.6021
17681TIP3    H274459   0.422   5.282   2.785  1.2813  0.9106  1.0325
17682TIP3   OH274460   2.642   6.427   0.359 -0.1055  0.3751 -0.2767
17682TIP3    H174461   2.624   6.521   0.368 -4.3147 -0.3053  0.2542
17682TIP3    H274462   2.624   6.409   0.266 -0.7412 -0.1053 -0.0676
17683TIP3   OH274463   4.087   4.036  13.556  0.6489 -0.4528  0.0922
17683TIP3    H174464   4.092   3.985  13.475  0.6863  1.0443 -0.8957
17683TIP3    H274465   3.997   4.023  13.587  1.1481 -2.4608  0.8204
17684TIP3   OH274466   5.137   2.476   4.418 -0.2498  0.4400 -0.4240
17684TIP3    H174467   5.096   2.542   4.474 -0.9707 -0.2152 -0.1460
17684TIP3    H274468   5.083   2.398   4.431  1.3708 -0.6254  0.3401
17685TIP3   OH274469   1.842   0.498  17.083  0.7472 -0.2409  0.2666
17685TIP3    H174470   1.759   0.538  17.057  0.6180 -0.6215  0.0798
17685TIP3    H274471   1.817   0.431  17.147  0.7369 -1.3745 -0.8738
17686TIP3   OH274472   0.868   3.698  15.454  0.6367 -0.3136  0.3182
17686TIP3    H174473   0.816   3.769  15.491  0.5269 -0.5650  0.6510
17686TIP3    H274474   0.827   3.618  15.488  0.6858 -0.5409 -0.1452
17687TIP3   OH274475   5.882   1.083   1.886 -0.4169  0.2383 -0.1401
17687TIP3    H174476   5.908   0.991   1.891 -0.7043  0.0717 -1.3917
17687TIP3    H274477   5.797   1.086   1.929 -0.2458 -0.0127  0.2188
17688TIP3   OH274478   5.316   4.980  13.960  0.2265 -0.0263 -0.6216
17688TIP3    H174479   5.275   4.944  13.881  0.7505 -1.5251 -0.2440
17688TIP3    H274480   5.254   4.959  14.030 -0.3052  1.4298 -0.6202
17689TIP3   OH274481   5.963   1.616  16.801  0.0781  0.2252  0.2109
17689TIP3    H174482   5.870   1.620  16.820 -0.0591  0.0429 -0.4223
17689TIP3    H274483   6.005   1.633  16.886 -0.5238  1.5219  0.2802
17690TIP3   OH274484   0.878   3.540   2.162 -0.4091 -0.0163 -0.2329
17690TIP3    H174485   0.891   3.567   2.072 -1.4311 -1.1630 -0.7529
17690TIP3    H274486   0.948   3.476   2.178 -0.9940 -0.7742 -0.6493
17691TIP3   OH274487   2.079   6.129   0.995 -0.1208  0.0050 -0.1363
17691TIP3    H174488   2.169   6.129   0.962 -0.5595  1.1646 -1.3862
17691TIP3    H274489   2.040   6.050   0.958 -0.1481  0.4796 -1.1472
17692TIP3   OH274490   3.275   6.150  12.054  0.0592  0.0614  0.3905
17692TIP3    H174491   3.266   6.178  12.145  0.1259 -0.2665  0.4990
17692TIP3    H274492   3.189   6.112  12.033 -0.7132  2.0526 -0.3639
17693TIP3   OH274493   5.412   4.920  12.008 -0.1938 -0.0435  0.4299
17693TIP3    H174494   5.352   4.883  11.944 -0.6192  1.0483  0.1646
17693TIP3    H274495   5.388   4.879  12.091  0.5992 -1.7362 -0.1396
17694TIP3   OH274496   1.466   5.685   3.764  0.6138 -0.9893  0.1979
17694TIP3    H174497   1.550   5.706   3.805  0.4765  0.6452 -0.3175
17694TIP3    H274498   1.403   5.743   3.807  0.2151 -0.3225 -1.2554
17695TIP3   OH274499   6.247   0.601   4.771  0.7598 -0.7435 -0.2011
17695TIP3    H174500   6.254   0.689   4.808 -0.0984 -1.0065  0.5994
17695TIP3    H274501   6.329   0.558   4.797  1.0729 -0.2746 -0.3866
17696TIP3   OH274502   3.498   1.027  14.235 -0.1273  0.1475  0.4271
17696TIP3    H174503   3.441   0.989  14.301 -1.5732 -1.0101 -1.3799
17696TIP3    H274504   3.562   0.958  14.216 -1.6012 -0.7989 -1.4985
17697TIP3   OH274505   5.510   0.520  16.138  0.0049  0.0154 -0.6099
17697TIP3    H174506   5.539   0.440  16.093  0.4491  0.2975 -0.8472
17697TIP3    H274507   5.581   0.582  16.121 -0.1715  0.3484 -0.1239
17698TIP3   OH274508   0.430   0.548   1.039  0.4408  0.2386  0.7210
17698TIP3    H174509   0.421   0.558   0.944 -1.8225  0.2398  0.8694
17698TIP3    H274510   0.367   0.480   1.062  0.9246  0.2645  2.2426
17699TIP3   OH274511   0.849   4.324  16.760  0.6292  0.1577 -0.0235
17699TIP3    H174512   0.928   4.287  16.721  0.1760 -1.0732  0.1997
17699TIP3    H274513   0.840   4.280  16.845 -0.5953 -0.1297 -0.2818
17700TIP3   OH274514   1.340   1.565   3.148 -0.4623 -0.6400  0.2305
17700TIP3    H174515   1.431   1.542   3.165  0.4386  0.6788 -2.2985
17700TIP3    H274516   1.302   1.486   3.109 -0.6731 -1.4563  2.0230
17701TIP3   OH274517   0.092   5.315  10.867  0.0216 -0.2450 -0.6154
17701TIP3    H174518   0.036   5.241  10.889 -2.3933  0.1588 -4.4325
17701TIP3    H274519   0.116   5.301  10.776  0.1335  3.1920 -1.2640
17702TIP3   OH274520   3.418   0.104   0.777  0.7220 -0.4520 -0.5202
17702TIP3    H174521   3.437   0.022   0.822  2.1156  0.3016  0.3633
17702TIP3    H274522   3.501   0.152   0.779 -0.5712  1.9340  1.0826
17703TIP3   OH274523   0.089   0.906  13.241 -0.5401  0.0405  0.0771
17703TIP3    H174524   0.145   0.885  13.166 -0.5046  0.1285  0.0789
17703TIP3    H274525   0.151   0.917  13.313 -0.6292 -0.9026  0.3190
17704TIP3   OH274526   6.400   3.727  14.821  0.1860  0.5860 -0.0049
17704TIP3    H174527   6.465   3.661  14.843 -0.1466  1.0860  2.8723
17704TIP3    H274528   6.415   3.746  14.728  1.0563 -2.6124 -0.6275
17705TIP3   OH274529   2.686   3.121   0.446 -0.0579 -0.4913 -0.6315
17705TIP3    H174530   2.755   3.164   0.497 -0.1101 -0.9714 -0.1436
17705TIP3    H274531   2.725   3.039   0.418 -0.2380 -0.5060 -0.8400
17706TIP3   OH274532   5.129   3.833  11.964 -0.0297  0.6418  0.0045
17706TIP3    H174533   5.200   3.870  12.015 -0.2252  0.5504  0.3469
17706TIP3    H274534   5.053   3.886  11.985  0.3394  2.0251 -1.8988
17707TIP3   OH274535   1.611   2.635  14.189  0.5920  0.3968 -0.1027
17707TIP3    H174536   1.590   2.710  14.133  2.4482  2.0432  1.2926
17707TIP3    H274537   1.537   2.627  14.249  1.2885  2.5379  1.1230
17708TIP3   OH274538   5.383   4.579  16.221 -0.3411 -0.2347 -0.2105
17708TIP3    H174539   5.378   4.675  16.220  0.7160 -0.1681 -0.3042
17708TIP3    H274540   5.304   4.551  16.175 -0.9901  0.5712  0.3729
17709TIP3   OH274541   5.613   2.358   4.614 -0.2864 -0.6375  0.0267
17709TIP3    H174542   5.612   2.272   4.571  0.9059 -0.0688 -1.2070
17709TIP3    H274543   5.676   2.409   4.563 -0.6348  0.8311  1.0274
17710TIP3   OH274544   2.373   1.927   2.393  0.0338  0.0963 -0.3663
17710TIP3    H174545   2.468   1.933   2.385 -0.0430  2.2319 -0.4405
17710TIP3    H274546   2.341   1.923   2.302  0.0437 -0.4868 -0.3454
17711TIP3   OH274547   2.356   0.005  15.766 -0.5041 -0.0523  0.1284
17711TIP3    H174548   2.272   0.050  15.755 -0.3516  0.2300  0.1059
17711TIP3    H274549   2.335  -0.088  15.757 -0.6814  0.0620 -0.7004
17712TIP3   OH274550   3.979   4.102   1.874  0.2455  0.9176  0.1146
17712TIP3    H174551   4.063   4.070   1.907  0.8769  1.6769 -0.7105
17712TIP3    H274552   3.936   4.141   1.950  1.4346  2.1417  0.1912
17713TIP3   OH274553   1.503   3.591   3.515 -0.6116  0.3759 -0.7625
17713TIP3    H174554   1.469   3.561   3.600  1.2151 -0.7587 -0.3749
17713TIP3    H274555   1.583   3.539   3.501 -0.1100  1.5211 -2.5333
17714TIP3   OH274556   0.475   1.868  14.634 -0.1722  0.0439 -0.0777
17714TIP3    H174557   0.518   1.859  14.719 -0.8348 -2.9566  0.0458
17714TIP3    H274558   0.541   1.843  14.570 -0.5670 -0.7673 -0.1800
17715TIP3   OH274559   1.137   3.351  14.839  0.0165  0.5477 -0.2299
17715TIP3    H174560   1.130   3.403  14.759  2.7718  0.1010 -0.8442
17715TIP3    H274561   1.186   3.274  14.813  0.9602  0.3830  1.8782
17716TIP3   OH274562   4.541   2.542  15.951  0.2857  0.3051  0.2990
17716TIP3    H174563   4.550   2.528  15.857  1.7616 -0.3449  0.5073
17716TIP3    H274564   4.594   2.619  15.969 -0.6773  0.9408  0.4919
17717TIP3   OH274565   2.106   3.874   0.092 -0.3039 -0.0069  0.2391
17717TIP3    H174566   2.128   3.792   0.046  0.4136 -0.4699  1.3655
17717TIP3    H274567   2.011   3.878   0.089 -0.2977 -0.3132 -0.7842
17718TIP3   OH274568   5.069   2.238   4.826  0.0094  0.7421 -0.3444
17718TIP3    H174569   5.093   2.192   4.906 -1.6516 -4.4071 -2.3740
17718TIP3    H274570   4.980   2.270   4.842  0.1749  0.9032  0.2641
17719TIP3   OH274571   3.894   2.839  12.167  0.4810  0.2484 -0.0989
17719TIP3    H174572   3.974   2.877  12.131 -0.3652  1.6953 -0.5410
17719TIP3    H274573   3.844   2.811  12.090  0.8375 -1.3062  0.1981
17720TIP3   OH274574   1.870   3.307   5.533  0.3455 -0.4402 -0.0786
17720TIP3    H174575   1.922   3.238   5.491  1.5339 -0.5434  1.4863
17720TIP3    H274576   1.824   3.262   5.604 -0.7699 -0.0548 -0.5324
17721TIP3   OH274577   6.015   6.456  12.785 -0.0179  0.0906 -0.5336
17721TIP3    H174578   5.976   6.372  12.807  2.3727 -1.1344 -0.6381
17721TIP3    H274579   6.094   6.461  12.838  1.1067  1.2019 -2.2038
17722TIP3   OH274580   3.731   3.130   0.528 -0.2253  0.1454 -0.4808
17722TIP3    H174581   3.790   3.076   0.475 -0.2401 -3.3809  2.6629
17722TIP3    H274582   3.789   3.192   0.573  1.0704 -2.1272  1.2443
17723TIP3   OH274583   5.116   4.663   2.876 -0.2461  0.0891 -0.2299
17723TIP3    H174584   5.040   4.616   2.841 -0.3673  1.3767 -1.7824
17723TIP3    H274585   5.191   4.623   2.832 -0.0783 -0.5606  0.6178
17724TIP3   OH274586   6.399   6.296  13.290 -0.3006 -0.1166  0.4773
17724TIP3    H174587   6.428   6.371  13.238 -0.0226 -1.5747 -1.6057
17724TIP3    H274588   6.477   6.269  13.339 -0.4734  1.0591  1.4510
17725TIP3   OH274589   1.640   5.249  10.943  0.0490  0.1632  0.0045
17725TIP3    H174590   1.696   5.174  10.963  1.1736  0.9335 -0.1122
17725TIP3    H274591   1.651   5.308  11.018 -1.6084 -0.1990  0.5707
17726TIP3   OH274592   1.678   2.418   2.084  0.3120 -0.4846 -0.6066
17726TIP3    H174593   1.717   2.442   1.999  0.4459  0.4888 -0.2891
17726TIP3    H274594   1.665   2.502   2.128  0.4066 -0.9921  0.4130
17727TIP3   OH274595   4.863   6.082  11.737  0.5768  0.2033  0.8243
17727TIP3    H174596   4.840   6.161  11.785 -0.4891  0.0423  0.5963
17727TIP3    H274597   4.779   6.040  11.718  1.1299 -1.0517  1.0628
17728TIP3   OH274598   6.060   2.563   6.154 -0.2362  0.4370 -0.2997
17728TIP3    H174599   6.144   2.573   6.109  0.1502 -1.7070 -0.1676
17728TIP3    H274600   6.074   2.605   6.239  0.5661  0.4751 -0.4410
17729TIP3   OH274601   4.970   1.062  13.523  0.0175 -0.3595 -0.0949
17729TIP3    H174602   4.897   1.099  13.572  0.0951  0.7936 -0.7968
17729TIP3    H274603   5.042   1.124  13.538 -0.7406  1.7994 -3.9444
17730TIP3   OH274604   1.336   2.266  15.996  0.3733  0.0542  0.4147
17730TIP3    H174605   1.248   2.305  15.995  0.1388 -0.4799  0.1183
17730TIP3    H274606   1.337   2.211  16.073  0.8718  1.0040  1.1068
17731TIP3   OH274607   4.855   0.772   2.155  0.0641 -0.3250  0.0036
17731TIP3    H174608   4.791   0.780   2.226  0.3267 -0.3985  0.2507
17731TIP3    H274609   4.934   0.739   2.197  1.2102  2.4606  0.2761
17732TIP3   OH274610   2.421   5.345  17.038 -0.0929 -0.2874 -0.3107
17732TIP3    H174611   2.516   5.351  17.052 -0.0046 -0.0926 -1.0035
17732TIP3    H274612   2.390   5.294  17.113  0.4040  0.5873  0.5162
17733TIP3   OH274613   2.170   6.651  12.178 -0.3687 -0.5907 -0.0822
17733TIP3    H174614   2.248   6.614  12.219  0.1353  1.3513  0.8532
17733TIP3    H274615   2.205   6.711  12.111 -1.0680 -0.1539 -0.0701
17734TIP3   OH274616   3.238   2.301   3.560  0.1303 -0.2035 -0.3687
17734TIP3    H174617   3.294   2.223   3.569 -0.6760 -0.7833 -0.2074
17734TIP3    H274618   3.149   2.265   3.557 -0.3416  0.8099  1.0188
17735TIP3   OH274619   3.917   0.438  10.660  0.3539  0.1928 -0.1401
17735TIP3    H174620   3.908   0.344  10.646 -1.9580  0.6399 -2.3490
17735TIP3    H274621   3.864   0.478  10.591  1.5799  3.1479  0.4799
17736TIP3   OH274622   2.330   0.550  14.289 -0.7356 -0.0207 -0.1759
17736TIP3    H174623   2.349   0.478  14.229  1.6887  0.9312 -0.6721
17736TIP3    H274624   2.393   0.539  14.360  1.0858  2.6450 -1.2466
17737TIP3   OH274625   4.781   2.512   5.210 -0.0301 -0.6929 -0.5906
17737TIP3    H174626   4.783   2.584   5.147  2.2964 -1.4286 -1.4327
17737TIP3    H274627   4.850   2.452   5.181 -0.6859 -2.3772  1.1371
17738TIP3   OH274628   0.324   1.521   1.890  0.3210  0.0212  0.4525
17738TIP3    H174629   0.247   1.471   1.919 -0.1951  0.8592  0.5807
17738TIP3    H274630   0.389   1.508   1.959 -0.4842  1.0404  1.4536
17739TIP3   OH274631   6.553   1.567  14.029 -0.1295  0.4257 -0.3348
17739TIP3    H174632   6.621   1.571  13.961 -0.9482 -2.0914 -1.4468
17739TIP3    H274633   6.499   1.644  14.013  0.4705  0.6078 -1.6994
17740TIP3   OH274634   3.090   6.188  12.386  0.0152 -0.1693  0.2715
17740TIP3    H174635   3.083   6.266  12.440 -1.3959  0.3946 -0.6613
17740TIP3    H274636   3.010   6.138  12.404 -0.1225 -0.3344 -0.7141
17741TIP3   OH274637   4.412   1.781  15.916 -0.3827 -0.5302 -0.4554
17741TIP3    H174638   4.334   1.778  15.971  0.6740  0.2200  1.1554
17741TIP3    H274639   4.444   1.870  15.925 -0.7046 -0.0391 -3.1505
17742TIP3   OH274640   6.213   0.971  17.168  0.2282 -0.4138 -0.2507
17742TIP3    H174641   6.211   0.930  17.082  0.2997 -1.9928  0.4778
17742TIP3    H274642   6.134   1.026  17.170  0.2398 -0.3432 -1.3181
17743TIP3   OH274643   6.696   2.913   0.931 -0.2374  0.5643 -0.3545
17743TIP3    H174644   6.732   2.917   1.020  0.3800  0.1606 -0.5840
17743TIP3    H274645   6.601   2.925   0.944 -0.0046  1.9851  0.2126
17744TIP3   OH274646   6.104   3.315   5.094 -0.4184  0.1328  0.7281
17744TIP3    H174647   6.163   3.373   5.046 -0.1725  0.3590  1.3068
17744TIP3    H274648   6.162   3.252   5.137 -0.6570 -0.2358  0.5186
17745TIP3   OH274649   0.643   5.324  12.596 -0.0077  0.6987 -0.2616
17745TIP3    H174650   0.572   5.285  12.545 -0.6625  0.0592  1.0882
17745TIP3    H274651   0.723   5.291  12.554 -0.4681  1.3600 -1.7454
17746TIP3   OH274652   6.680   2.092   3.884 -0.4078  0.3712 -0.7109
17746TIP3    H174653   6.654   2.000   3.875  0.4339  0.2342 -2.2183
17746TIP3    H274654   6.602   2.142   3.861 -0.8828  0.0373  0.1564
17747TIP3   OH274655   5.731   2.986   5.948  0.0526  0.4661  0.6292
17747TIP3    H174656   5.796   2.929   5.989  0.1934  1.0229  1.1829
17747TIP3    H274657   5.712   3.053   6.013 -1.8625 -0.2699  0.9061
17748TIP3   OH274658   4.693   5.134   4.079 -0.4506  0.1198 -0.3374
17748TIP3    H174659   4.710   5.043   4.055 -2.0493  0.4706 -3.2634
17748TIP3    H274660   4.772   5.181   4.054 -0.5057 -0.1547 -1.0586
17749TIP3   OH274661   1.365   6.718  16.172  0.0333  0.4209  0.4118
17749TIP3    H174662   1.348   6.624  16.170 -2.4983  0.8294 -0.8916
17749TIP3    H274663   1.285   6.756  16.208  0.1706  2.2022 -1.0204
17750TIP3   OH274664   1.176   6.739  14.706  0.0334  0.5463 -0.1515
17750TIP3    H174665   1.170   6.795  14.629 -0.0769 -0.9433 -1.2823
17750TIP3    H274666   1.270   6.723  14.718 -0.0279 -0.3726 -0.8599
17751TIP3   OH274667   4.427   5.399   5.890  0.5827  0.4491  0.1797
17751TIP3    H174668   4.445   5.478   5.840 -0.1482  1.0341  0.8252
17751TIP3    H274669   4.492   5.336   5.859  0.2064  0.8197 -1.4200
17752TIP3   OH274670   0.211   6.412   0.560  0.2219  0.3584  0.4453
17752TIP3    H174671   0.124   6.451   0.569  0.5337  1.1931 -0.0244
17752TIP3    H274672   0.261   6.476   0.510  0.5698 -0.9501 -0.9424
17753TIP3   OH274673   1.335   1.782   2.959  0.2376 -0.2295 -0.2778
17753TIP3    H174674   1.386   1.759   2.882 -0.3324 -0.2238 -0.6648
17753TIP3    H274675   1.320   1.699   3.004 -0.3286 -0.3844 -0.7414
17754TIP3   OH274676   3.466   3.669   0.503 -0.2424  0.3937  0.1618
17754TIP3    H174677   3.547   3.648   0.456 -0.7278  1.8404 -1.4334
17754TIP3    H274678   3.396   3.641   0.444 -0.9086 -0.0683  1.1525
17755TIP3   OH274679   2.467   4.919  13.889 -0.8456  0.0720  0.5485
17755TIP3    H174680   2.497   4.923  13.798 -2.9268  0.3312 -0.1853
17755TIP3    H274681   2.472   5.009  13.920 -1.0085  0.1361  0.3865
17756TIP3   OH274682   3.142   4.393  11.114 -0.0211 -0.1181  0.1586
17756TIP3    H174683   3.181   4.331  11.052  2.7374  1.1927  0.4135
17756TIP3    H274684   3.076   4.343  11.161  1.5279 -2.6480 -0.2051
17757TIP3   OH274685   2.100   5.862   1.219  0.6589 -0.1043  0.1109
17757TIP3    H174686   2.170   5.927   1.213 -0.1200  0.8710  1.1423
17757TIP3    H274687   2.048   5.889   1.295 -1.8128  0.2278 -1.5457
17758TIP3   OH274688   6.026   4.775   5.511  0.3304 -0.3293  0.1214
17758TIP3    H174689   5.986   4.852   5.552 -1.0312 -1.5949  1.2742
17758TIP3    H274690   5.997   4.780   5.419 -2.6586 -1.1803  0.8910
17759TIP3   OH274691   3.306   2.414   5.488 -0.0322 -0.0948 -0.0224
17759TIP3    H174692   3.299   2.319   5.493 -1.5210 -0.1207 -1.6886
17759TIP3    H274693   3.333   2.432   5.398  0.2753  1.0675  0.2816
17760TIP3   OH274694   0.333   5.555  12.445 -0.4572  0.0759 -0.2024
17760TIP3    H174695   0.378   5.480  12.407  0.0610  0.4027 -0.2423
17760TIP3    H274696   0.294   5.522  12.526  0.3001 -0.0857  0.1036
17761TIP3   OH274697   2.441   5.533  14.348 -0.3960 -0.1873  0.6623
17761TIP3    H174698   2.496   5.469  14.302 -0.7147 -0.3918  0.5601
17761TIP3    H274699   2.355   5.491  14.352 -0.8834  0.6790 -0.3755
17762TIP3   OH274700   6.557   2.336   3.861 -0.1811  0.2449 -0.0859
17762TIP3    H174701   6.526   2.382   3.939  0.1048 -0.5186  0.4860
17762TIP3    H274702   6.650   2.358   3.856 -0.0922 -0.0942  0.0649
17763TIP3   OH274703   2.441   1.489  12.566  0.5355 -0.5828 -0.5135
17763TIP3    H174704   2.406   1.403  12.543 -2.2991 -0.0470  1.3484
17763TIP3    H274705   2.482   1.476  12.651  0.2663 -0.1446 -0.3124
17764TIP3   OH274706   2.459   2.431  11.978  0.2488 -0.4582  0.4255
17764TIP3    H174707   2.516   2.407  12.050 -0.0191  0.7207  1.0672
17764TIP3    H274708   2.476   2.366  11.910  2.8935  0.2823  0.2983
17765TIP3   OH274709   0.149   2.653  13.890  0.3457  0.1855  0.3898
17765TIP3    H174710   0.192   2.573  13.860 -0.8043  0.1654 -1.3095
17765TIP3    H274711   0.083   2.622  13.952 -0.5761 -0.2853 -0.7909
17766TIP3   OH274712   2.131   0.232  13.453 -0.0121 -0.0978  0.1017
17766TIP3    H174713   2.152   0.182  13.375  2.2673  0.4098  0.3343
17766TIP3    H274714   2.035   0.236  13.454 -0.1051 -0.6056 -2.3181
17767TIP3   OH274715   3.040   5.867  14.368 -0.4725  0.5103  0.1704
17767TIP3    H174716   2.983   5.873  14.292 -0.3319 -0.5087 -0.0352
17767TIP3    H274717   3.048   5.773  14.385 -1.8169  0.7518  2.4662
17768TIP3   OH274718   2.804   4.374  11.449 -0.1763 -0.8244 -0.2343
17768TIP3    H174719   2.807   4.375  11.544 -0.2797  2.0278 -0.1844
17768TIP3    H274720   2.818   4.282  11.426 -1.8838 -1.8928  2.5310
17769TIP3   OH274721   6.032   5.119  12.089 -0.1734  0.2531 -0.1955
17769TIP3    H174722   6.099   5.187  12.083  0.7275 -0.5144  0.7695
17769TIP3    H274723   6.039   5.086  12.178 -2.3682  0.6469  0.1999
17770TIP3   OH274724   4.547   4.820   5.960  0.1487 -0.4425 -0.7555
17770TIP3    H174725   4.457   4.834   5.930 -0.6383  1.5376  2.1100
17770TIP3    H274726   4.572   4.903   5.999  1.8798 -2.0256  1.7756
17771TIP3   OH274727   3.865   0.704   1.537  0.3281  0.0212  0.4897
17771TIP3    H174728   3.951   0.724   1.501 -0.9142  1.5648 -1.8288
17771TIP3    H274729   3.859   0.758   1.616  0.5691  1.8780 -0.6998
17772TIP3   OH274730   2.721   4.071   1.672  0.4360 -0.4407 -0.1894
17772TIP3    H174731   2.762   4.128   1.736  0.9141  0.0549 -0.9132
17772TIP3    H274732   2.789   4.055   1.606 -0.5853  0.6687 -1.5936
17773TIP3   OH274733   6.354   0.878   4.842  0.0553 -0.1987 -0.2294
17773TIP3    H174734   6.370   0.857   4.750 -1.8110 -0.7504 -0.4623
17773TIP3    H274735   6.339   0.973   4.843 -2.1195 -0.4739 -0.9041
17774TIP3   OH274736   3.832   3.264   1.303 -0.4774 -1.0932 -0.3987
17774TIP3    H174737   3.780   3.301   1.374  1.8937  1.3467  0.2588
17774TIP3    H274738   3.791   3.298   1.223 -1.0039 -0.7635  0.0032
17775TIP3   OH274739   3.747   5.438   3.817  0.2585  0.6036 -0.1778
17775TIP3    H174740   3.726   5.523   3.856  0.2058 -0.1378  1.5150
17775TIP3    H274741   3.685   5.428   3.745 -0.9067  1.2651  0.6931
17776TIP3   OH274742   5.362   5.681   5.054 -0.0585  0.4504  0.4132
17776TIP3    H174743   5.408   5.628   5.119  0.8068  0.5778 -0.0819
17776TIP3    H274744   5.424   5.689   4.982 -0.6674  1.0737 -0.0481
17777TIP3   OH274745   2.737   4.479  12.184  0.4282 -0.0605  0.1735
17777TIP3    H174746   2.824   4.505  12.154  1.4780 -0.9752  2.2130
17777TIP3    H274747   2.687   4.561  12.187  0.8854  0.3528 -1.8945
17778TIP3   OH274748   1.342   2.400   2.405  0.2514  0.1042  0.4940
17778TIP3    H174749   1.308   2.388   2.493 -0.7535  0.0013  0.1001
17778TIP3    H274750   1.298   2.478   2.372 -0.5460 -0.7320 -0.4648
17779TIP3   OH274751   1.833   1.500  11.360 -0.7714 -0.0863  0.2996
17779TIP3    H174752   1.894   1.493  11.433 -1.1895  0.6452  0.7284
17779TIP3    H274753   1.851   1.586  11.322 -2.7804  1.0027  1.6038
17780TIP3   OH274754   4.127   4.003   3.953 -0.2036  0.2609 -0.1342
17780TIP3    H174755   4.053   4.029   4.009 -0.3588 -1.2510  0.3975
17780TIP3    H274756   4.203   4.044   3.993 -0.6424  1.3078 -0.3177
17781TIP3   OH274757   2.801   3.853  13.233  0.8212 -0.4451 -0.2282
17781TIP3    H174758   2.895   3.850  13.216  1.1401 -0.3451  1.3241
17781TIP3    H274759   2.780   3.947  13.237  0.8505 -0.4567  0.3127
17782TIP3   OH274760   2.070   6.013  12.970  0.0807 -0.4146 -0.0372
17782TIP3    H174761   2.073   5.960  13.050  2.9296 -1.5847 -0.7948
17782TIP3    H274762   2.041   6.099  12.999  0.8591 -0.8506  2.2360
17783TIP3   OH274763   1.777   2.781   1.125  0.4554  0.1742 -0.4901
17783TIP3    H174764   1.827   2.834   1.187 -1.3519  0.7135  0.5847
17783TIP3    H274765   1.746   2.844   1.060 -0.3660  0.1893 -0.0977
17784TIP3   OH274766   5.474   4.225   1.766  0.3575 -0.2388  0.1796
17784TIP3    H174767   5.560   4.266   1.772  0.8748 -1.2657  0.0416
17784TIP3    H274768   5.423   4.264   1.837  0.9529  0.3349  0.2993
17785TIP3   OH274769   5.575   4.087   0.573 -0.3048  0.3139  0.6732
17785TIP3    H174770   5.505   4.039   0.618 -0.6597  2.5418  2.6889
17785TIP3    H274771   5.651   4.078   0.630  0.3085  0.1160 -0.1670
17786TIP3   OH274772   1.859   0.454   1.299  0.0584 -0.2929  0.2751
17786TIP3    H174773   1.894   0.509   1.369  0.2029  1.5148 -1.1309
17786TIP3    H274774   1.895   0.492   1.219 -2.5633 -0.2988 -1.0051
17787TIP3   OH274775   1.181   1.451   3.521  0.1143 -0.0541 -0.2686
17787TIP3    H174776   1.265   1.406   3.524 -0.6329 -1.5144  0.3174
17787TIP3    H274777   1.126   1.395   3.465 -1.4074 -0.9845  1.9942
17788TIP3   OH274778   2.186   4.097   2.365 -0.2851 -0.0018 -0.1079
17788TIP3    H174779   2.233   4.179   2.349 -0.6411  0.4874  1.2522
17788TIP3    H274780   2.120   4.095   2.295 -0.7482  1.2613  0.2480
17789TIP3   OH274781   3.786   2.361  13.452  0.0212  0.2772 -0.1409
17789TIP3    H174782   3.733   2.320  13.520  1.0674  0.6975  0.9882
17789TIP3    H274783   3.835   2.288  13.413 -0.2422  0.0909 -0.1283
17790TIP3   OH274784   0.807   2.414  15.540  0.0855  0.4862  0.1784
17790TIP3    H174785   0.791   2.351  15.470  1.8017  1.1705 -0.8825
17790TIP3    H274786   0.865   2.367  15.601  1.6378  1.0712 -0.7784
17791TIP3   OH274787   0.086   0.499   3.562  0.0193  0.1289 -0.0336
17791TIP3    H174788   0.142   0.424   3.540  0.4628  0.2530  0.6477
17791TIP3    H274789   0.102   0.561   3.491 -0.0164 -0.2369 -0.3696
17792TIP3   OH274790   3.299   0.488   4.053  0.1479  0.6561  0.7648
17792TIP3    H174791   3.276   0.577   4.079 -0.6332  0.5648  0.3865
17792TIP3    H274792   3.331   0.447   4.134 -1.8211  0.5234  1.5397
17793TIP3   OH274793   6.744   3.571   4.613  0.1269 -0.1374 -0.1933
17793TIP3    H174794   6.705   3.492   4.577  0.8866  0.3154 -2.1142
17793TIP3    H274795   6.774   3.545   4.700 -0.0045 -1.8570 -0.6257
17794TIP3   OH274796   1.783   4.397  13.870  0.4289  0.0702 -0.5750
17794TIP3    H174797   1.786   4.315  13.822 -2.0256 -1.3873  1.4610
17794TIP3    H274798   1.846   4.387  13.941 -0.4648 -0.4842  0.1715
17795TIP3   OH274799   1.462   1.911   2.545  0.1876 -0.2721  0.7582
17795TIP3    H174800   1.501   1.928   2.460  1.0176 -0.9822  0.9788
17795TIP3    H274801   1.500   1.978   2.602 -1.5955  1.2202  0.2571
17796TIP3   OH274802   0.942   2.979   4.403 -0.1626  0.7189  0.2842
17796TIP3    H174803   0.999   3.041   4.358  0.8543  0.3168  0.9838
17796TIP3    H274804   0.927   3.018   4.489  0.5355 -0.0143  0.7509
17797TIP3   OH274805   6.510   2.702  12.222  0.7447  0.3038  0.1594
17797TIP3    H174806   6.577   2.768  12.203  0.6669  0.9939  2.0517
17797TIP3    H274807   6.431   2.735  12.181  0.5219  1.8631  1.7109
17798TIP3   OH274808   1.484   6.291  13.870  0.2739  0.4756  0.5219
17798TIP3    H174809   1.413   6.273  13.808 -0.2705  1.6228  0.7840
17798TIP3    H274810   1.447   6.271  13.956  0.4454  0.5543  0.6154
17799TIP3   OH274811   3.587   3.148   5.921 -0.2289 -0.6589  0.3174
17799TIP3    H174812   3.620   3.165   6.010 -1.0004  2.7448  0.1112
17799TIP3    H274813   3.513   3.089   5.934  1.2551 -2.3554  1.5787
17800TIP3   OH274814   0.812   1.205   0.335  0.2903 -0.0080  0.3867
17800TIP3    H174815   0.873   1.278   0.346  2.6127 -1.6571 -0.6566
17800TIP3    H274816   0.785   1.183   0.423  0.2726  1.5151  0.7908
17801TIP3   OH274817   4.147   5.099   3.012 -0.2238 -0.4517  0.6493
17801TIP3    H174818   4.087   5.039   2.967 -0.2732 -0.3999  0.6455
17801TIP3    H274819   4.232   5.085   2.970 -0.9555  2.2837 -2.1190
17802TIP3   OH274820   0.567   5.648  16.596 -0.1300  0.1651 -0.0419
17802TIP3    H174821   0.600   5.627  16.683  1.0584  2.3060  0.0840
17802TIP3    H274822   0.507   5.576  16.576  1.4379 -1.6958  1.4780
17803TIP3   OH274823   1.220   6.643  10.835  0.1494 -0.7560 -0.3921
17803TIP3    H174824   1.238   6.737  10.836 -1.2854 -0.4528 -0.9593
17803TIP3    H274825   1.264   6.611  10.756  0.0131 -0.4280 -0.6013
17804TIP3   OH274826   4.543   3.402   1.404 -0.1541  0.0779 -0.4134
17804TIP3    H174827   4.544   3.315   1.443 -0.5871 -0.4048 -1.4588
17804TIP3    H274828   4.635   3.429   1.402 -0.1140  0.1129  0.8992
17805TIP3   OH274829   0.218   6.725  16.544 -0.4577 -0.1426 -0.2181
17805TIP3    H174830   0.249   6.725  16.634 -0.0679 -0.3895 -0.3492
17805TIP3    H274831   0.215   6.633  16.519 -1.6135 -0.1482 -0.1102
17806TIP3   OH274832   5.678   6.628   2.451 -0.5497 -0.2334  0.5978
17806TIP3    H174833   5.667   6.535   2.467 -1.3466 -0.2640 -0.0775
17806TIP3    H274834   5.633   6.671   2.524 -1.1672 -0.3830  0.3144
17807TIP3   OH274835   5.427   5.971  13.582  0.2383 -0.0016  0.2723
17807TIP3    H174836   5.423   6.058  13.544 -0.5764  0.1833  0.7543
17807TIP3    H274837   5.376   5.977  13.663  0.5701 -0.8021  0.5592
17808TIP3   OH274838   4.320   5.210   1.639 -0.3981  0.1818  0.3037
17808TIP3    H174839   4.352   5.169   1.719  3.6983 -1.2525 -1.8238
17808TIP3    H274840   4.307   5.138   1.578  1.0924  1.4974 -1.6887
17809TIP3   OH274841   0.586   3.567  11.572  0.0503 -0.6822 -0.1539
17809TIP3    H174842   0.576   3.660  11.552 -0.3960 -0.9691 -1.4075
17809TIP3    H274843   0.572   3.524  11.487 -0.7111 -1.9457  0.5916
17810TIP3   OH274844   5.451   4.773  13.082  0.3165  0.7698 -0.8947
17810TIP3    H174845   5.402   4.855  13.092  0.8087  0.8145  1.8476
17810TIP3    H274846   5.527   4.798  13.030 -1.4645  1.1211 -3.5340
17811TIP3   OH274847   3.790   2.659  13.629  1.0327 -0.2319 -0.0156
17811TIP3    H174848   3.707   2.612  13.632  0.9997 -0.1599  0.3619
17811TIP3    H274849   3.855   2.592  13.610  1.1936 -0.7516  2.0817
17812TIP3   OH274850   5.708   6.150  17.177  0.2138  0.3699  0.0577
17812TIP3    H174851   5.750   6.071  17.209 -0.5631 -0.7258 -1.4678
17812TIP3    H274852   5.720   6.146  17.082 -0.4910  1.6982 -0.1041
17813TIP3   OH274853   1.228   6.536  16.756  0.2057  0.0163 -0.8327
17813TIP3    H174854   1.303   6.552  16.699  0.6638  2.9971  0.4519
17813TIP3    H274855   1.161   6.598  16.727 -1.1190 -1.3051 -0.7512
17814TIP3   OH274856   2.356   3.321  12.558 -0.5785 -0.0549  0.4390
17814TIP3    H174857   2.296   3.386  12.592 -2.2744  0.0772 -2.4826
17814TIP3    H274858   2.320   3.237  12.588 -0.9020  0.1409  0.6057
17815TIP3   OH274859   6.432   3.225   1.215  0.0753  0.1641  0.0677
17815TIP3    H174860   6.511   3.240   1.163 -0.0071 -0.2060 -0.1669
17815TIP3    H274861   6.361   3.226   1.151  0.0489 -1.0722  0.0600
17816TIP3   OH274862   1.963   4.116  14.949  0.1355  0.3820 -0.0693
17816TIP3    H174863   1.926   4.151  15.030 -1.1209  0.8800 -0.8152
17816TIP3    H274864   2.002   4.032  14.974  1.5874  1.4525  1.4146
17817TIP3   OH274865   5.738   4.049   1.962 -0.0735  0.1382  0.7304
17817TIP3    H174866   5.708   3.959   1.950 -1.7630  0.6727  0.6478
17817TIP3    H274867   5.672   4.088   2.020  0.2233  1.5305  0.1628
17818TIP3   OH274868   0.267   2.059  17.149 -0.1860  0.0833  0.1399
17818TIP3    H174869   0.198   2.104  17.100 -1.5321 -0.6519  1.2914
17818TIP3    H274870   0.220   1.995  17.202  1.3492 -0.1079  1.3254
17819TIP3   OH274871   0.869   6.777   0.236  0.6108 -0.0119  0.2954
17819TIP3    H174872   0.924   6.853   0.252  0.2661 -0.0462  1.7532
17819TIP3    H274873   0.834   6.753   0.322 -1.4352 -0.1934 -0.5311
17820TIP3   OH274874   0.833   1.500  10.897 -0.3041  0.4700  0.1100
17820TIP3    H174875   0.901   1.540  10.842  0.0135  0.3602  0.4170
17820TIP3    H274876   0.757   1.491  10.840  0.2612 -0.3357 -0.5168
17821TIP3   OH274877   0.072   5.281   2.741  0.4292  0.0911  0.3101
17821TIP3    H174878   0.128   5.230   2.799  1.9375 -0.8023 -1.8146
17821TIP3    H274879   0.050   5.221   2.670 -3.6711  0.2316  1.1698
17822TIP3   OH274880   2.620   3.061   3.897 -0.0989 -0.0279  0.3428
17822TIP3    H174881   2.678   3.124   3.853  0.0662 -0.6842 -0.4011
17822TIP3    H274882   2.621   3.088   3.989 -0.8110  1.6615 -0.1084
17823TIP3   OH274883   2.054   3.023   6.488  0.6639  0.3389 -0.6579
17823TIP3    H174884   2.139   3.036   6.445  0.8935  1.8988  0.1713
17823TIP3    H274885   2.058   2.935   6.525  2.4928  0.8721  0.5505
17824TIP3   OH274886   0.471   1.791  15.069 -0.0508  0.2441 -0.0294
17824TIP3    H174887   0.407   1.860  15.051  1.0687  1.1625 -0.5836
17824TIP3    H274888   0.441   1.716  15.018 -1.8742 -0.0717  1.3946
17825TIP3   OH274889   2.085   0.528  16.960 -0.3340 -0.0896  0.8348
17825TIP3    H174890   1.998   0.525  17.000 -0.5562 -1.8152  0.2953
17825TIP3    H274891   2.070   0.505  16.869  0.3712  2.3103  0.0212
17826TIP3   OH274892   0.268   4.286   2.649  0.2679 -0.2862 -0.1939
17826TIP3    H174893   0.360   4.264   2.661 -0.1981 -2.3825 -0.0056
17826TIP3    H274894   0.257   4.289   2.553 -0.1543 -3.8159 -0.3985
17827TIP3   OH274895   3.749   5.059  16.849 -0.5069  0.7744 -0.0968
17827TIP3    H174896   3.661   5.093  16.834 -0.6916  0.1430 -0.4737
17827TIP3    H274897   3.805   5.137  16.852 -0.6207  1.0617 -3.0236
17828TIP3   OH274898   4.953   2.823  13.716  0.5949  0.4682  0.2312
17828TIP3    H174899   4.956   2.835  13.811 -0.0633  0.2761  0.2793
17828TIP3    H274900   4.860   2.824  13.694  0.7421  0.5124 -0.4125
17829TIP3   OH274901   1.700   4.763  13.913 -0.1592 -0.2907 -0.0483
17829TIP3    H174902   1.672   4.671  13.913  1.4897 -0.8325 -0.1982
17829TIP3    H274903   1.696   4.789  14.005 -0.2404 -0.6466  0.0533
17830TIP3   OH274904   0.777   4.492  15.081  0.4354 -0.5115  0.3604
17830TIP3    H174905   0.774   4.409  15.035  0.2832 -0.9455  1.1293
17830TIP3    H274906   0.685   4.515  15.095  0.3393  1.3467 -2.5159
17831TIP3   OH274907   3.274   0.493   3.492  0.0809  0.2684  0.2173
17831TIP3    H174908   3.180   0.492   3.510 -0.6871  1.0026 -3.1087
17831TIP3    H274909   3.315   0.479   3.578 -3.0262 -1.0666  1.6410
17832TIP3   OH274910   5.531   0.318   0.631 -0.5376  0.3340 -0.0008
17832TIP3    H174911   5.473   0.358   0.697  1.3719 -0.5590  2.3576
17832TIP3    H274912   5.615   0.361   0.644 -0.0438 -0.0034 -1.8193
17833TIP3   OH274913   6.569   0.516   0.525  0.6638 -0.0492  0.2237
17833TIP3    H174914   6.637   0.532   0.461  0.0923  2.9890  0.2652
17833TIP3    H274915   6.587   0.577   0.596 -1.5479  0.1854  0.6598
17834TIP3   OH274916   3.081   3.537  13.153 -0.5799  0.0522  0.9508
17834TIP3    H174917   3.097   3.481  13.230 -1.6472 -0.8278  0.5582
17834TIP3    H274918   2.999   3.505  13.117 -0.5683  1.0774 -0.0288
17835TIP3   OH274919   0.218   4.926  15.680  0.4100  0.0574  0.1876
17835TIP3    H174920   0.311   4.915  15.664  0.2203 -0.2206 -0.7793
17835TIP3    H274921   0.180   4.940  15.593 -0.2772  1.5465  0.7007
17836TIP3   OH274922   5.405   2.972  16.194 -0.2236 -0.5031 -0.0776
17836TIP3    H174923   5.407   2.947  16.286  0.4082 -0.3568 -0.0500
17836TIP3    H274924   5.483   3.025  16.181 -0.2495 -0.6040 -0.7232
17837TIP3   OH274925   0.426   0.963   3.592 -0.4267  0.2325  0.0789
17837TIP3    H174926   0.418   1.053   3.559  2.1126  0.6088  0.2235
17837TIP3    H274927   0.372   0.961   3.671 -2.4046  0.8826 -1.1842
17838TIP3   OH274928   0.075   5.981  16.923  0.4096  0.4672 -0.0469
17838TIP3    H174929   0.071   6.074  16.903  0.4074  0.6848  0.9108
17838TIP3    H274930   0.145   5.948  16.867 -0.1858  0.8626 -1.0425
17839TIP3   OH274931   6.214   5.322  12.148 -0.3451  0.8320 -0.2478
17839TIP3    H174932   6.290   5.352  12.197  0.4755 -0.3947 -0.7089
17839TIP3    H274933   6.159   5.400  12.138  1.1350  1.8874 -0.4311
17840TIP3   OH274934   3.432   3.943   3.139 -0.0120  0.5636  0.2544
17840TIP3    H174935   3.388   3.883   3.079  1.5575 -0.5150  0.1296
17840TIP3    H274936   3.395   4.029   3.119 -2.6750 -0.3771  0.7781
17841TIP3   OH274937   0.981   0.682  16.858 -0.2706  0.2600 -0.5113
17841TIP3    H174938   0.911   0.724  16.808 -2.2504 -1.4424  0.6645
17841TIP3    H274939   1.049   0.663  16.793 -1.4040  0.8684 -1.9384
17842TIP3   OH274940   0.022   0.062   4.147 -0.1235 -0.0128 -0.2150
17842TIP3    H174941   0.111   0.037   4.173  0.3200  1.2008 -0.5216
17842TIP3    H274942   0.031   0.095   4.058 -1.4931 -3.3139 -1.7268
17843TIP3   OH274943   3.664   5.751  14.654 -0.5506  0.4246 -0.0291
17843TIP3    H174944   3.627   5.762  14.566  0.0235 -0.7991 -0.4398
17843TIP3    H274945   3.609   5.685  14.696 -0.5657  0.6968  0.3901
17844TIP3   OH274946   5.781   5.868   6.097  0.8357 -0.4874 -0.3053
17844TIP3    H174947   5.867   5.869   6.139  1.0653 -1.2008 -0.7437
17844TIP3    H274948   5.719   5.862   6.169  1.1246  0.4936  0.0451
17845TIP3   OH274949   2.251   2.966  14.879 -0.2022  0.7208  0.3485
17845TIP3    H174950   2.328   2.911  14.866  0.2970  1.2054  1.1369
17845TIP3    H274951   2.229   2.998  14.792 -0.1501 -0.2587 -0.0357
17846TIP3   OH274952   0.928   0.694   2.805 -0.2396  0.1218 -0.1782
17846TIP3    H174953   0.851   0.718   2.857  0.6913 -1.0062  1.8422
17846TIP3    H274954   0.992   0.762   2.825  0.8314 -1.3943  1.9153
17847TIP3   OH274955   6.670   0.212  16.903  0.0734 -0.7050 -0.0407
17847TIP3    H174956   6.658   0.181  16.992 -2.0255 -2.2704 -0.7934
17847TIP3    H274957   6.749   0.166  16.872  0.2005 -0.9581  0.6583
17848TIP3   OH274958   4.726   4.201   1.239  0.3390 -0.4458 -0.3135
17848TIP3    H174959   4.693   4.272   1.185  1.8313  0.0796 -0.5678
17848TIP3    H274960   4.795   4.240   1.292  1.9860 -1.9062 -1.2628
17849TIP3   OH274961   5.592   4.967   6.258  0.3506  0.5887  0.6086
17849TIP3    H174962   5.595   4.921   6.342 -2.7253  0.6660  0.9020
17849TIP3    H274963   5.573   4.900   6.193 -4.5368  1.1138  1.0879
17850TIP3   OH274964   0.711   5.026  13.591  0.2289 -0.0085  0.8165
17850TIP3    H174965   0.760   5.007  13.672  0.8087  0.2257  0.5221
17850TIP3    H274966   0.756   5.101  13.553  0.5935 -0.7339 -0.2468
17851TIP3   OH274967   4.150   6.675   3.624  0.4123  0.2204 -0.0985
17851TIP3    H174968   4.080   6.614   3.646  0.9378  0.0351  1.1656
17851TIP3    H274969   4.178   6.649   3.537 -2.6085  1.7720 -1.6847
17852TIP3   OH274970   1.888   4.126  17.116  0.0669 -0.5911  0.1713
17852TIP3    H174971   1.842   4.110  17.034 -0.9044 -1.0825  0.7824
17852TIP3    H274972   1.899   4.221  17.119 -1.9405 -0.3144  0.4956
17853TIP3   OH274973   6.507   6.000   1.432  0.0421 -0.0416  0.2857
17853TIP3    H174974   6.497   5.906   1.420 -2.9094  0.2219 -0.1290
17853TIP3    H274975   6.498   6.036   1.344 -0.5736  0.7192  0.6497
17854TIP3   OH274976   5.245   5.181  15.967 -0.2336  0.1246  0.2379
17854TIP3    H174977   5.151   5.180  15.986 -0.3877  0.3964 -0.4772
17854TIP3    H274978   5.260   5.264  15.922  0.2898 -0.0509  0.0772
17855TIP3   OH274979   3.425   4.606  10.605 -0.4096 -0.0085  0.1129
17855TIP3    H174980   3.382   4.521  10.598  1.7269 -1.1075 -0.7430
17855TIP3    H274981   3.473   4.602  10.688  0.6978 -0.1566 -0.5189
17856TIP3   OH274982   5.273   3.572   0.975  0.2155  0.4640  0.0482
17856TIP3    H174983   5.365   3.551   0.957  0.7826  2.1253  0.7772
17856TIP3    H274984   5.226   3.542   0.897  1.5102  0.4436 -0.7623
17857TIP3   OH274985   1.825   5.250  13.240  0.0877 -0.1674  0.2055
17857TIP3    H174986   1.864   5.164  13.235 -0.9623 -0.8198  2.1162
17857TIP3    H274987   1.733   5.234  13.264  0.0007  1.4703  1.1738
17858TIP3   OH274988   5.123   0.013  13.441  0.2233  0.4400  0.0776
17858TIP3    H174989   5.100   0.069  13.367 -1.3858 -0.9391 -0.5260
17858TIP3    H274990   5.084   0.057  13.517  0.6047  1.0944 -0.0979
17859TIP3   OH274991   4.873   1.596  12.417  0.3237 -0.1629  0.3186
17859TIP3    H174992   4.824   1.515  12.436 -1.5327  0.8771  0.1809
17859TIP3    H274993   4.923   1.612  12.497  1.3602 -1.8416  0.0642
17860TIP3   OH274994   0.058   4.857  15.143  0.2992  0.6686  0.1864
17860TIP3    H174995   0.109   4.930  15.107 -0.5080  0.3465 -1.7608
17860TIP3    H274996  -0.024   4.860  15.095  0.1406 -1.3495  0.2562
17861TIP3   OH274997   6.234   2.922  14.692 -0.5620 -0.3482  0.5095
17861TIP3    H174998   6.298   2.979  14.649 -0.5057 -0.8796 -0.1136
17861TIP3    H274999   6.171   2.900  14.624 -1.0685 -0.3365  0.9656
17862TIP3   OH275000   3.280   5.822   3.311  0.0397 -0.2281 -0.1209
17862TIP3    H175001   3.366   5.848   3.277  0.1304  0.5770  0.6793
17862TIP3    H275002   3.262   5.738   3.269  1.6827 -0.9146  0.4519
17863TIP3   OH275003   0.894   0.732   1.571  0.5066  0.5815 -0.1922
17863TIP3    H175004   0.982   0.762   1.593  0.7840 -1.2854  1.5633
17863TIP3    H275005   0.907   0.646   1.530 -0.4775  0.3242  0.0057
17864TIP3   OH275006   3.864   3.208  14.282  0.1930  0.6909  0.0729
17864TIP3    H175007   3.822   3.292  14.266  0.6987  1.0335  0.5304
17864TIP3    H275008   3.792   3.146  14.290 -0.1674  0.9734 -0.8199
17865TIP3   OH275009   6.265   3.330   4.497 -0.5862 -1.0539 -0.0911
17865TIP3    H175010   6.187   3.293   4.537 -1.1887 -0.8798 -1.0699
17865TIP3    H275011   6.269   3.420   4.529 -1.8091 -0.4936 -1.3918
17866TIP3   OH275012   1.989   1.236   0.878  0.2919 -0.6389 -0.0893
17866TIP3    H175013   1.983   1.323   0.917  0.1170 -0.6964  0.0168
17866TIP3    H275014   2.082   1.214   0.881  0.3994 -0.2615 -0.5466
17867TIP3   OH275015   3.985   4.858  15.381 -0.1102 -0.5770 -0.2233
17867TIP3    H175016   4.009   4.903  15.462 -1.0253 -0.1935 -0.1517
17867TIP3    H275017   4.068   4.838  15.339  0.3281  1.7741 -0.5889
17868TIP3   OH275018   4.264   4.734   0.208  0.2169  0.0219 -0.0909
17868TIP3    H175019   4.237   4.791   0.280 -1.1655 -0.5597 -0.1204
17868TIP3    H275020   4.359   4.725   0.219  0.5664  2.5603 -0.2873
17869TIP3   OH275021   0.265   6.359  10.975 -0.1824  0.1503 -0.3896
17869TIP3    H175022   0.296   6.290  10.916  1.5275  0.7148 -0.1961
17869TIP3    H275023   0.279   6.440  10.925 -0.1703  0.5148  0.2008
17870TIP3   OH275024   1.356   2.168   1.181 -0.1672 -0.1907  0.1879
17870TIP3    H175025   1.350   2.072   1.184 -2.3351 -0.0711  1.0462
17870TIP3    H275026   1.446   2.186   1.207 -0.1797 -1.9636  1.7424
17871TIP3   OH275027   3.908   5.887   0.297 -0.0519  0.8896  0.1212
17871TIP3    H175028   3.876   5.845   0.376 -0.1109  0.6050 -0.0534
17871TIP3    H275029   4.002   5.899   0.313 -0.0358  0.6940  0.1733
17872TIP3   OH275030   4.623   5.699  16.212 -0.4213 -0.3342 -0.2130
17872TIP3    H175031   4.536   5.706  16.173 -0.1326 -1.5323 -1.1303
17872TIP3    H275032   4.661   5.786  16.202 -0.8146 -0.2973 -1.5581
17873TIP3   OH275033   4.135   3.741  14.388 -0.3147 -0.5043 -0.4367
17873TIP3    H175034   4.071   3.716  14.321 -2.4052  0.7717  0.9588
17873TIP3    H275035   4.160   3.831  14.364  1.0382 -1.0025 -0.9867
17874TIP3   OH275036   1.102   1.556   2.434  0.0469  0.1875 -0.5720
17874TIP3    H175037   1.075   1.508   2.356 -0.8433 -1.2317  0.5453
17874TIP3    H275038   1.198   1.548   2.434  0.0149 -0.3354 -1.1927
17875TIP3   OH275039   1.538   6.435   0.252  0.4210 -0.4297  0.0030
17875TIP3    H175040   1.490   6.495   0.310  1.4736 -1.2107  1.7547
17875TIP3    H275041   1.487   6.354   0.255 -1.4746  0.4901 -3.0274
17876TIP3   OH275042   1.700   2.738   0.357  0.7861 -0.4565 -0.8908
17876TIP3    H175043   1.616   2.761   0.397  0.1142  0.2569 -2.6167
17876TIP3    H275044   1.765   2.776   0.415 -0.1524  0.6687 -0.5324
17877TIP3   OH275045   4.909   0.588   3.620  0.3974 -1.0588 -0.4538
17877TIP3    H175046   4.966   0.533   3.565 -1.3718 -2.6781 -0.7797
17877TIP3    H275047   4.885   0.531   3.693  2.1751  0.8531  1.7780
17878TIP3   OH275048   5.111   5.388  12.908 -0.1720  0.0972 -0.0295
17878TIP3    H175049   5.098   5.433  12.991 -0.8363  0.0391 -0.0966
17878TIP3    H275050   5.114   5.295  12.931  1.3630  0.1523  0.1294
17879TIP3   OH275051   6.088   3.447  12.299  0.0411  0.2822 -0.1871
17879TIP3    H175052   6.048   3.374  12.346  0.9850  1.0437  1.9286
17879TIP3    H275053   6.113   3.509  12.367 -0.6270  2.5739 -1.9021
17880TIP3   OH275054   0.826   3.648   0.196  0.6542  0.5086 -0.1738
17880TIP3    H175055   0.865   3.613   0.276 -0.5221  0.4787  0.4198
17880TIP3    H275056   0.794   3.735   0.221 -0.4489  0.1761 -0.3665
17881TIP3   OH275057   0.719   1.016   5.685  0.3531 -0.0295  0.7892
17881TIP3    H175058   0.791   1.003   5.747 -0.7395 -0.1730  2.0784
17881TIP3    H275059   0.695   1.108   5.695  0.6620  0.1477 -0.0044
17882TIP3   OH275060   0.024   5.521   4.124 -0.7074  0.1070  0.3491
17882TIP3    H175061   0.036   5.605   4.080  0.5218 -0.0676  0.3219
17882TIP3    H275062  -0.064   5.526   4.162 -0.1828  1.8805  1.4082
17883TIP3   OH275063   0.268   2.335   3.975 -0.2057  0.2275  0.1114
17883TIP3    H175064   0.291   2.419   4.015  2.2571  0.7669 -2.1610
17883TIP3    H275065   0.313   2.270   4.030 -0.1216  0.5951  0.4848
17884TIP3   OH275066   3.317   5.608   2.353  0.2575 -0.6079  0.1615
17884TIP3    H175067   3.279   5.612   2.266 -0.8708 -1.0905  0.6146
17884TIP3    H275068   3.313   5.516   2.377  0.8047 -0.5215  0.6252
17885TIP3   OH275069   3.341   4.142   5.409 -0.3599 -0.3484  0.5473
17885TIP3    H175070   3.361   4.071   5.470  0.8838  0.6668  1.3909
17885TIP3    H275071   3.342   4.221   5.464  1.4786  0.6866 -0.8850
17886TIP3   OH275072   3.760   2.779  11.514 -0.2530  0.6300 -0.0066
17886TIP3    H175073   3.771   2.694  11.473  1.0450  0.7050  0.1264
17886TIP3    H275074   3.777   2.842  11.444 -0.6819  0.7739  0.0187
17887TIP3   OH275075   4.395   0.329  11.971  0.2844 -0.9900 -0.5377
17887TIP3    H175076   4.312   0.365  12.001  1.3168  1.9603 -0.9217
17887TIP3    H275077   4.371   0.250  11.923 -2.3856  0.1237 -1.1893
17888TIP3   OH275078   4.103   2.896   5.317 -0.6769 -0.2096  0.0964
17888TIP3    H175079   4.048   2.819   5.306 -0.1079 -0.5128 -0.7193
17888TIP3    H275080   4.092   2.921   5.409 -2.8072  0.2243 -0.2296
17889TIP3   OH275081   0.011   5.887  12.741 -0.3118 -0.7828 -0.6421
17889TIP3    H175082  -0.024   5.956  12.796 -1.0547 -2.3246  0.9375
17889TIP3    H275083  -0.042   5.890  12.661 -0.2230  0.5323 -0.6651
17890TIP3   OH275084   5.691   5.294  17.064 -0.4339  0.8103 -0.5510
17890TIP3    H175085   5.688   5.210  17.111 -2.0695  0.6389 -0.9340
17890TIP3    H275086   5.768   5.338  17.101 -1.2109  0.3763  1.7662
17891TIP3   OH275087   6.009   4.036  14.002 -0.3336  0.3819  0.0979
17891TIP3    H175088   5.995   4.032  14.097 -1.8487  0.8473 -0.0804
17891TIP3    H275089   6.080   4.099  13.990  0.8651 -0.7363  0.9763
17892TIP3   OH275090   0.520   6.683   1.841  0.3777  0.0768 -0.4071
17892TIP3    H175091   0.611   6.713   1.834 -0.0755  1.2866 -1.7354
17892TIP3    H275092   0.513   6.610   1.780  1.3094 -2.5082  2.3413
17893TIP3   OH275093   0.824   1.084  11.273  0.8702  0.1418  0.1944
17893TIP3    H175094   0.798   0.997  11.242  0.2433 -0.0282  1.1660
17893TIP3    H275095   0.759   1.143  11.235  1.6587  0.2902 -0.9840
17894TIP3   OH275096   3.976   6.534  12.259  0.4365 -0.1880  0.0978
17894TIP3    H175097   3.949   6.458  12.310  0.4006 -0.5382 -0.4413
17894TIP3    H275098   4.052   6.569  12.307  0.5672 -0.6658  0.2475
17895TIP3   OH275099   5.509   2.698  12.803  0.2209  0.1401 -0.0787
17895TIP3    H175100   5.413   2.695  12.801  0.2198  0.4330 -0.6115
17895TIP3    H275101   5.536   2.638  12.733  0.3893  1.3320 -1.0832
17896TIP3   OH275102   1.160   0.524   0.294  0.5828 -0.4950 -0.2740
17896TIP3    H175103   1.166   0.469   0.216 -0.1164 -0.0318 -0.6645
17896TIP3    H275104   1.251   0.550   0.313  0.8540 -1.3260 -0.4053
17897TIP3   OH275105   4.572   3.673  12.850 -0.2396 -0.1864  0.2564
17897TIP3    H175106   4.627   3.726  12.792  0.2206  0.2013  1.0238
17897TIP3    H275107   4.537   3.604  12.794 -1.0965  1.0919 -0.8363
17898TIP3   OH275108   1.440   4.657   0.525  0.0917 -0.2911 -0.0607
17898TIP3    H175109   1.414   4.571   0.560 -0.9577 -0.0987 -0.3382
17898TIP3    H275110   1.452   4.642   0.432  0.3213 -0.2252 -0.0416
17899TIP3   OH275111   0.898   0.620  12.889 -0.0704 -0.3642 -0.0340
17899TIP3    H175112   0.970   0.627  12.827 -1.2298  1.9484 -1.2511
17899TIP3    H275113   0.853   0.539  12.866  0.0732 -0.0145 -1.6383
17900TIP3   OH275114   1.369   4.103  16.791  0.2958 -0.3389  0.5199
17900TIP3    H175115   1.463   4.115  16.775  0.3865 -0.6014  0.8405
17900TIP3    H275116   1.342   4.185  16.833  0.4226 -0.3356  0.5980
17901TIP3   OH275117   6.652   2.737   4.747  0.3051  0.6806 -0.2566
17901TIP3    H175118   6.668   2.734   4.841  1.2698  0.6031 -0.4074
17901TIP3    H275119   6.567   2.778   4.738  0.9482  2.3012  0.5853
17902TIP3   OH275120   3.692   3.998  12.971 -0.0227  0.0656  0.1051
17902TIP3    H175121   3.681   4.092  12.989  0.7771  0.2493 -0.3209
17902TIP3    H275122   3.631   3.980  12.900 -0.1033  0.2901  0.1171
17903TIP3   OH275123   4.794   3.326  16.584  0.0545 -0.2638 -0.6049
17903TIP3    H175124   4.847   3.376  16.522 -0.0965  0.1977 -0.3641
17903TIP3    H275125   4.737   3.391  16.626 -0.3316 -0.6720 -0.4782
17904TIP3   OH275126   6.647   3.045   6.361  0.6962  0.0320 -0.5893
17904TIP3    H175127   6.738   3.045   6.331  1.0790 -0.0688  0.5346
17904TIP3    H275128   6.647   3.105   6.436 -0.2715  0.4285 -0.9001
17905TIP3   OH275129   1.205   0.613   3.759  0.2030  0.1262  0.1136
17905TIP3    H175130   1.115   0.612   3.791  0.1580  1.3094  0.0529
17905TIP3    H275131   1.234   0.704   3.771  1.1237 -0.0602 -0.6086
17906TIP3   OH275132   0.547   6.008  11.127  0.2118  0.1576 -0.0585
17906TIP3    H175133   0.528   6.032  11.037  0.2714  0.4518  0.0051
17906TIP3    H275134   0.642   6.018  11.135  0.3565 -0.9283 -0.2686
17907TIP3   OH275135   2.874   0.175   1.922 -0.4525 -0.0488 -0.9115
17907TIP3    H175136   2.868   0.187   1.827 -1.3558  1.2399 -0.7231
17907TIP3    H275137   2.963   0.201   1.944  0.2338 -1.6870 -1.5409
17908TIP3   OH275138   6.153   6.148  16.290 -0.0593  0.6118  0.3891
17908TIP3    H175139   6.102   6.069  16.272 -0.4600  1.5462 -3.4015
17908TIP3    H275140   6.241   6.115  16.310  0.1220 -0.9034 -2.3704
17909TIP3   OH275141   6.010   2.407  16.524  0.3080 -0.1640  0.1065
17909TIP3    H175142   5.928   2.430  16.568  1.5648  1.8178  1.6091
17909TIP3    H275143   6.009   2.312  16.520 -1.4095 -0.2480  1.3982
17910TIP3   OH275144   5.199   0.045  16.203  0.3671 -0.4290  0.3541
17910TIP3    H175145   5.169   0.009  16.120 -0.0942  2.0133 -0.6214
17910TIP3    H275146   5.289   0.015  16.211  0.8763  0.4028 -1.7431
17911TIP3   OH275147   0.112   1.030  13.616 -0.3662 -0.0021  0.0871
17911TIP3    H175148   0.118   1.125  13.621  1.1256  0.1966 -2.9844
17911TIP3    H275149   0.189   0.998  13.663 -0.7590  0.2795  0.9431
17912TIP3   OH275150   0.011   0.225   4.412  0.4750  0.2549  0.5083
17912TIP3    H175151  -0.070   0.265   4.442  0.9414  2.1178 -0.6016
17912TIP3    H275152   0.000   0.215   4.318  1.0452 -0.7007  0.5279
17913TIP3   OH275153   4.592   6.774  13.370  0.0297  0.6344 -0.5751
17913TIP3    H175154   4.497   6.766  13.380 -0.0102 -0.2879 -1.4561
17913TIP3    H275155   4.603   6.805  13.280  0.5661  0.8301 -0.4454
17914TIP3   OH275156   2.171   2.422  14.222  0.3314 -0.6891  0.1291
17914TIP3    H175157   2.092   2.410  14.169 -0.7585 -2.4020  1.9954
17914TIP3    H275158   2.240   2.379  14.172  0.1134  0.7138 -1.4718
17915TIP3   OH275159   1.761   0.420   4.200  0.0767  0.4596  0.1219
17915TIP3    H175160   1.782   0.342   4.252 -1.0649 -0.7610 -1.1723
17915TIP3    H275161   1.834   0.428   4.139 -0.4060 -0.3949 -0.5952
17916TIP3   OH275162   6.711   0.293   0.765 -0.0059 -0.7904 -0.0160
17916TIP3    H175163   6.636   0.333   0.809 -0.3994 -0.2880 -1.1083
17916TIP3    H275164   6.729   0.214   0.817 -0.0677  0.0765  1.3777
17917TIP3   OH275165   3.959   6.537   5.953  0.0413 -0.3615 -0.1140
17917TIP3    H175166   3.897   6.510   6.020 -0.2614 -0.8741 -0.5903
17917TIP3    H275167   4.038   6.488   5.972  0.3726  0.4188  0.5954
17918TIP3   OH275168   5.999   5.275  11.126 -0.5141 -0.4015 -0.8571
17918TIP3    H175169   5.952   5.293  11.044 -1.4688 -1.1641 -0.4965
17918TIP3    H275170   6.078   5.328  11.120 -0.7044 -0.2236 -2.1499
17919TIP3   OH275171   4.220   0.193  16.977  0.4412 -0.6681 -0.3748
17919TIP3    H175172   4.141   0.149  17.009  0.9042 -0.0605  1.7838
17919TIP3    H275173   4.202   0.212  16.885 -2.3319  0.3476  0.3011
17920TIP3   OH275174   0.646   3.678  13.867 -0.0015 -0.6299  0.1133
17920TIP3    H175175   0.662   3.657  13.775 -3.0280 -1.4123 -0.3382
17920TIP3    H275176   0.662   3.772  13.873  0.7022 -0.6571 -1.0928
17921TIP3   OH275177   1.619   4.618   2.778 -0.1871  0.1012 -0.3695
17921TIP3    H175178   1.608   4.619   2.683 -0.0899  0.6278 -0.3730
17921TIP3    H275179   1.649   4.528   2.797 -0.5773 -0.1211 -0.7888
17922TIP3   OH275180   1.141   4.513  11.872  0.3205  0.1761  1.1271
17922TIP3    H175181   1.159   4.505  11.966  0.5323 -0.0596  1.0685
17922TIP3    H275182   1.210   4.461  11.830 -0.2137 -0.3309  0.8723
17923TIP3   OH275183   4.596   3.507   3.709 -0.6919  0.2551  0.0482
17923TIP3    H175184   4.596   3.594   3.747  1.7948  0.5867 -0.5190
17923TIP3    H275185   4.686   3.494   3.679 -1.0549 -2.4002 -0.1470
17924TIP3   OH275186   1.237   2.874  13.164  0.2678 -0.1510  0.8552
17924TIP3    H175187   1.254   2.967  13.179 -1.9267  0.5026 -0.2287
17924TIP3    H275188   1.143   2.869  13.146  0.7978 -2.1211 -2.1689
17925TIP3   OH275189   6.349   5.204  11.425 -0.0645  0.3080 -0.3697
17925TIP3    H175190   6.279   5.172  11.483 -0.7852  1.3368 -0.6564
17925TIP3    H275191   6.366   5.293  11.455  0.6897  0.2847 -0.7128
17926TIP3   OH275192   0.032   3.986   6.003  0.0564  0.5524 -0.1302
17926TIP3    H175193  -0.062   3.997   5.990 -0.0603  0.1751  0.3707
17926TIP3    H275194   0.065   4.076   6.012 -0.1684  0.7124 -0.8390
17927TIP3   OH275195   4.081   4.283  14.490 -0.7584 -0.1899 -0.2399
17927TIP3    H175196   4.033   4.257  14.569  0.8899 -0.6911  0.6289
17927TIP3    H275197   4.047   4.226  14.421 -2.4967  0.5079 -0.0300
17928TIP3   OH275198   4.189   4.495  12.696 -0.0820  0.5114 -0.2306
17928TIP3    H175199   4.215   4.575  12.650  0.8961  0.4245  0.1406
17928TIP3    H275200   4.099   4.478  12.667 -0.9466  2.6899  0.9849
17929TIP3   OH275201   3.577   5.478  15.669 -0.3514 -0.1259  0.1299
17929TIP3    H175202   3.486   5.491  15.697  0.0227  0.5177  1.1214
17929TIP3    H275203   3.593   5.549  15.607 -0.6486 -0.5033 -0.3893
17930TIP3   OH275204   3.798   1.628   4.911 -0.2367 -0.6377 -0.7723
17930TIP3    H175205   3.719   1.679   4.896  0.2720 -0.1119 -1.8180
17930TIP3    H275206   3.782   1.544   4.867  0.1681 -0.1391 -1.9178
17931TIP3   OH275207   4.239   5.610  14.115 -0.1454 -0.1381 -0.7591
17931TIP3    H175208   4.228   5.687  14.171 -0.2766 -0.6636 -0.0463
17931TIP3    H275209   4.329   5.581  14.131  0.3616  0.6358 -2.0464
17932TIP3   OH275210   5.061   2.959  12.159 -0.2323  0.6382 -0.3475
17932TIP3    H175211   4.968   2.937  12.159  0.2952 -2.0900  1.5152
17932TIP3    H275212   5.082   2.979  12.250  1.3775 -0.9022 -0.3143
17933TIP3   OH275213   4.097   5.055  11.675 -0.6151  0.3027 -0.1977
17933TIP3    H175214   4.050   5.040  11.592 -0.8950 -0.4110  0.0796
17933TIP3    H275215   4.176   5.003  11.667 -1.0791 -0.5062  0.3432
17934TIP3   OH275216   4.372   1.610  10.392  0.0355 -0.1458  0.3880
17934TIP3    H175217   4.433   1.677  10.423  1.5432 -0.8073 -1.0290
17934TIP3    H275218   4.395   1.597  10.300 -2.4669 -0.2100 -0.2901
17935TIP3   OH275219   6.118   5.018  15.667  0.3438 -0.3885  0.0484
17935TIP3    H175220   6.050   5.031  15.602 -3.7627 -1.0096  3.7292
17935TIP3    H275221   6.135   4.924  15.668  0.3864 -0.3819 -0.1037
17936TIP3   OH275222   5.154   2.305   1.285  0.6654 -0.1348 -0.3739
17936TIP3    H175223   5.173   2.214   1.262  0.0591 -0.5003  0.5213
17936TIP3    H275224   5.230   2.333   1.336 -0.1168 -0.8673  1.2521
17937TIP3   OH275225   1.009   3.212   4.263  0.2418  0.7657  0.4149
17937TIP3    H175226   0.982   3.215   4.172  3.6397  0.5186 -0.7348
17937TIP3    H275227   1.076   3.280   4.271  2.1672 -1.1637  1.8961
17938TIP3   OH275228   5.693   2.638   3.534  0.3557 -0.4533 -0.2261
17938TIP3    H175229   5.724   2.667   3.449  0.5912 -1.0789 -0.3611
17938TIP3    H275230   5.648   2.555   3.516 -1.9805  0.7271 -0.1340
17939TIP3   OH275231   2.685   2.744  11.626 -0.0175 -0.2755 -0.1627
17939TIP3    H175232   2.646   2.756  11.539 -2.1412 -1.7350  0.5099
17939TIP3    H275233   2.613   2.713  11.680  1.8732 -2.0396  1.4803
17940TIP3   OH275234   5.334   6.532  14.520 -0.1630 -0.0682 -0.1166
17940TIP3    H175235   5.264   6.596  14.508  1.0493  1.3187 -0.0769
17940TIP3    H275236   5.362   6.510  14.431 -0.2267 -0.1264 -0.1218
17941TIP3   OH275237   1.825   4.638  12.283 -0.0832 -0.5982 -0.6526
17941TIP3    H175238   1.765   4.618  12.211  0.2565  0.5189 -1.2765
17941TIP3    H275239   1.773   4.688  12.345  0.3075  0.9116 -1.4825
17942TIP3   OH275240   1.781   0.715   2.227 -1.0427 -0.5725 -0.4796
17942TIP3    H175241   1.859   0.745   2.181 -0.3710 -0.1338  0.9094
17942TIP3    H275242   1.708   0.744   2.172 -0.2922  0.5954 -0.8964
17943TIP3   OH275243   2.147   4.040  17.020 -0.8364 -0.0120  0.4332
17943TIP3    H175244   2.108   4.059  17.105  0.9557 -1.3823  1.6466
17943TIP3    H275245   2.086   3.978  16.979 -0.2792 -1.7080  2.0619
17944TIP3   OH275246   2.847   0.908  12.718 -0.3991  0.3688 -0.2434
17944TIP3    H175247   2.816   0.972  12.781 -0.8519  0.3307 -0.4214
17944TIP3    H275248   2.807   0.825  12.746 -1.5794  0.5692 -1.2568
17945TIP3   OH275249   6.324   4.767  10.991  0.3007  0.0846 -0.5872
17945TIP3    H175250   6.256   4.763  11.059  0.5504 -0.1234 -0.3473
17945TIP3    H275251   6.358   4.678  10.986  1.8123  0.5573  0.5792
17946TIP3   OH275252   2.635   4.557  17.053 -0.5507  0.1689 -0.1144
17946TIP3    H175253   2.593   4.572  16.968  1.2661 -0.3100 -1.1447
17946TIP3    H275254   2.727   4.542  17.032 -0.2626 -1.1598  1.8447
17947TIP3   OH275255   4.257   2.934  14.294 -0.1274 -0.4752 -0.7336
17947TIP3    H175256   4.320   3.005  14.284 -0.4661  0.1820  1.3271
17947TIP3    H275257   4.177   2.967  14.253 -0.5854  0.8116  1.0904
17948TIP3   OH275258   2.238   4.890  12.919 -0.0970 -0.3388  0.2585
17948TIP3    H175259   2.166   4.945  12.951 -0.5521  0.2216 -1.5880
17948TIP3    H275260   2.285   4.947  12.858  3.9448  0.4492  3.6477
17949TIP3   OH275261   4.949   0.157  13.628 -0.0006 -0.1909  0.5469
17949TIP3    H175262   4.920   0.219  13.561  0.9888 -0.3898 -0.0789
17949TIP3    H275263   4.892   0.175  13.703 -0.5132  0.6625 -0.0307
17950TIP3   OH275264   0.581   3.195  16.596  1.2198  0.1596 -0.8033
17950TIP3    H175265   0.610   3.228  16.512  0.6247  2.9689  0.0080
17950TIP3    H275266   0.487   3.177  16.583  1.3504 -0.4408 -0.9864
17951TIP3   OH275267   6.262   2.588   1.293 -0.2769  0.1797 -0.1252
17951TIP3    H175268   6.284   2.499   1.268 -0.0625 -0.0135  0.7130
17951TIP3    H275269   6.166   2.588   1.300 -0.3256  0.2025 -0.8049
17952TIP3   OH275270   6.498   5.239   4.584 -0.4624  0.3358  0.2634
17952TIP3    H175271   6.525   5.295   4.657 -0.0418 -1.4118  1.5218
17952TIP3    H275272   6.580   5.205   4.548 -0.6932  0.8027 -0.7485
17953TIP3   OH275273   0.945   0.274   1.512 -0.3264  0.2533 -0.3820
17953TIP3    H175274   0.948   0.283   1.607  2.2727  0.5601 -0.4197
17953TIP3    H275275   0.877   0.209   1.496  0.7046 -1.5211  1.8619
17954TIP3   OH275276   0.620   0.718  17.043  0.7315 -0.4315  0.3669
17954TIP3    H175277   0.674   0.772  16.986 -1.1510  1.7429  0.4813
17954TIP3    H275278   0.613   0.768  17.124  0.0081 -1.4948  0.9861
17955TIP3   OH275279   0.737   1.148   1.669 -0.8636  0.0138  0.4242
17955TIP3    H175280   0.685   1.225   1.691 -0.8092 -0.3986  2.1790
17955TIP3    H275281   0.809   1.149   1.733 -0.4387 -1.0847 -0.0054
17956TIP3   OH275282   6.569   1.672   5.626  0.0820  0.2467 -0.1720
17956TIP3    H175283   6.606   1.629   5.549 -1.3773 -0.4473 -0.5231
17956TIP3    H275284   6.509   1.607   5.663  0.3602  0.7602  1.2643
17957TIP3   OH275285   3.883   5.593   1.890 -0.1789 -0.3789 -0.4572
17957TIP3    H175286   3.829   5.514   1.899 -0.0821 -0.4007 -0.0457
17957TIP3    H275287   3.833   5.649   1.831 -2.7846  1.4079  3.1145
17958TIP3   OH275288   1.499   3.321   2.076  0.2718  0.2416 -0.1355
17958TIP3    H175289   1.448   3.250   2.038  2.0536 -0.9993 -0.3403
17958TIP3    H275290   1.554   3.353   2.004 -0.2135  1.5707  0.0577
17959TIP3   OH275291   4.928   0.656  12.574  0.0182  0.0876 -0.7561
17959TIP3    H175292   4.841   0.694  12.579 -0.5303 -1.2647  0.8911
17959TIP3    H275293   4.982   0.724  12.533 -0.4666  3.3819  3.4522
17960TIP3   OH275294   6.192   1.569  11.445  0.3024 -0.7326  0.1501
17960TIP3    H175295   6.227   1.658  11.440  0.4954 -0.8376 -0.3885
17960TIP3    H275296   6.117   1.569  11.385  0.7028 -1.1161 -0.3490
17961TIP3   OH275297   3.624   2.110   0.291 -0.1845 -0.5532  0.1547
17961TIP3    H175298   3.579   2.194   0.290 -0.2114 -0.5651  0.3091
17961TIP3    H275299   3.707   2.128   0.335 -0.2045 -0.6137  0.2173
17962TIP3   OH275300   2.880   1.521   0.741  0.0272  0.2689  0.4961
17962TIP3    H175301   2.855   1.520   0.649  0.3590 -0.6628  0.4065
17962TIP3    H275302   2.812   1.573   0.784 -1.2574 -0.9656  0.0257
17963TIP3   OH275303   2.515   5.541  15.271 -0.2405  0.2347  0.2844
17963TIP3    H175304   2.445   5.605  15.282 -1.4786 -1.1053  0.5673
17963TIP3    H275305   2.499   5.476  15.340  0.6917 -0.6265 -0.2762
17964TIP3   OH275306   1.515   3.087   5.351  0.2981 -0.3333  0.0105
17964TIP3    H175307   1.533   3.063   5.261  1.9215  0.8627 -0.0261
17964TIP3    H275308   1.590   3.055   5.400 -0.3822 -0.6301  0.9019
17965TIP3   OH275309   1.039   2.652  11.191 -0.9826 -0.3134  0.2587
17965TIP3    H175310   1.100   2.677  11.261 -1.0284  1.5190 -0.2883
17965TIP3    H275311   1.087   2.590  11.137 -1.1438 -2.2361  2.1874
17966TIP3   OH275312   1.645   4.141  11.737  0.5077  0.4365 -0.1177
17966TIP3    H175313   1.701   4.218  11.746  0.9468 -0.0390  1.3303
17966TIP3    H275314   1.615   4.145  11.646  2.2115  1.1545 -0.6940
17967TIP3   OH275315   4.017   5.757  16.198  0.5649 -0.0819  0.2989
17967TIP3    H175316   3.925   5.774  16.179  0.4675 -0.5711  0.3218
17967TIP3    H275317   4.054   5.730  16.114  0.3449 -1.3367  0.5876
17968TIP3   OH275318   4.598   5.175  16.724 -0.2229 -0.0542 -0.2467
17968TIP3    H175319   4.686   5.179  16.760 -0.8602 -0.8846  1.5120
17968TIP3    H275320   4.610   5.184  16.629  1.8379 -1.2094 -0.1415
17969TIP3   OH275321   4.943   3.009   5.357  0.5823 -0.5027  0.1000
17969TIP3    H175322   4.910   3.051   5.436  0.7976 -3.0729  1.6661
17969TIP3    H275323   4.884   2.935   5.343  0.0629  0.3095 -2.6885
17970TIP3   OH275324   4.307   2.662   3.017  0.5793 -0.1834 -0.0145
17970TIP3    H175325   4.379   2.667   3.080  0.9324  0.4637 -0.4494
17970TIP3    H275326   4.340   2.606   2.947  1.1995  1.1582 -0.8514
17971TIP3   OH275327   5.386   3.117   3.582  0.7424 -0.0474 -0.0380
17971TIP3    H175328   5.468   3.077   3.554 -0.1152 -2.0452  0.1594
17971TIP3    H275329   5.402   3.146   3.671  1.1144 -0.8197  0.1496
17972TIP3   OH275330   1.384   4.089   6.407 -0.4271 -0.0518 -0.2914
17972TIP3    H175331   1.369   4.035   6.329  3.1189 -0.7637 -0.6313
17972TIP3    H275332   1.470   4.128   6.393 -1.0222  2.3202  1.9260
17973TIP3   OH275333   6.709   5.315  14.936  0.4090  0.0139  0.3460
17973TIP3    H175334   6.678   5.283  14.851  0.3679 -0.4369  0.5277
17973TIP3    H275335   6.647   5.383  14.960  1.3435  1.3110 -0.7450
17974TIP3   OH275336   1.698   1.325   0.790  0.0066  0.5862  0.4233
17974TIP3    H175337   1.700   1.407   0.740 -0.4701  1.5036  1.8651
17974TIP3    H275338   1.765   1.337   0.858  0.4336 -0.5246  0.2178
17975TIP3   OH275339   0.587   1.058  13.540  0.0464 -0.5763 -0.2158
17975TIP3    H175340   0.605   1.067  13.446 -0.5901 -0.6881 -0.3567
17975TIP3    H275341   0.664   1.013  13.575  0.8054  0.4989 -0.4702
17976TIP3   OH275342   6.510   0.148   2.215  0.1773 -0.2960 -0.1693
17976TIP3    H175343   6.582   0.103   2.172 -0.4394 -0.2255 -1.3143
17976TIP3    H275344   6.458   0.078   2.255 -0.2781 -0.5556 -1.1720
17977TIP3   OH275345   5.350   2.501  13.069 -0.0233  0.0850 -0.2635
17977TIP3    H175346   5.395   2.573  13.026 -0.7649  0.5492 -0.2635
17977TIP3    H275347   5.347   2.431  13.003  0.2944  0.2129 -0.4108
17978TIP3   OH275348   5.733   6.256  13.334 -0.3704 -0.4724  0.0063
17978TIP3    H175349   5.745   6.351  13.338  0.1185 -0.4009 -1.9774
17978TIP3    H275350   5.822   6.221  13.323 -0.3248 -1.3539  2.5706
17979TIP3   OH275351   1.489   1.239  16.054 -0.0431  0.9510  0.2069
17979TIP3    H175352   1.497   1.319  16.105  0.4095  1.2068 -0.2592
17979TIP3    H275353   1.415   1.193  16.093 -0.3747  1.6441  0.4087
17980TIP3   OH275354   2.028   4.020   1.617  0.2855 -0.0960  0.2217
17980TIP3    H175355   2.027   3.935   1.572 -2.3821 -0.6008  1.0486
17980TIP3    H275356   2.112   4.021   1.663  0.9878 -1.6614 -0.9200
17981TIP3   OH275357   3.778   5.673   4.209  0.1548 -0.4156 -0.2506
17981TIP3    H175358   3.855   5.687   4.264 -0.6981 -1.1379  1.1796
17981TIP3    H275359   3.720   5.746   4.231 -0.1834 -0.6986 -0.1951
17982TIP3   OH275360   2.022   3.400   1.322 -0.1861  0.9170  0.3744
17982TIP3    H175361   2.036   3.486   1.362 -1.0899  0.9537  0.6301
17982TIP3    H275362   2.110   3.363   1.313  0.0603  0.7778  2.7256
17983TIP3   OH275363   5.288   1.207   5.530 -0.0371  0.7237  0.1749
17983TIP3    H175364   5.275   1.205   5.624  2.1193  2.0826  0.5663
17983TIP3    H275365   5.335   1.289   5.514 -0.1434  0.4125 -2.0501
17984TIP3   OH275366   3.814   1.945  14.854 -0.1869 -0.2087  0.0042
17984TIP3    H175367   3.729   1.907  14.829  0.5441 -1.4909 -0.6590
17984TIP3    H275368   3.794   2.000  14.929 -1.7416  0.1694 -0.6417
17985TIP3   OH275369   2.529   4.818   3.270  0.7676 -0.3220  0.0232
17985TIP3    H175370   2.499   4.901   3.308 -1.0236  0.4050 -2.7113
17985TIP3    H275371   2.606   4.843   3.218  0.7479 -0.5452 -0.1110
17986TIP3   OH275372   1.501   3.130  13.458 -0.4465 -0.0715 -0.0825
17986TIP3    H175373   1.467   3.047  13.489 -0.0155  0.0810  0.8267
17986TIP3    H275374   1.560   3.107  13.386  0.5809 -0.6612  0.9263
17987TIP3   OH275375   5.940   3.378  16.500 -0.5479 -0.1324 -0.2084
17987TIP3    H175376   6.020   3.374  16.448 -0.0757 -0.1886  0.5107
17987TIP3    H275377   5.919   3.286  16.518 -1.4189 -0.1820 -1.3420
17988TIP3   OH275378   1.673   2.225  13.696  0.1790 -0.3633  0.2839
17988TIP3    H175379   1.633   2.291  13.753  0.0134 -0.3727  0.1778
17988TIP3    H275380   1.703   2.157  13.756  2.9781  1.1252  0.7070
17989TIP3   OH275381   4.865   0.491  15.024  0.0385  0.0730  0.0600
17989TIP3    H175382   4.890   0.528  15.109 -1.0518  0.4055  0.2481
17989TIP3    H275383   4.945   0.494  14.972  0.0995  2.3629  0.1877
17990TIP3   OH275384   1.512   4.969  14.802  0.0229 -0.0911 -0.1440
17990TIP3    H175385   1.593   4.973  14.752  1.1157  1.0060  1.6288
17990TIP3    H275386   1.462   5.046  14.775 -0.6038 -0.8902 -1.4082
17991TIP3   OH275387   1.088   2.581  15.732  0.4405  0.6114 -0.4103
17991TIP3    H175388   1.094   2.613  15.642  1.4432 -0.3995 -0.7304
17991TIP3    H275389   1.026   2.508  15.727  0.3023  0.7157 -0.2273
17992TIP3   OH275390   0.852   1.804  11.090 -0.2282  0.2295  0.5662
17992TIP3    H175391   0.927   1.756  11.125 -0.7416 -1.1532 -0.1565
17992TIP3    H275392   0.876   1.823  10.999  0.5944  2.7360  1.2260
17993TIP3   OH275393   3.729   5.356   4.477 -0.2789  0.6305 -0.6208
17993TIP3    H175394   3.746   5.307   4.558  0.6689  0.3894 -0.9556
17993TIP3    H275395   3.634   5.362   4.472 -0.3932 -0.6893 -0.2767
17994TIP3   OH275396   5.140   2.507   2.771  0.4553 -0.0221 -0.3056
17994TIP3    H175397   5.084   2.431   2.759  1.0255 -0.3019 -1.2654
17994TIP3    H275398   5.132   2.528   2.864 -2.5979  1.0264 -0.7043
17995TIP3   OH275399   0.477   6.635   0.277  0.0013 -0.0448 -0.2009
17995TIP3    H175400   0.486   6.705   0.213  1.5640 -0.3544 -0.3400
17995TIP3    H275401   0.465   6.681   0.361  1.8605  0.4322 -0.1637
17996TIP3   OH275402   1.988   1.009  12.734  0.8505  0.0659  1.0613
17996TIP3    H175403   2.074   1.024  12.774  1.6714 -0.4355 -0.4270
17996TIP3    H275404   1.980   0.914  12.732 -0.1196  0.1128  1.9070
17997TIP3   OH275405   6.769   4.165   3.188  0.2421 -0.4730 -0.3550
17997TIP3    H175406   6.677   4.191   3.190  0.5926  0.8992 -0.8082
17997TIP3    H275407   6.778   4.118   3.105  0.0410 -0.2169 -0.5260
17998TIP3   OH275408   5.933   2.850   4.266 -0.3483  0.2484 -0.2738
17998TIP3    H175409   6.002   2.816   4.323 -0.2813 -2.0343 -1.5851
17998TIP3    H275410   5.854   2.804   4.294 -0.6260  0.2872 -0.9712
17999TIP3   OH275411   0.876   0.842  14.988 -0.4616 -0.1312  0.1179
17999TIP3    H175412   0.961   0.877  14.963 -1.3304  0.5348 -2.2137
17999TIP3    H275413   0.857   0.882  15.072  1.0931  0.4550  0.2224
18000TIP3   OH275414   5.122   5.984   6.318 -0.5775  0.4054 -0.5345
18000TIP3    H175415   5.155   6.060   6.366 -0.2352  0.1254 -0.3283
18000TIP3    H275416   5.124   6.012   6.226 -2.7383  1.5342 -0.3046
18001TIP3   OH275417   2.897   1.580   4.470 -0.3645  0.0298 -0.3731
18001TIP3    H175418   2.935   1.497   4.500 -1.4418 -0.7561 -1.0679
18001TIP3    H275419   2.971   1.639   4.462  0.2821 -0.5078  1.2545
18002TIP3   OH275420   2.828   3.231   5.764  0.0429  0.4271 -0.3008
18002TIP3    H175421   2.742   3.270   5.780 -1.3463 -2.4778 -0.0107
18002TIP3    H275422   2.862   3.279   5.689 -1.9941  1.4231 -0.6635
18003TIP3   OH275423   0.995   5.211   2.563 -0.3382  0.2737  0.1317
18003TIP3    H175424   1.071   5.263   2.538 -0.0881 -0.8201 -1.5644
18003TIP3    H275425   0.948   5.266   2.626  1.5742  1.1747  0.8730
18004TIP3   OH275426   2.363   2.755   1.739  0.2674  0.0953  0.0594
18004TIP3    H175427   2.370   2.661   1.758  0.0472 -0.0108 -0.3736
18004TIP3    H275428   2.299   2.761   1.668 -0.6733  0.6758  0.9262
18005TIP3   OH275429   4.189   3.955   1.432  0.3300 -0.5628  0.7633
18005TIP3    H175430   4.256   4.001   1.381 -0.2431 -0.1582  0.3582
18005TIP3    H275431   4.210   3.976   1.523  0.4554 -0.0213  0.6147
18006TIP3   OH275432   3.020   4.997  14.244  0.4293  0.5155  0.0306
18006TIP3    H175433   3.029   5.090  14.224  0.9906  0.4932  0.1600
18006TIP3    H275434   3.073   4.952  14.178  1.0255  0.3535  0.6030
18007TIP3   OH275435   4.259   4.701  15.414 -0.3282 -0.3478  0.1403
18007TIP3    H175436   4.248   4.646  15.491  1.1694 -1.0677 -0.1311
18007TIP3    H275437   4.328   4.764  15.437 -0.2074 -0.2550 -0.4344
18008TIP3   OH275438   0.442   2.272  13.754  0.3606 -0.3599 -0.0889
18008TIP3    H175439   0.464   2.256  13.662  0.2549  0.5491 -0.2764
18008TIP3    H275440   0.505   2.218  13.803 -0.0993 -1.4767 -0.6923
18009TIP3   OH275441   0.812   4.717   0.463 -0.7063 -1.2181 -0.0963
18009TIP3    H175442   0.769   4.775   0.525 -0.5622 -1.0471 -0.1569
18009TIP3    H275443   0.823   4.635   0.511  2.0573 -0.2262  1.1391
18010TIP3   OH275444   6.197   4.963   1.038  0.2846 -0.7238 -0.5726
18010TIP3    H175445   6.160   4.953   1.125  0.8437 -2.7878 -0.5229
18010TIP3    H275446   6.123   4.994   0.984  0.0015  0.8022  0.6393
18011TIP3   OH275447   5.818   3.613   1.132 -0.5258 -0.4205 -0.0981
18011TIP3    H175448   5.908   3.618   1.167 -0.1772  1.5862 -1.1213
18011TIP3    H275449   5.826   3.563   1.051  0.1323  1.5871 -1.3409
18012TIP3   OH275450   0.546   4.779   6.349  0.0579  0.2147  0.3077
18012TIP3    H175451   0.518   4.808   6.436  1.2623 -0.2300  0.8690
18012TIP3    H275452   0.474   4.724   6.318  0.3689 -1.1393  1.8170
18013TIP3   OH275453   0.827   5.772   3.104  0.4608  0.0255  0.3792
18013TIP3    H175454   0.853   5.741   3.190 -0.9481 -0.1253  0.7740
18013TIP3    H275455   0.779   5.854   3.121 -0.1036 -0.1696 -0.2175
18014TIP3   OH275456   4.877   1.332   1.374  0.3188 -0.4743  0.5007
18014TIP3    H175457   4.806   1.285   1.419 -0.8071  0.1508 -0.5536
18014TIP3    H275458   4.897   1.406   1.431  0.5709 -0.9955  1.1024
18015TIP3   OH275459   3.886   3.589   1.046 -0.1257  0.5360 -0.0237
18015TIP3    H175460   3.963   3.641   1.026  2.5727 -2.5945  1.4153
18015TIP3    H275461   3.867   3.607   1.138  0.6849 -0.7689  0.4193
18016TIP3   OH275462   1.167   4.571  16.853 -0.2335  0.0445 -0.5148
18016TIP3    H175463   1.211   4.496  16.892 -1.6153 -0.5314 -0.0012
18016TIP3    H275464   1.198   4.646  16.903  0.5192 -0.2754 -0.4874
18017TIP3   OH275465   3.142   6.526  15.029 -0.8085 -0.2087  0.4516
18017TIP3    H175466   3.092   6.583  15.088 -1.3182 -2.8287  2.7513
18017TIP3    H275467   3.124   6.438  15.060  1.3545 -1.5732 -1.8103
18018TIP3   OH275468   0.661   0.690  13.214 -0.0000 -0.0472 -0.0673
18018TIP3    H175469   0.741   0.638  13.221  0.2141  0.0955 -1.2426
18018TIP3    H275470   0.638   0.712  13.305  0.7705 -0.8662  0.3374
18019TIP3   OH275471   5.770   3.226   3.379  0.0086 -0.0366  0.5647
18019TIP3    H175472   5.767   3.131   3.373  2.3074 -0.1507  0.1566
18019TIP3    H275473   5.741   3.245   3.468 -1.4624 -1.0064  0.3267
18020TIP3   OH275474   0.764   1.561   3.819  0.1858  0.0041  0.2880
18020TIP3    H175475   0.757   1.512   3.901  1.2086  1.3536  1.2277
18020TIP3    H275476   0.854   1.547   3.790  0.3297  0.8478  0.2837
18021TIP3   OH275477   2.401   4.170  17.044  0.4171 -0.4919  0.7267
18021TIP3    H175478   2.324   4.114  17.048  1.3785 -1.8425  1.0374
18021TIP3    H275479   2.389   4.233  17.116 -0.9127  0.0587  0.0524
18022TIP3   OH275480   4.023   0.030   4.661 -0.1706  0.4781 -0.4082
18022TIP3    H175481   4.030   0.126   4.661 -0.2503  0.5171  1.5075
18022TIP3    H275482   4.113  -0.000   4.646  0.4328  0.9144  1.8494
18023TIP3   OH275483   2.735   6.246   6.012 -0.4936 -0.2665 -0.2911
18023TIP3    H175484   2.733   6.240   6.108 -2.1853 -0.4457 -0.3088
18023TIP3    H275485   2.653   6.288   5.989 -0.2426 -0.4948 -1.6966
18024TIP3   OH275486   1.928   1.118  13.772  0.5455  0.0758 -0.0908
18024TIP3    H175487   1.978   1.165  13.705 -0.5471  0.4891 -0.6318
18024TIP3    H275488   1.983   1.043  13.794  0.7244 -0.3293 -1.8051
18025TIP3   OH275489   5.855   4.432   0.807 -0.0147  0.0613  0.0887
18025TIP3    H175490   5.949   4.453   0.813 -0.0351  0.2176 -0.1213
18025TIP3    H275491   5.829   4.466   0.722 -0.3140  0.2174  0.2431
18026TIP3   OH275492   6.650   4.280  13.006 -0.2708 -0.5570  0.3660
18026TIP3    H175493   6.720   4.249  12.948 -1.7947 -2.4638 -0.5648
18026TIP3    H275494   6.624   4.365  12.970 -0.8692 -1.4822 -1.5240
18027TIP3   OH275495   2.694   1.121   1.022  0.2683 -0.0464  0.2047
18027TIP3    H175496   2.771   1.079   0.984 -0.0825 -0.1940 -0.3545
18027TIP3    H275497   2.699   1.212   0.992  0.9512  0.2957  1.2980
18028TIP3   OH275498   3.677   3.896  17.037  0.0821  0.2488 -0.0347
18028TIP3    H175499   3.591   3.888  16.995  0.0944  0.4574 -0.1038
18028TIP3    H275500   3.664   3.964  17.104  0.3710  0.8025 -0.5263
18029TIP3   OH275501   6.426   4.813   0.604  0.2202  0.6872 -0.4442
18029TIP3    H175502   6.391   4.891   0.561 -2.8693 -0.1571  0.2692
18029TIP3    H275503   6.433   4.837   0.697 -0.4019  0.2675 -0.2782
18030TIP3   OH275504   3.257   3.155   1.867  0.0333 -0.1158 -0.2725
18030TIP3    H175505   3.205   3.177   1.944  1.1941  0.5518  0.3445
18030TIP3    H275506   3.343   3.131   1.901 -0.1765 -2.4013 -1.1871
18031TIP3   OH275507   3.080   6.774   2.160  0.0126  0.2667  0.1823
18031TIP3    H175508   3.002   6.719   2.150  0.9880 -0.8169 -3.0446
18031TIP3    H275509   3.153   6.715   2.139  1.5610  1.6517  1.4325
18032TIP3   OH275510   4.704   1.456   2.160  0.0411 -0.0815  0.2613
18032TIP3    H175511   4.625   1.403   2.150  0.0093  0.0753 -0.3231
18032TIP3    H275512   4.776   1.392   2.161  0.0328 -0.1175 -0.8122
18033TIP3   OH275513   2.325   0.299  16.670 -0.4532 -0.1234 -0.0139
18033TIP3    H175514   2.357   0.364  16.608  0.6473 -1.0426 -0.4551
18033TIP3    H275515   2.306   0.348  16.750 -1.6365  1.0385 -0.9575
18034TIP3   OH275516   4.267   6.287  16.313 -0.0331  0.0275 -0.5420
18034TIP3    H175517   4.221   6.304  16.395 -0.5042  1.4750 -1.0848
18034TIP3    H275518   4.242   6.197  16.290  2.5310 -1.6392  2.4088
18035TIP3   OH275519   3.397   1.680  15.256  0.2754 -0.3134 -0.0644
18035TIP3    H175520   3.363   1.635  15.333  0.5391 -2.3420 -1.0593
18035TIP3    H275521   3.490   1.692  15.275  0.6980 -2.3312 -0.7037
18036TIP3   OH275522   0.755   4.684   3.881 -0.3771  0.3032  0.2474
18036TIP3    H175523   0.809   4.675   3.960  0.5864  0.2994 -0.3849
18036TIP3    H275524   0.672   4.719   3.912  0.1229  0.6736  1.2199
18037TIP3   OH275525   5.354   5.853   3.652 -0.2770 -0.2493 -0.2920
18037TIP3    H175526   5.288   5.829   3.717 -0.5898 -0.3720 -0.6539
18037TIP3    H275527   5.371   5.946   3.670 -2.1215  0.4088 -1.5240
18038TIP3   OH275528   5.769   6.770   2.889 -0.3766  0.1945  0.2680
18038TIP3    H175529   5.846   6.774   2.946  0.6310 -0.8691 -0.9455
18038TIP3    H275530   5.714   6.842   2.918  1.4715  1.5365  0.6208
18039TIP3   OH275531   4.550   2.915  15.950 -0.0833  0.0350  0.0846
18039TIP3    H175532   4.596   2.844  15.905 -1.4087  0.0036 -1.3100
18039TIP3    H275533   4.593   2.995  15.920  0.1820 -0.0768  0.1627
18040TIP3   OH275534   0.553   6.546  11.802 -0.1835  0.4331 -0.2185
18040TIP3    H175535   0.486   6.487  11.767 -0.5893  0.3997  0.6035
18040TIP3    H275536   0.634   6.496  11.797 -0.3008  0.2865 -0.7327
18041TIP3   OH275537   6.267   2.676  13.894  0.1076 -0.1611  0.0301
18041TIP3    H175538   6.359   2.649  13.898  0.9224  2.2764 -0.4382
18041TIP3    H275539   6.222   2.604  13.850  2.7423  0.5715 -4.4693
18042TIP3   OH275540   2.058   1.745  12.667  0.5817  0.3096 -0.0304
18042TIP3    H175541   2.090   1.741  12.576 -0.0692  0.5239 -0.2732
18042TIP3    H275542   2.130   1.783  12.716  0.7872  0.5776 -0.5335
18043TIP3   OH275543   6.666   2.808  16.725 -0.0261 -0.5831  0.4864
18043TIP3    H175544   6.746   2.815  16.674  0.9819  0.0050  2.0537
18043TIP3    H275545   6.619   2.734  16.686 -0.0637  0.7420 -2.1891
18044TIP3   OH275546   2.321   1.315   6.314 -0.4249 -0.0929  0.4418
18044TIP3    H175547   2.358   1.339   6.229 -2.8496  1.3517 -0.3113
18044TIP3    H275548   2.308   1.399   6.360 -1.5436 -0.6135  1.1461
18045TIP3   OH275549   0.952   0.124  15.149  0.2235  0.3862  0.3991
18045TIP3    H175550   0.972   0.055  15.085 -0.2568 -0.3872  1.0600
18045TIP3    H275551   1.036   0.168  15.163  0.2667  0.8031 -1.0130
18046TIP3   OH275552   5.789   4.586  15.874 -0.6649 -0.1227 -0.3309
18046TIP3    H175553   5.738   4.594  15.955 -1.7205 -0.4969 -0.9342
18046TIP3    H275554   5.723   4.589  15.805 -0.0140 -2.1031 -1.0967
18047TIP3   OH275555   4.591   4.401  13.976 -0.0050  0.1948  0.2861
18047TIP3    H175556   4.526   4.367  13.914  0.3750  0.8544 -0.4946
18047TIP3    H275557   4.540   4.451  14.039 -0.3100  0.2638 -0.0119
18048TIP3   OH275558   1.980   3.105  16.385 -0.3431 -0.3424 -0.4761
18048TIP3    H175559   1.966   3.089  16.478 -2.6470  0.0467 -0.7115
18048TIP3    H275560   1.990   3.200  16.378 -1.2537 -0.2514 -0.7133
18049TIP3   OH275561   5.227   5.924  16.189 -0.8398  0.5198  0.1423
18049TIP3    H175562   5.297   5.986  16.174 -0.3211  0.1284  0.8688
18049TIP3    H275563   5.267   5.855  16.243 -1.8145  0.3739  0.7032
18050TIP3   OH275564   6.523   6.218  10.863  0.1029  0.1283 -0.0377
18050TIP3    H175565   6.445   6.225  10.918  0.3456 -0.1185  0.3353
18050TIP3    H275566   6.567   6.302  10.873 -0.3187  0.4185 -0.5613
18051TIP3   OH275567   4.280   3.145  16.485 -0.3097  0.9788  0.2596
18051TIP3    H175568   4.296   3.073  16.425  0.1385  1.7876 -0.6120
18051TIP3    H275569   4.367   3.180  16.505 -0.5393  1.4879  0.3986
18052TIP3   OH275570   1.181   6.656  17.055  0.2755 -0.2363  0.0521
18052TIP3    H175571   1.115   6.714  17.092 -0.6055 -1.3537  0.3081
18052TIP3    H275572   1.165   6.658  16.961 -1.1153 -1.6037  0.2189
18053TIP3   OH275573   5.976   4.200   0.945 -0.0983  0.5092 -0.1779
18053TIP3    H175574   6.047   4.255   0.910  0.2500  0.1559 -0.0330
18053TIP3    H275575   6.018   4.117   0.965 -0.4242  0.5080  0.5182
18054TIP3   OH275576   5.485   3.161   3.863  0.6040 -0.3150 -0.9325
18054TIP3    H175577   5.573   3.197   3.877 -0.0359  0.7285  0.6502
18054TIP3    H275578   5.459   3.129   3.949  0.2810 -2.6885 -1.8487
18055TIP3   OH275579   1.868   3.066   5.999 -0.4438 -0.1457 -0.5236
18055TIP3    H175580   1.960   3.087   6.016 -0.7847 -0.1440  1.4779
18055TIP3    H275581   1.825   3.073   6.084 -2.1725 -0.8698 -1.2908
18056TIP3   OH275582   0.710   5.748   5.555  0.1230  0.6312 -0.0807
18056TIP3    H175583   0.650   5.710   5.619  1.6108 -0.6186  0.6469
18056TIP3    H275584   0.658   5.759   5.476 -0.9278 -0.8924  0.3709
18057TIP3   OH275585   0.667   2.210  14.248  0.0317 -0.0773  0.4910
18057TIP3    H175586   0.747   2.162  14.228 -0.5917 -0.8276 -0.3092
18057TIP3    H275587   0.682   2.297  14.212  1.3208  0.4871  2.2791
18058TIP3   OH275588   2.794   4.100   4.926 -0.5539 -0.1331  0.5207
18058TIP3    H175589   2.835   4.181   4.955 -0.8901  0.0817  0.4088
18058TIP3    H275590   2.793   4.044   5.004  0.4928 -0.3728  0.3700
18059TIP3   OH275591   2.815   2.290  16.059  0.3450 -0.2569  0.1428
18059TIP3    H175592   2.756   2.240  16.116 -0.3935 -0.8900 -1.1171
18059TIP3    H275593   2.887   2.316  16.115  0.6195 -2.5004  0.9419
18060TIP3   OH275594   5.889   2.478   1.098  0.4845 -0.5517 -0.3308
18060TIP3    H175595   5.852   2.406   1.149  0.1602  0.0241  0.2581
18060TIP3    H275596   5.921   2.437   1.017  0.2956 -1.3478 -0.0037
18061TIP3   OH275597   5.933   1.074  16.936 -0.5948  1.0402  0.0005
18061TIP3    H175598   6.006   1.127  16.905 -0.2715  1.4813  1.4293
18061TIP3    H275599   5.871   1.072  16.863  0.7732  0.7584 -1.1901
18062TIP3   OH275600   4.882   5.476   5.485  0.1995  0.1845  0.5678
18062TIP3    H175601   4.814   5.517   5.431  0.2925  0.6458  0.8061
18062TIP3    H275602   4.949   5.543   5.495  1.1533 -0.5696 -0.4621
18063TIP3   OH275603   5.921   4.266   3.563  0.5495 -0.0811 -0.2237
18063TIP3    H175604   5.899   4.329   3.632 -0.2206  0.2154 -0.7340
18063TIP3    H275605   5.846   4.267   3.504  1.9331  1.0841 -2.1036
18064TIP3   OH275606   1.852   0.910   6.091 -0.8218 -0.2041  0.3405
18064TIP3    H175607   1.823   0.991   6.048  1.0350 -0.3201 -1.2678
18064TIP3    H275608   1.943   0.927   6.116 -0.1437 -2.0070 -0.7303
18065TIP3   OH275609   2.726   2.447   2.794 -0.0191 -0.1640  0.0302
18065TIP3    H175610   2.797   2.487   2.844  0.5060 -0.0505 -0.7949
18065TIP3    H275611   2.695   2.375   2.850 -0.7103  1.1055  1.3570
18066TIP3   OH275612   5.774   6.206  16.071  0.2391 -0.1616 -0.3576
18066TIP3    H175613   5.809   6.259  15.999 -0.6874 -0.2400 -0.8759
18066TIP3    H275614   5.679   6.208  16.058  0.0834 -0.4120  0.7024
18067TIP3   OH275615   2.585   0.423  11.569  0.6280  0.1949  0.5972
18067TIP3    H175616   2.544   0.376  11.496  0.1232  0.9269  0.3992
18067TIP3    H275617   2.642   0.358  11.610  0.9574 -0.2153 -0.4738
18068TIP3   OH275618   5.817   3.048   4.602  0.9388  0.1774 -0.2766
18068TIP3    H175619   5.877   3.048   4.528  0.9011 -0.9594 -0.3299
18068TIP3    H275620   5.770   2.964   4.595 -0.9091  1.1730 -0.4345
18069TIP3   OH275621   5.137   4.368  11.626 -0.0067  0.3596  0.0309
18069TIP3    H175622   5.135   4.463  11.628  0.2920  0.3935 -0.8473
18069TIP3    H275623   5.045   4.342  11.625 -0.0903  0.6258  0.6060
18070TIP3   OH275624   3.458   6.464  16.211  0.8282  0.0056  0.9737
18070TIP3    H175625   3.433   6.533  16.272 -0.4202 -0.5515  1.1205
18070TIP3    H275626   3.375   6.434  16.173  1.4414 -0.7193  0.1570
18071TIP3   OH275627   4.359   3.854   4.266  0.6226  0.2360 -0.4815
18071TIP3    H175628   4.352   3.912   4.342  0.9081  0.3821 -0.5649
18071TIP3    H275629   4.272   3.817   4.256  0.7136 -0.1924  0.2422
18072TIP3   OH275630   2.698   1.822  15.525 -0.0479  0.3917 -0.4396
18072TIP3    H175631   2.723   1.750  15.467  1.3267 -2.2616  3.0318
18072TIP3    H275632   2.610   1.800  15.554  0.7885 -0.6734  1.4945
18073TIP3   OH275633   6.411   5.788   0.499 -0.4775 -0.2394 -0.0650
18073TIP3    H175634   6.356   5.785   0.577 -1.4238 -0.5209 -0.7250
18073TIP3    H275635   6.442   5.699   0.488 -1.8216 -0.6279 -1.0105
18074TIP3   OH275636   5.851   5.343  15.140 -0.4067  0.0149 -0.3856
18074TIP3    H175637   5.933   5.294  15.134 -0.7300 -0.8737  1.5010
18074TIP3    H275638   5.835   5.351  15.234 -1.3335  2.1709 -0.6659
18075TIP3   OH275639   1.765   1.608   1.251  0.1461 -0.2254 -0.1217
18075TIP3    H175640   1.814   1.576   1.327 -0.0301 -1.1089 -0.3734
18075TIP3    H275641   1.676   1.578   1.266 -0.8354  2.9256  1.2677
18076TIP3   OH275642   2.626   5.753   3.970 -0.7180 -0.3730  0.1695
18076TIP3    H175643   2.564   5.821   3.946  0.6141  0.6937 -0.4039
18076TIP3    H275644   2.625   5.752   4.066 -1.4312 -0.2224  0.1690
18077TIP3   OH275645   5.647   6.008   5.161 -0.1322  0.0599 -0.6683
18077TIP3    H175646   5.633   5.930   5.214  0.1421  1.2928  1.3204
18077TIP3    H275647   5.741   6.024   5.166 -0.3993  1.4915  0.4704
18078TIP3   OH275648   4.802   3.570  12.244 -0.1838  0.7702 -0.0762
18078TIP3    H175649   4.737   3.501  12.257 -1.1306  1.4631 -0.9910
18078TIP3    H275650   4.768   3.644  12.294  1.2092  0.3895  1.5230
18079TIP3   OH275651   1.735   4.959   5.568 -0.0017  0.1121 -0.1270
18079TIP3    H175652   1.762   5.037   5.617  0.7978  0.9115 -1.7520
18079TIP3    H275653   1.674   4.993   5.502 -0.1381 -0.7319 -0.4450
18080TIP3   OH275654   2.206   6.670   5.212 -0.4246 -0.3774 -0.0154
18080TIP3    H175655   2.138   6.721   5.256  0.1295  0.1869  0.1861
18080TIP3    H275656   2.205   6.586   5.258 -2.0480 -0.9552 -1.0176
18081TIP3   OH275657   6.439   2.711   5.664 -0.1816 -0.6729 -0.0431
18081TIP3    H175658   6.457   2.687   5.754 -0.5093 -0.3385  0.1159
18081TIP3    H275659   6.468   2.636   5.612 -1.6542 -1.6313  0.4719
18082TIP3   OH275660   5.605   3.871   3.495  0.5701 -0.2303  0.6220
18082TIP3    H175661   5.548   3.924   3.439 -0.1607 -1.4258  0.1772
18082TIP3    H275662   5.590   3.905   3.583  0.9786  1.0220  0.2266
18083TIP3   OH275663   2.104   5.044   3.409  0.8072 -0.1126 -0.2031
18083TIP3    H175664   2.196   5.018   3.416  0.7556 -0.0723  0.8100
18083TIP3    H275665   2.066   5.017   3.492 -0.4148 -1.3101 -1.1235
18084TIP3   OH275666   4.767   0.012  10.846  0.5438 -0.4747 -0.0608
18084TIP3    H175667   4.847   0.006  10.898  0.1516  2.2385  1.0280
18084TIP3    H275668   4.797   0.036  10.759  0.9863 -1.2212 -0.1243
18085TIP3   OH275669   1.034   5.779  12.257  0.2727  0.0214 -0.3822
18085TIP3    H175670   1.036   5.686  12.234 -0.0703  0.0956 -0.7198
18085TIP3    H275671   1.046   5.780  12.352 -1.0123 -0.4531 -0.1947
18086TIP3   OH275672   4.202   0.463   1.087 -0.2164 -0.0993 -0.3336
18086TIP3    H175673   4.235   0.439   1.000 -0.7555  0.8806 -0.8248
18086TIP3    H275674   4.192   0.558   1.083  0.5202  0.0726  1.0752
18087TIP3   OH275675   6.231   4.850  12.163 -0.4763 -0.0827  0.8264
18087TIP3    H175676   6.204   4.800  12.086 -1.9136  0.3555  1.0134
18087TIP3    H275677   6.309   4.898  12.134 -1.1871  0.3428 -0.4649
18088TIP3   OH275678   6.018   1.203   4.304 -0.3696 -0.1351  0.2627
18088TIP3    H175679   5.982   1.256   4.375 -1.9490  0.2078 -0.7481
18088TIP3    H275680   6.089   1.256   4.268 -0.3397  0.2012  0.8012
18089TIP3   OH275681   4.209   6.653  12.347  0.1671  0.2027 -0.2401
18089TIP3    H175682   4.274   6.666  12.278  0.6752 -1.4037 -0.0975
18089TIP3    H275683   4.230   6.720  12.412  2.6810 -1.1982  0.5139
18090TIP3   OH275684   3.541   4.442  11.679  0.4972 -0.3992 -0.0313
18090TIP3    H175685   3.505   4.523  11.641  2.2013 -0.0148 -0.9488
18090TIP3    H275686   3.583   4.398  11.605 -0.4892 -2.2232  0.4280
18091TIP3   OH275687   1.184   2.820  11.383 -0.4511  0.1703 -0.0435
18091TIP3    H175688   1.220   2.757  11.446 -1.2819 -1.0372 -0.7260
18091TIP3    H275689   1.239   2.898  11.393  0.5609 -0.6226  0.9000
18092TIP3   OH275690   1.053   4.611   0.943 -0.6827 -0.3241 -0.2625
18092TIP3    H175691   1.051   4.570   0.856  0.1759 -1.4505  0.2147
18092TIP3    H275692   1.038   4.539   1.004 -2.8176  0.6976  0.5086
18093TIP3   OH275693   2.941   6.464  16.161  0.6667 -0.0849 -0.2667
18093TIP3    H175694   2.905   6.545  16.196  0.0424 -0.2231 -0.5604
18093TIP3    H275695   2.865   6.418  16.125  1.0738 -0.6095 -0.4744
18094TIP3   OH275696   6.571   5.906  14.694  0.0599  0.5765 -0.1327
18094TIP3    H175697   6.591   5.885  14.785  0.5644  0.3427 -0.2948
18094TIP3    H275698   6.656   5.928  14.656 -0.3048  1.8572 -0.2454
18095TIP3   OH275699   3.318   3.525   3.454 -0.0451 -0.3170  0.1784
18095TIP3    H175700   3.274   3.494   3.374 -1.7480  0.1496  0.8951
18095TIP3    H275701   3.277   3.474   3.524 -0.2413  0.9193  0.9803
18096TIP3   OH275702   3.999   3.764  14.835  0.1116 -0.6928 -0.3654
18096TIP3    H175703   3.912   3.793  14.865 -0.1295 -0.9234 -0.8457
18096TIP3    H275704   4.060   3.824  14.879 -0.3694  0.4117 -1.1695
18097TIP3   OH275705   3.158   3.292   0.661 -0.0521 -0.5135 -0.1138
18097TIP3    H175706   3.222   3.261   0.596 -0.3857  1.0773 -1.2687
18097TIP3    H275707   3.211   3.323   0.734  0.4042 -1.0205 -0.2274
18098TIP3   OH275708   0.530   2.402  12.907  0.0671 -0.8067  0.2112
18098TIP3    H175709   0.547   2.491  12.878  0.3752 -0.4845  1.3481
18098TIP3    H275710   0.455   2.373  12.855 -0.6840  0.4725  0.5578
18099TIP3   OH275711   4.936   1.085  12.375  0.5164  0.6105  0.5418
18099TIP3    H175712   4.933   1.039  12.459  1.4913  1.0500  0.8192
18099TIP3    H275713   4.905   1.020  12.312  1.0031 -0.1328  1.0558
18100TIP3   OH275714   6.025   1.866  11.618 -0.0553 -0.0979 -0.1016
18100TIP3    H175715   5.974   1.828  11.689 -0.9239  2.8237  0.9738
18100TIP3    H275716   5.976   1.844  11.539 -2.3665  1.4579  0.7870
18101TIP3   OH275717   2.691   5.326  16.788  0.6063  0.4919 -0.2545
18101TIP3    H175718   2.667   5.234  16.784  1.2411  0.3468 -1.1026
18101TIP3    H275719   2.701   5.345  16.881 -0.5559 -0.0118 -0.0083
18102TIP3   OH275720   5.366   4.080  12.739  0.1485 -0.3626  0.4395
18102TIP3    H175721   5.282   4.090  12.783  0.1719 -0.6892  0.5572
18102TIP3    H275722   5.431   4.105  12.805  0.1249  0.3091  0.2137
18103TIP3   OH275723   4.348   4.921  12.803 -0.4759 -0.0266  0.7055
18103TIP3    H175724   4.302   5.003  12.821  0.4189  1.3992 -2.6297
18103TIP3    H275725   4.308   4.887  12.723  1.6197 -0.8033 -0.1071
18104TIP3   OH275726   0.031   3.793  15.520  0.1257  0.2027 -0.0158
18104TIP3    H175727   0.018   3.831  15.607 -0.0080  3.0309 -1.1536
18104TIP3    H275728   0.099   3.848  15.481 -2.3448  1.4057 -2.9625
18105TIP3   OH275729   1.473   0.928   0.213  0.0672 -0.2771 -0.0524
18105TIP3    H175730   1.383   0.898   0.219 -0.2996  0.7820 -0.0285
18105TIP3    H275731   1.494   0.960   0.301 -0.1383  1.0750 -0.4661
18106TIP3   OH275732   0.043   0.163  14.241  0.5278 -0.3269 -0.2461
18106TIP3    H175733  -0.010   0.182  14.164  0.7842  2.1972  0.1270
18106TIP3    H275734   0.051   0.068  14.241 -1.9912 -0.6328 -1.6433
18107TIP3   OH275735   1.195   3.512   4.826  0.3087  0.3055  0.1895
18107TIP3    H175736   1.159   3.601   4.821  2.1816  1.2377  1.9225
18107TIP3    H275737   1.267   3.519   4.889 -1.3693 -3.0683  2.8521
18108TIP3   OH275738   2.927   3.131   1.001 -0.3583  0.5563 -0.3952
18108TIP3    H175739   2.937   3.172   1.087  2.3142  1.2763 -0.9646
18108TIP3    H275740   2.965   3.044   1.011 -1.9125 -0.1413 -0.3544
18109TIP3   OH275741   1.987   0.148   0.356  0.5014 -0.0138  0.4299
18109TIP3    H175742   1.893   0.166   0.348  0.4632 -0.3010  0.2081
18109TIP3    H275743   1.996   0.055   0.332  1.2127  0.6923 -2.4957
18110TIP3   OH275744   5.604   4.942  15.069 -0.1704 -0.3766 -0.6621
18110TIP3    H175745   5.561   5.004  15.010  1.3783  2.5848  1.1255
18110TIP3    H275746   5.532   4.891  15.107 -1.6457  1.2645 -1.1368
18111TIP3   OH275747   5.166   6.528   0.243 -0.2438 -0.6284  0.1293
18111TIP3    H175748   5.078   6.489   0.246 -1.5103  1.9602  0.2126
18111TIP3    H275749   5.184   6.539   0.150 -0.2848 -0.5969  0.1250
18112TIP3   OH275750   1.951   5.087   3.816 -0.7112 -0.1906 -0.8259
18112TIP3    H175751   1.987   5.137   3.743  0.6760 -0.2768 -0.2421
18112TIP3    H275752   2.005   5.008   3.820 -0.8727 -0.2672  0.1573
18113TIP3   OH275753   6.787   4.814   2.726  0.0864  0.0623  0.3330
18113TIP3    H175754   6.715   4.876   2.740  0.7143  0.6771  0.9875
18113TIP3    H275755   6.778   4.787   2.635  0.4920  2.0691 -0.3647
18114TIP3   OH275756   3.677   6.625  13.150  0.1291  0.2053  0.1212
18114TIP3    H175757   3.604   6.600  13.208  1.1418 -2.4952  0.4003
18114TIP3    H275758   3.642   6.613  13.062 -0.8073  2.4392  0.1192
18115TIP3   OH275759   0.312   3.149  14.617  0.6377 -0.5824 -0.6026
18115TIP3    H175760   0.347   3.141  14.706 -1.5240 -0.8841  0.2799
18115TIP3    H275761   0.270   3.235  14.616  0.6697 -0.5749 -1.3344
18116TIP3   OH275762   4.243   4.426   0.685  0.4804  0.0355  0.2566
18116TIP3    H175763   4.290   4.496   0.731 -0.3005 -0.2304  1.5256
18116TIP3    H275764   4.196   4.470   0.615  1.4414  0.5081 -0.1067
18117TIP3   OH275765   4.304   0.791  16.873 -0.9323 -0.0016 -0.0257
18117TIP3    H175766   4.321   0.885  16.876 -1.5938  0.1162  1.5808
18117TIP3    H275767   4.256   0.777  16.791  0.5372  0.7807 -1.0461
18118TIP3   OH275768   3.334   1.084   5.817 -0.2208 -0.0267 -0.0357
18118TIP3    H175769   3.261   1.049   5.868 -1.6028  0.7590 -1.3892
18118TIP3    H275770   3.405   1.094   5.880 -0.2335 -3.6753  0.7772
18119TIP3   OH275771   2.411   6.590   4.063 -0.0147  0.1922 -0.1465
18119TIP3    H175772   2.419   6.654   3.992  0.0246 -1.7575 -1.9987
18119TIP3    H275773   2.496   6.592   4.107  2.0649 -2.1888 -3.5310
18120TIP3   OH275774   4.889   2.947  11.375  0.4852 -0.0317  0.5236
18120TIP3    H175775   4.956   2.882  11.396  0.5819 -0.2886 -0.5229
18120TIP3    H275776   4.858   2.923  11.288 -0.3964  0.5693  0.6513
18121TIP3   OH275777   2.949   5.271   1.915 -0.0885 -0.1551 -0.3392
18121TIP3    H175778   2.883   5.241   1.853  0.8620 -1.1119 -0.9001
18121TIP3    H275779   2.933   5.219   1.994 -0.3034 -0.0372 -0.3028
18122TIP3   OH275780   5.818   0.640  13.011  0.2530 -0.1614 -0.0759
18122TIP3    H175781   5.847   0.617  12.922  2.0858  0.8103  0.2299
18122TIP3    H275782   5.722   0.633  13.007  0.3897 -2.2912 -1.4930
18123TIP3   OH275783   6.779   1.561  13.217 -0.3510  0.2736  0.3802
18123TIP3    H175784   6.738   1.599  13.139 -0.5471 -1.8155 -0.5985
18123TIP3    H275785   6.706   1.520  13.265 -0.1773  1.2282  1.5101
18124TIP3   OH275786   4.012   4.098   4.951 -0.0003  0.0921 -0.1583
18124TIP3    H175787   4.081   4.085   4.886 -0.4518  1.2683 -0.9043
18124TIP3    H275788   4.002   4.193   4.957 -0.9331 -0.0386  0.6095
18125TIP3   OH275789   1.798   2.781  14.803 -0.5092  0.3648 -0.2153
18125TIP3    H175790   1.855   2.786  14.880 -0.2638  3.3485 -0.4417
18125TIP3    H275791   1.844   2.834  14.737 -2.5260  1.0991 -1.0957
18126TIP3   OH275792   1.728   0.122  16.731  0.1266 -0.1500 -0.2958
18126TIP3    H175793   1.764   0.210  16.740  0.5297 -0.3378 -0.0901
18126TIP3    H275794   1.667   0.129  16.657 -2.1785  1.0587  1.5814
18127TIP3   OH275795   4.197   3.526  17.164  0.5927  0.5169  0.2905
18127TIP3    H175796   4.158   3.440  17.147 -0.5359  0.4847  2.5690
18127TIP3    H275797   4.286   3.507  17.194  1.5402  0.4187 -2.3375
18128TIP3   OH275798   0.768   5.023   4.092  0.6508  0.2244  0.1016
18128TIP3    H175799   0.695   5.041   4.032  1.3193  1.2070 -0.4249
18128TIP3    H275800   0.761   4.929   4.109 -0.1168  0.1034 -0.7718
18129TIP3   OH275801   3.853   3.791   5.668  0.5630 -0.2568 -0.0544
18129TIP3    H175802   3.837   3.699   5.688  0.2112 -0.4543 -1.1645
18129TIP3    H275803   3.852   3.835   5.753  1.1300 -1.3325  0.5323
18130TIP3   OH275804   0.794   1.504  16.788 -0.0296  0.7317 -0.3444
18130TIP3    H175805   0.738   1.439  16.745  0.8016  0.3061 -0.7937
18130TIP3    H275806   0.880   1.464  16.791  0.1617  1.1899  0.7751
18131TIP3   OH275807   6.014   2.379   3.482  0.1418  0.7014 -0.1055
18131TIP3    H175808   6.088   2.389   3.422  0.6102  0.1570  0.3517
18131TIP3    H275809   6.056   2.365   3.568 -0.4250 -1.4915 -0.1190
18132TIP3   OH275810   2.778   6.676  15.020 -0.4329 -0.3119  0.2379
18132TIP3    H175811   2.778   6.611  14.950 -3.1127  0.1602 -0.3191
18132TIP3    H275812   2.699   6.728  15.004 -0.4912  0.5870  2.9159
18133TIP3   OH275813   3.714   2.484   5.231 -0.2575  0.2249  0.2998
18133TIP3    H175814   3.729   2.389   5.230 -0.1043  0.2360 -0.9354
18133TIP3    H275815   3.623   2.494   5.202  0.1098  0.4865 -0.8219
18134TIP3   OH275816   2.634   5.138   6.840  0.0189 -0.4750 -0.2840
18134TIP3    H175817   2.677   5.212   6.798  1.5562 -0.2865  1.4883
18134TIP3    H275818   2.567   5.179   6.896  2.0345 -0.1907  2.0587
18135TIP3   OH275819   2.141   5.652  12.555  0.0310  0.4754 -0.3352
18135TIP3    H175820   2.128   5.667  12.649 -0.3105 -0.2571 -0.2600
18135TIP3    H275821   2.122   5.736  12.514 -2.2573  0.1905  0.0303
18136TIP3   OH275822   2.826   1.286  12.055 -0.0016 -0.1277 -0.2017
18136TIP3    H175823   2.915   1.270  12.085  0.0516  0.1073 -0.2332
18136TIP3    H275824   2.834   1.355  11.990 -0.3714  0.9311  0.8458
18137TIP3   OH275825   0.475   1.678   5.383 -0.4394  0.0563  0.1058
18137TIP3    H175826   0.495   1.741   5.452  0.7231 -0.6578  0.4527
18137TIP3    H275827   0.558   1.667   5.337 -0.0476 -2.6542  1.2724
18138TIP3   OH275828   3.437   2.021  12.241 -0.1989  0.3001  0.1255
18138TIP3    H175829   3.347   2.003  12.266 -0.4350 -0.8422 -1.3852
18138TIP3    H275830   3.465   1.943  12.195  1.3540  0.9057 -0.0241
18139TIP3   OH275831   6.347   1.751  14.801  0.2266  0.7773  0.2307
18139TIP3    H175832   6.331   1.840  14.832  0.4880  0.7239  0.5291
18139TIP3    H275833   6.272   1.731  14.745 -0.9520  0.3939  1.8784
18140TIP3   OH275834   5.146   4.652  14.275  0.1979 -0.2873  1.0255
18140TIP3    H175835   5.147   4.697  14.190 -2.1353  2.0429  2.1119
18140TIP3    H275836   5.075   4.587  14.267  0.7792 -0.9199  0.8504
18141TIP3   OH275837   2.250   5.226   5.450  0.4359  0.2544 -0.0398
18141TIP3    H175838   2.169   5.180   5.428  1.1426 -0.0934 -2.2133
18141TIP3    H275839   2.237   5.257   5.539 -2.2479  0.5962 -0.4664
18142TIP3   OH275840   3.959   4.017  15.448 -0.4320  0.1208 -0.2528
18142TIP3    H175841   3.974   3.967  15.528  0.8078  0.9401  0.0574
18142TIP3    H275842   4.023   3.982  15.386  0.2328  1.0841 -0.1289
18143TIP3   OH275843   5.680   3.679   3.945 -0.3211 -0.2873  0.1570
18143TIP3    H175844   5.633   3.689   3.862 -1.3023 -0.3111  0.6974
18143TIP3    H275845   5.612   3.663   4.010  0.5843 -3.0709  0.5514
18144TIP3   OH275846   3.559   2.597  14.904 -0.8052  0.6832  0.7757
18144TIP3    H175847   3.496   2.659  14.939 -0.4231  1.3596  0.2884
18144TIP3    H275848   3.606   2.564  14.980 -1.0010  1.0032  1.0372
18145TIP3   OH275849   5.545   6.571   1.113 -0.2649  0.0970 -0.1774
18145TIP3    H175850   5.611   6.611   1.169  1.0457 -1.8849 -0.2253
18145TIP3    H275851   5.461   6.598   1.151  0.5795  0.7236  1.2972
18146TIP3   OH275852   3.536   5.391   1.727 -0.0715  0.3716  0.0116
18146TIP3    H175853   3.521   5.484   1.715 -0.2206  0.3331 -0.0963
18146TIP3    H275854   3.536   5.355   1.639 -2.6148 -0.1474  0.1473
18147TIP3   OH275855   6.016   1.149   6.067 -0.0076  0.0258 -0.1590
18147TIP3    H175856   6.036   1.068   6.018 -0.4080 -0.4341  0.4290
18147TIP3    H275857   5.923   1.164   6.052  0.0410  0.3121 -0.1704
18148TIP3   OH275858   6.093   5.196  15.124  0.1533 -0.2779 -0.2623
18148TIP3    H175859   6.174   5.245  15.139  1.1327 -1.6284 -0.9081
18148TIP3    H275860   6.105   5.114  15.172 -1.1060 -0.2548  0.1341
18149TIP3   OH275861   2.558   6.572  16.224  0.4299  0.7498 -0.1543
18149TIP3    H175862   2.649   6.582  16.252  0.1667  0.3480  0.8817
18149TIP3    H275863   2.509   6.634  16.280 -0.1073 -0.0769  0.3088
18150TIP3   OH275864   2.288   3.348  15.458 -0.1338  0.0028 -0.1485
18150TIP3    H175865   2.218   3.365  15.395 -0.1235 -1.2851 -0.5234
18150TIP3    H275866   2.252   3.281  15.516  0.1472  0.6172  0.7597
18151TIP3   OH275867   2.337   5.554   0.173 -0.4199 -0.0286 -0.1820
18151TIP3    H175868   2.363   5.646   0.164  1.2518 -0.4688 -0.1636
18151TIP3    H275869   2.260   5.545   0.118  0.8643  0.8153 -2.2079
18152TIP3   OH275870   2.691   4.212   1.370  0.1682 -0.2744  0.8663
18152TIP3    H175871   2.757   4.147   1.393  1.8593  1.2062  0.3960
18152TIP3    H275872   2.699   4.280   1.436  1.2651  1.3671 -0.8523
18153TIP3   OH275873   1.094   0.223  11.548  0.1840 -0.5299 -0.1402
18153TIP3    H175874   1.158   0.271  11.496  0.6715  0.3934  1.2484
18153TIP3    H275875   1.071   0.283  11.619 -1.9570 -0.9775 -0.3877
18154TIP3   OH275876   2.877   1.577  13.799 -0.6821 -0.2575 -0.0030
18154TIP3    H175877   2.822   1.587  13.876  0.1963  1.5917  0.4236
18154TIP3    H275878   2.833   1.628  13.731  0.0135  0.4511  0.0755
18155TIP3   OH275879   4.596   6.137   0.718 -0.4413 -0.2316 -0.4975
18155TIP3    H175880   4.562   6.113   0.632 -0.2811 -0.3490 -0.5279
18155TIP3    H275881   4.678   6.088   0.726  0.2763  0.8764 -0.8730
18156TIP3   OH275882   4.832   3.790  15.925 -0.0697  0.4301 -0.0523
18156TIP3    H175883   4.830   3.698  15.951 -1.7016  0.6392  0.6752
18156TIP3    H275884   4.925   3.809  15.911  0.1419 -1.9730 -2.7414
18157TIP3   OH275885   3.368   5.509  11.525  0.3489 -0.0174  0.3324
18157TIP3    H175886   3.424   5.437  11.554 -0.5139 -0.3717  1.1810
18157TIP3    H275887   3.387   5.580  11.587  0.3719  0.0967  0.1933
18158TIP3   OH275888   0.818   0.312   0.165 -0.0715  0.2233 -0.2014
18158TIP3    H175889   0.890   0.270   0.211 -0.5590  0.0064  0.3951
18158TIP3    H275890   0.844   0.404   0.158 -1.1585  0.9617  3.1761
18159TIP3   OH275891   4.190   2.288  11.233 -0.1515 -0.1706  0.4986
18159TIP3    H175892   4.097   2.276  11.213 -0.6217 -0.5813  2.7025
18159TIP3    H275893   4.191   2.353  11.303  1.5603  2.9557 -2.1358
18160TIP3   OH275894   5.057   4.265  13.922 -0.7484 -0.3488  0.3469
18160TIP3    H175895   5.150   4.285  13.936 -0.5659  0.3310 -1.4500
18160TIP3    H275896   5.042   4.185  13.970  1.0839 -1.0782 -0.1969
18161TIP3   OH275897   0.363   3.154  11.485  0.3411 -0.3953  0.2914
18161TIP3    H175898   0.347   3.108  11.403  0.8299  0.0743 -0.0853
18161TIP3    H275899   0.459   3.161  11.489  0.5859 -3.3010  2.5417
18162TIP3   OH275900   1.634   1.935   2.946  0.1144 -0.9393 -0.7233
18162TIP3    H175901   1.644   1.847   2.910 -1.9374 -1.7264  0.4768
18162TIP3    H275902   1.587   1.923   3.028  3.2053  0.9308  1.5757
18163TIP3   OH275903   1.825   1.932  12.410  0.0943  0.0348  0.1444
18163TIP3    H175904   1.872   1.930  12.327 -1.8149  1.9227 -1.0860
18163TIP3    H275905   1.877   1.989  12.466 -1.1564  3.1300 -1.6130
18164TIP3   OH275906   6.236   2.267   3.940 -0.1227 -0.2277  0.1647
18164TIP3    H175907   6.283   2.191   3.906 -0.7089 -0.5491  0.0697
18164TIP3    H275908   6.304   2.321   3.981  0.3402 -0.6455 -0.0490
18165TIP3   OH275909   4.927   5.594  15.613 -0.4506  0.3953  0.0688
18165TIP3    H175910   4.961   5.561  15.696  0.6121 -1.8509 -1.1517
18165TIP3    H275911   4.924   5.689  15.624  0.6729  0.2404  2.2821
18166TIP3   OH275912   6.297   6.225   4.709 -0.8134  0.1892 -0.2387
18166TIP3    H175913   6.218   6.171   4.702 -0.3901 -0.4691  0.0426
18166TIP3    H275914   6.358   6.188   4.646 -0.2063 -0.2258  0.5720
18167TIP3   OH275915   6.741   6.036   0.860 -0.6364 -0.1486  0.3253
18167TIP3    H175916   6.802   6.084   0.916 -1.7555 -0.3946  1.7849
18167TIP3    H275917   6.697   6.104   0.809 -0.5099  0.1728  0.6432
18168TIP3   OH275918   5.450   5.058  12.949  0.8446  0.1608 -0.6352
18168TIP3    H175919   5.461   5.001  12.873  3.5605 -0.5105  0.1446
18168TIP3    H275920   5.382   5.120  12.923  0.4177 -1.1444 -2.9023
18169TIP3   OH275921   5.359   2.025   3.004 -0.5766  0.5613  0.2195
18169TIP3    H175922   5.264   2.026   2.997 -0.5013  0.6245 -1.0025
18169TIP3    H275923   5.379   2.100   3.060 -1.2561  0.2876  0.8496
18170TIP3   OH275924   5.802   2.158   3.270 -0.2077 -0.4910 -0.2337
18170TIP3    H175925   5.799   2.094   3.200  0.0707  0.3171 -1.0006
18170TIP3    H275926   5.871   2.219   3.244  2.5784 -2.1620  2.4943
18171TIP3   OH275927   2.329   6.433   0.481 -0.1800  0.2228  0.7177
18171TIP3    H175928   2.281   6.438   0.398  0.6688 -1.6447  0.0517
18171TIP3    H275929   2.421   6.435   0.456  0.1187 -1.8437  1.4143
18172TIP3   OH275930   1.286   2.122   5.551  0.0833  0.0327  0.1227
18172TIP3    H175931   1.256   2.160   5.634 -4.4637  0.3022 -1.3610
18172TIP3    H275932   1.284   2.195   5.489 -1.4854 -1.0323 -1.1829
18173TIP3   OH275933   2.958   3.093  14.997 -0.5512 -0.1256 -0.6192
18173TIP3    H175934   2.933   3.027  14.933  1.0184 -0.8044 -0.5879
18173TIP3    H275935   3.039   3.130  14.963 -0.4596  0.5164  0.2669
18174TIP3   OH275936   4.239   2.057  15.498 -0.7708 -0.1203 -0.0340
18174TIP3    H175937   4.177   1.984  15.502  0.4233 -1.2618 -1.2124
18174TIP3    H275938   4.250   2.073  15.405  2.2566 -1.4116 -0.0242
18175TIP3   OH275939   5.611   4.132  16.790  0.4919 -0.3821 -0.7156
18175TIP3    H175940   5.655   4.215  16.774 -0.0220  0.6790  2.6775
18175TIP3    H275941   5.560   4.116  16.711  1.0211  2.2341 -1.6622
18176TIP3   OH275942   3.822   0.677  14.268 -0.1399 -0.4892  0.0048
18176TIP3    H175943   3.831   0.582  14.265  1.6487 -0.4061  1.0692
18176TIP3    H275944   3.829   0.699  14.361  0.8747  0.7729 -0.3307
18177TIP3   OH275945   6.329   4.511  15.199 -0.3182 -0.1150 -0.5670
18177TIP3    H175946   6.316   4.576  15.130 -1.2013 -0.1069 -0.4124
18177TIP3    H275947   6.316   4.560  15.280 -2.3934 -0.7262 -0.4704
18178TIP3   OH275948   4.422   5.899  13.740 -0.0174  0.4045  0.2001
18178TIP3    H175949   4.402   5.810  13.771  1.9716 -0.2693 -0.2958
18178TIP3    H275950   4.513   5.895  13.713  0.1615  2.6531  0.2556
18179TIP3   OH275951   6.641   0.381  11.807  0.2092 -0.6036 -0.2034
18179TIP3    H175952   6.734   0.368  11.823  0.2433  0.2119  0.3034
18179TIP3    H275953   6.614   0.303  11.759  1.6535  0.1974 -2.4653
18180TIP3   OH275954   4.930   3.559   2.335 -0.5727  0.0151  0.0242
18180TIP3    H175955   4.951   3.525   2.248  0.8197  1.8869 -0.4367
18180TIP3    H275956   4.973   3.499   2.395 -0.3496 -0.5046 -0.6408
18181TIP3   OH275957   2.751   4.850  12.950  0.1433  0.4510 -0.1560
18181TIP3    H175958   2.673   4.906  12.944 -0.5166 -0.3382  0.8020
18181TIP3    H275959   2.751   4.800  12.868 -0.2975  0.5234 -0.2019
18182TIP3   OH275960   3.710   0.033  11.666  0.8515  0.2709 -0.1673
18182TIP3    H175961   3.725  -0.058  11.637  1.9955  0.5980 -0.6415
18182TIP3    H275962   3.631   0.059  11.619  1.9741  0.3625 -2.1281
18183TIP3   OH275963   5.483   5.527  13.345  0.3434  0.0218  0.0056
18183TIP3    H175964   5.452   5.568  13.425 -2.1558  2.7800 -2.1361
18183TIP3    H275965   5.426   5.451  13.334  0.2374  0.0286  0.4816
18184TIP3   OH275966   0.536   5.835  16.926 -0.6562  0.0366 -0.0471
18184TIP3    H175967   0.536   5.836  17.022 -1.1752  0.1013 -0.0452
18184TIP3    H275968   0.492   5.753  16.903 -1.1636  0.3546 -0.2266
18185TIP3   OH275969   2.548   2.419  14.467  0.2663 -0.3688  0.0431
18185TIP3    H175970   2.484   2.348  14.463  0.7783 -0.7998 -0.6838
18185TIP3    H275971   2.625   2.385  14.422  0.9023  0.2591  0.6388
18186TIP3   OH275972   1.793   0.802   1.317 -0.6047 -0.1231 -0.4743
18186TIP3    H175973   1.880   0.781   1.350 -0.1185  1.0774 -0.9544
18186TIP3    H275974   1.734   0.771   1.386  0.2744  0.3020  0.4907
18187TIP3   OH275975   3.582   1.409   3.558 -0.7088 -0.3892 -0.1031
18187TIP3    H175976   3.605   1.501   3.549 -1.0567 -0.0729  1.8363
18187TIP3    H275977   3.512   1.395   3.494  1.0198  0.0029 -2.1980
18188TIP3   OH275978   6.346   1.675  14.404 -0.1938 -0.2318 -0.1948
18188TIP3    H175979   6.409   1.713  14.343  0.5433 -0.9507  0.1021
18188TIP3    H275980   6.348   1.581  14.385 -0.5306 -0.3666  0.4056
18189TIP3   OH275981   6.001   1.402  13.062  0.5676  0.5365  0.2439
18189TIP3    H175982   6.029   1.347  13.135  1.4366 -1.9664 -1.8320
18189TIP3    H275983   5.907   1.385  13.053  0.7596 -0.3295 -0.1526
18190TIP3   OH275984   2.039   4.207  13.861 -0.2290 -0.0646 -0.1532
18190TIP3    H175985   1.977   4.223  13.790  0.4767  0.8606 -0.5918
18190TIP3    H275986   2.099   4.142  13.826 -0.9635 -0.9936  0.2874
18191TIP3   OH275987   2.375   6.167  16.001  0.2897 -0.3709 -0.5069
18191TIP3    H175988   2.459   6.142  15.964  0.7808  0.2097  0.1880
18191TIP3    H275989   2.387   6.159  16.096 -0.0470  0.8641 -0.3408
18192TIP3   OH275990   0.687   1.660  11.433 -0.2403  0.0823 -0.1231
18192TIP3    H175991   0.668   1.690  11.522  1.8631  1.1589  0.0159
18192TIP3    H275992   0.669   1.736  11.378  2.8990  1.0153 -0.0329
18193TIP3   OH275993   1.443   1.450  12.671  0.2895  0.5629  0.4357
18193TIP3    H175994   1.417   1.358  12.681 -0.8972  0.7494 -0.7128
18193TIP3    H275995   1.483   1.472  12.755 -0.7937 -0.5611  1.2910
18194TIP3   OH275996   5.337   1.471   5.184  0.2939 -0.0366  0.2283
18194TIP3    H175997   5.248   1.459   5.150 -0.3716  1.6420  1.2553
18194TIP3    H275998   5.333   1.552   5.234  2.3400 -0.1039  0.5936
18195TIP3   OH275999   4.262   0.903  16.209 -0.5527 -0.0514  0.5278
18195TIP3    H176000   4.185   0.847  16.223 -1.4438  1.3299  1.3807
18195TIP3    H276001   4.259   0.926  16.116 -0.1637 -1.3966  0.1585
18196TIP3   OH276002   0.162   2.141  16.308  0.9878  0.3371  0.1564
18196TIP3    H176003   0.222   2.215  16.314  1.0584  0.2864  0.0716
18196TIP3    H276004   0.144   2.117  16.399  0.2117  1.0748  0.2104
18197TIP3   OH276005   4.092   5.575   2.585  0.2611  0.1773  0.2816
18197TIP3    H176006   4.111   5.655   2.635  0.8484 -0.1951  0.6653
18197TIP3    H276007   4.064   5.512   2.651 -2.7614  0.7752 -0.2737
18198TIP3   OH276008   0.878   2.917  14.367  0.4259 -0.7973  0.1169
18198TIP3    H176009   0.831   2.985  14.416 -0.7833 -1.0141 -0.7007
18198TIP3    H276010   0.856   2.836  14.412  1.0548 -0.7636  0.4911
18199TIP3   OH276011   3.888   4.982   1.310  0.3535 -0.1846  0.3459
18199TIP3    H176012   3.899   5.031   1.229  0.0078 -0.2776  0.2440
18199TIP3    H276013   3.841   4.903   1.285 -2.2509  1.0256  1.0309
18200TIP3   OH276014   1.655   2.652   0.081  0.0095 -0.7041  0.5293
18200TIP3    H176015   1.696   2.651   0.168 -0.8586 -2.0522  0.9456
18200TIP3    H276016   1.620   2.740   0.073  0.1052 -0.5534  1.5469
18201TIP3   OH276017   5.566   1.793   4.500  0.4433  0.7156  0.4248
18201TIP3    H176018   5.626   1.720   4.508  0.8671  1.2812  3.4155
18201TIP3    H276019   5.479   1.754   4.514  0.7130  0.7921  2.5865
18202TIP3   OH276020   4.368   1.970   3.744  0.0928  0.1806 -0.5193
18202TIP3    H176021   4.389   1.879   3.765 -0.6469 -0.1614 -1.2372
18202TIP3    H276022   4.413   2.021   3.812  1.0227 -0.6762 -0.4732
18203TIP3   OH276023   5.591   6.743   2.673  0.5842 -1.0676 -0.0651
18203TIP3    H176024   5.527   6.812   2.693 -0.2528 -1.8380 -0.0479
18203TIP3    H276025   5.670   6.770   2.720 -0.3647 -1.1799  1.6896
18204TIP3   OH276026   3.013   0.005  11.406  0.6780 -0.2387 -0.2078
18204TIP3    H176027   3.052   0.092  11.401 -0.5054  0.5078  2.0150
18204TIP3    H276028   2.919   0.021  11.401  0.4803 -1.5168 -0.8417
18205TIP3   OH276029   3.557   0.543  15.483  0.0863 -0.1299  0.3103
18205TIP3    H176030   3.636   0.547  15.430 -0.2617 -3.2066 -0.6500
18205TIP3    H276031   3.486   0.526  15.420 -0.6684 -1.6614  1.5036
18206TIP3   OH276032   1.102   4.791   4.323  0.3020  0.6733 -0.4150
18206TIP3    H176033   1.088   4.870   4.375 -0.8939 -0.1274  0.5677
18206TIP3    H276034   1.092   4.819   4.233  1.2781  1.8886 -0.1722
18207TIP3   OH276035   6.599   6.612  15.009  0.3027  0.0548 -0.0672
18207TIP3    H176036   6.505   6.594  15.011  0.5898 -1.6482 -0.4288
18207TIP3    H276037   6.627   6.581  14.922  1.1514  0.8042 -0.0675
18208TIP3   OH276038   5.855   3.645  15.954 -0.0001 -0.4369 -0.2596
18208TIP3    H176039   5.791   3.698  15.907 -0.5517 -0.0862  0.8563
18208TIP3    H276040   5.908   3.605  15.885  0.9656  2.1731 -1.1795
18209TIP3   OH276041   3.607   1.818   4.831  0.1309 -0.3432 -0.0835
18209TIP3    H176042   3.530   1.764   4.851  0.3392 -0.2975  0.8507
18209TIP3    H276043   3.590   1.850   4.742  0.0038 -1.9546 -0.6706
18210TIP3   OH276044   4.748   2.443   6.025 -0.4239  0.0345 -0.0254
18210TIP3    H176045   4.803   2.446   6.104 -1.1642 -2.1893  0.6481
18210TIP3    H276046   4.663   2.411   6.056 -0.7157 -0.9482 -1.7260
18211TIP3   OH276047   2.914   3.311  16.410 -0.2587  0.0077  0.4488
18211TIP3    H176048   2.997   3.288  16.369 -1.5042 -0.6433 -1.9425
18211TIP3    H276049   2.857   3.236  16.393 -1.6430  0.8807  1.0093
18212TIP3   OH276050   6.393   3.264  15.921 -0.2104  0.0035  0.4527
18212TIP3    H176051   6.482   3.291  15.943  0.3302 -2.3714  1.6084
18212TIP3    H276052   6.364   3.213  15.997 -2.8716  1.2941  0.4271
18213TIP3   OH276053   4.317   1.331   0.389 -0.2496  0.1308 -0.3118
18213TIP3    H176054   4.227   1.351   0.365  0.1140  1.2248 -0.8435
18213TIP3    H276055   4.361   1.416   0.390  0.3159 -0.1327  2.0096
18214TIP3   OH276056   5.017   0.081   4.579 -0.0170 -0.9533 -0.4167
18214TIP3    H176057   4.974   0.002   4.613 -0.3041 -0.7148 -0.2226
18214TIP3    H276058   5.031   0.062   4.486 -1.7519 -0.5103 -0.8049
18215TIP3   OH276059   2.213   4.000  13.140 -0.3813 -0.1658  0.2405
18215TIP3    H176060   2.136   3.957  13.177 -0.5463 -1.2194 -1.2483
18215TIP3    H276061   2.277   3.930  13.130  0.8061  0.6986  1.4650
18216TIP3   OH276062   0.023   2.119   2.769 -0.1016  0.3462  0.5704
18216TIP3    H176063   0.097   2.072   2.807  0.3667  1.0706  0.5661
18216TIP3    H276064   0.022   2.090   2.678 -1.4579 -1.6845  1.1596
18217TIP3   OH276065   1.838   4.246  13.633 -0.1916  0.0092 -0.3740
18217TIP3    H176066   1.793   4.210  13.557 -0.2485 -0.6993 -0.0097
18217TIP3    H276067   1.862   4.335  13.607 -3.4137  1.1510  0.0518
18218TIP3   OH276068   6.336   3.592  14.472 -0.3877 -0.5567 -0.0065
18218TIP3    H176069   6.324   3.619  14.381  1.5581 -0.8727 -0.3945
18218TIP3    H276070   6.369   3.670  14.516  1.3139 -1.0946 -0.2303
18219TIP3   OH276071   1.524   5.001  11.260 -0.2711 -0.4574  0.0391
18219TIP3    H176072   1.553   4.947  11.186 -0.7608 -0.1517 -0.3836
18219TIP3    H276073   1.569   5.084  11.248  1.7350 -1.2458  1.5673
18220TIP3   OH276074   0.864   5.564  16.620 -0.3344 -0.3195  0.0009
18220TIP3    H176075   0.802   5.542  16.690 -0.9356 -1.3952 -0.8337
18220TIP3    H276076   0.950   5.553  16.660 -0.6650 -0.9587  0.5635
18221TIP3   OH276077   5.326   2.202  12.026 -0.4518 -0.1212  0.3270
18221TIP3    H176078   5.270   2.181  11.951  1.2653 -1.3232 -0.6930
18221TIP3    H276079   5.380   2.124  12.038  1.5824  1.2787  0.7246
18222TIP3   OH276080   4.756   2.148   2.622 -0.4407  0.0849 -0.0580
18222TIP3    H176081   4.698   2.099   2.681 -0.9881 -0.3493 -0.9373
18222TIP3    H276082   4.719   2.236   2.619 -0.8783 -0.1085 -0.3744
18223TIP3   OH276083   4.560   0.964   0.820 -0.0094  0.0091 -0.1721
18223TIP3    H176084   4.639   0.923   0.784  0.8103 -0.3394  1.8857
18223TIP3    H276085   4.508   0.891   0.853 -0.6935  0.3246 -0.5373
18224TIP3   OH276086   4.476   2.251   5.492  0.3215 -0.0160 -0.2423
18224TIP3    H176087   4.526   2.332   5.481  0.5836 -0.2586 -0.8583
18224TIP3    H276088   4.487   2.228   5.584 -1.7749  1.9669  0.6145
18225TIP3   OH276089   2.847   4.700  11.565  0.0467  0.1461 -0.5621
18225TIP3    H176090   2.823   4.792  11.576  1.6493  0.7161 -1.5086
18225TIP3    H276091   2.787   4.653  11.623 -0.3694  1.8308  0.4600
18226TIP3   OH276092   0.838   4.926  17.202 -0.2774  0.0017  0.5972
18226TIP3    H176093   0.912   4.884  17.246 -0.5098 -2.6493 -1.3038
18226TIP3    H276094   0.875   4.961  17.121 -0.9112 -0.4562  0.1026
18227TIP3   OH276095   6.262   2.512  15.266  0.3533 -1.0719 -0.1555
18227TIP3    H176096   6.323   2.461  15.212  0.6965  0.9415 -1.8422
18227TIP3    H276097   6.316   2.585  15.298 -0.7232 -0.2850 -0.1000
18228TIP3   OH276098   0.105   0.534  13.406 -0.2687 -0.5010  0.4712
18228TIP3    H176099   0.095   0.439  13.412 -0.5596 -0.4926  0.1635
18228TIP3    H276100   0.183   0.547  13.352 -0.7803 -0.5650 -0.2907
18229TIP3   OH276101   6.245   2.820  10.964  0.5489 -0.3193 -0.1698
18229TIP3    H176102   6.201   2.883  10.908  1.1810  0.8996  0.6671
18229TIP3    H276103   6.284   2.757  10.904  0.9313  0.7598 -1.0826
18230TIP3   OH276104   1.090   6.463  11.747 -0.4975 -0.4358 -0.3286
18230TIP3    H176105   1.008   6.424  11.717 -0.2180 -1.6750  0.4823
18230TIP3    H276106   1.063   6.531  11.809 -0.8971 -1.6964  0.9146
18231TIP3   OH276107   5.604   4.524  16.084 -0.8292  0.6148 -1.3725
18231TIP3    H176108   5.543   4.560  16.148  0.5286 -1.6717  1.4660
18231TIP3    H276109   5.555   4.453  16.043 -0.8187  0.1952 -0.6846
18232TIP3   OH276110   1.620   0.587   5.947  0.5510 -0.3026  0.2688
18232TIP3    H176111   1.694   0.573   6.006  0.5703 -1.0281  0.0825
18232TIP3    H276112   1.642   0.536   5.869  0.4046  0.4291 -0.2636
18233TIP3   OH276113   5.395   2.037  10.995 -0.2747 -0.2651  0.0962
18233TIP3    H176114   5.319   1.978  10.994 -2.4537  2.3425 -0.3044
18233TIP3    H276115   5.458   1.996  10.937 -0.6397 -3.3574  1.6907
18234TIP3   OH276116   1.369   5.213   3.320  0.0453  0.2772 -0.4986
18234TIP3    H176117   1.428   5.275   3.362  0.9575 -1.9333  1.7330
18234TIP3    H276118   1.282   5.249   3.334  0.4859  0.6914  1.4945
18235TIP3   OH276119   1.717   0.004  12.030 -0.1902 -0.1607  0.1474
18235TIP3    H176120   1.685  -0.082  12.003 -1.1632  0.2182  0.0278
18235TIP3    H276121   1.780  -0.014  12.100  2.4636 -1.1833 -2.3306
18236TIP3   OH276122   6.228   6.047  11.185  0.4786 -0.1318  0.1739
18236TIP3    H176123   6.178   6.127  11.203 -2.6367 -1.7110 -0.7676
18236TIP3    H276124   6.223   6.036  11.091 -1.0211 -2.4607  0.4400
18237TIP3   OH276125   0.121   1.708   5.722  0.4708 -0.2361  0.5809
18237TIP3    H176126   0.084   1.684   5.807  2.0821  0.9590  1.6814
18237TIP3    H276127   0.147   1.799   5.732 -0.4326  0.3142 -1.6374
18238TIP3   OH276128   5.255   1.707   3.462  0.0972  0.6755  0.5677
18238TIP3    H176129   5.282   1.720   3.371 -0.8525 -0.3687  0.1164
18238TIP3    H276130   5.333   1.731   3.514 -0.0554  3.4911 -0.3532
18239TIP3   OH276131   4.432   0.587   4.086 -0.7101  0.5232 -0.3471
18239TIP3    H176132   4.519   0.588   4.048  0.1399  0.2991  1.4767
18239TIP3    H276133   4.375   0.554   4.017  0.7910 -0.1622 -1.2886
18240TIP3   OH276134   2.514   2.892  11.479  0.1707 -0.2187 -0.6112
18240TIP3    H176135   2.470   2.901  11.395  2.1484 -0.4371 -1.7369
18240TIP3    H276136   2.446   2.907  11.544 -1.2170  0.9030 -2.2495
18241TIP3   OH276137   6.194   1.805   1.012 -0.5674  0.1399 -0.0343
18241TIP3    H176138   6.229   1.768   0.931  1.6482  0.8647  0.5385
18241TIP3    H276139   6.099   1.790   1.005 -0.5701  0.7862 -3.0632
18242TIP3   OH276140   2.764   3.344   5.413 -0.8293 -0.1335  0.1137
18242TIP3    H176141   2.743   3.291   5.336 -0.8876 -1.6830  1.1448
18242TIP3    H276142   2.685   3.395   5.429 -1.8161 -1.7319  0.6349
18243TIP3   OH276143   3.014   3.950  11.533 -0.0652 -0.5756  0.3574
18243TIP3    H176144   3.078   4.014  11.501 -0.3761 -2.1435 -3.9940
18243TIP3    H276145   3.066   3.883  11.577  1.1623 -0.9027 -1.5024
18244TIP3   OH276146   6.420   3.244  13.504 -0.3212 -0.0073  0.2546
18244TIP3    H176147   6.476   3.312  13.541 -0.9729  0.7112 -0.0374
18244TIP3    H276148   6.453   3.232  13.415 -0.6654  0.4707  0.0568
18245TIP3   OH276149   4.896   4.815  14.019  0.2805  0.1952 -0.0130
18245TIP3    H176150   4.889   4.835  14.112 -1.5704 -1.6785  0.3366
18245TIP3    H276151   4.867   4.724  14.012  0.4576  0.2599 -2.4113
18246TIP3   OH276152   6.644   6.555   2.668 -0.0447 -0.0445  0.0483
18246TIP3    H176153   6.690   6.606   2.602  0.6564 -0.6574  0.0510
18246TIP3    H276154   6.692   6.472   2.673 -0.8476 -0.5012  0.4187
18247TIP3   OH276155   4.297   5.252   2.525  0.1721  0.1265 -0.6282
18247TIP3    H176156   4.299   5.240   2.430 -2.0557  1.3247 -0.8764
18247TIP3    H276157   4.340   5.336   2.540 -1.4231  0.9994 -0.8225
18248TIP3   OH276158   4.035   2.256  11.781 -0.4422  0.3023 -0.0295
18248TIP3    H176159   4.059   2.202  11.706 -2.5414  1.2962 -1.4969
18248TIP3    H276160   3.967   2.207  11.826 -1.3923  1.0780 -0.5905
18249TIP3   OH276161   1.571   1.532   6.177  0.0077 -0.1912 -0.4668
18249TIP3    H176162   1.629   1.471   6.223  1.2360  0.8633 -0.5898
18249TIP3    H276163   1.620   1.613   6.171 -3.2850  2.7055  4.3137
18250TIP3   OH276164   4.366   4.886   3.448  0.3523 -0.2363 -0.2614
18250TIP3    H176165   4.360   4.979   3.429 -1.1145 -0.4189 -0.8635
18250TIP3    H276166   4.377   4.844   3.363 -1.5065 -0.7481 -0.3002
18251TIP3   OH276167   5.636   0.966  10.772  0.3713 -0.0064 -0.2965
18251TIP3    H176168   5.695   0.891  10.777  0.0693 -0.2004  0.7326
18251TIP3    H276169   5.685   1.038  10.813 -0.2754 -0.2982  1.0321
18252TIP3   OH276170   1.405   3.634  12.187  0.5730  0.1878 -0.0348
18252TIP3    H176171   1.322   3.587  12.179  0.7547 -0.5197  1.8407
18252TIP3    H276172   1.465   3.584  12.131 -0.0622  0.2354 -0.7756
18253TIP3   OH276173   6.584   5.944  12.528 -0.0205  0.1490  0.2305
18253TIP3    H176174   6.523   5.996  12.476 -0.9812  0.3618  1.5211
18253TIP3    H276175   6.559   5.853  12.510  0.1552  0.1906 -0.2483
18254TIP3   OH276176   4.672   2.184  11.465 -0.7167 -0.3267  0.3198
18254TIP3    H176177   4.713   2.269  11.480 -1.8136  0.2804  0.0662
18254TIP3    H276178   4.736   2.135  11.414 -0.8142  1.0865 -1.2835
18255TIP3   OH276179   2.257   1.680   1.286 -0.0725 -0.2555 -0.2492
18255TIP3    H176180   2.182   1.665   1.228  0.8865  1.0472 -1.9363
18255TIP3    H276181   2.223   1.732   1.358 -0.5858  1.4103 -1.6455
18256TIP3   OH276182   3.837   3.168   5.087  0.0255  0.3428 -0.0908
18256TIP3    H176183   3.840   3.219   5.168  1.5776  3.4618 -1.8993
18256TIP3    H276184   3.922   3.123   5.083 -1.3228 -2.6374  1.4780
18257TIP3   OH276185   6.137   1.254  15.785 -0.1523  0.7324 -0.1256
18257TIP3    H176186   6.142   1.348  15.801  1.1547  0.5203  0.9217
18257TIP3    H276187   6.050   1.229  15.816 -1.2185  1.8492 -2.0593
18258TIP3   OH276188   1.548   1.214  14.988  0.6872 -0.2336  0.2327
18258TIP3    H176189   1.628   1.260  15.014 -0.0669  1.8375 -0.9238
18258TIP3    H276190   1.520   1.258  14.909 -1.6050 -0.9351  0.5999
18259TIP3   OH276191   1.581   6.593   6.276 -0.1555 -0.0158  0.0385
18259TIP3    H176192   1.504   6.639   6.241  0.6065  0.1602 -1.4746
18259TIP3    H276193   1.653   6.655   6.265  0.1187  0.1025  2.1075
18260TIP3   OH276194   3.954   5.428   6.717  0.0759 -0.3792 -0.3967
18260TIP3    H176195   3.996   5.514   6.712  1.2168 -0.9663 -1.6142
18260TIP3    H276196   3.866   5.445   6.750  1.1033  0.9659  1.7974
18261TIP3   OH276197   1.584   3.573  15.246 -0.7572  0.1976  0.2738
18261TIP3    H176198   1.665   3.625  15.251 -0.8883  0.4427 -0.0668
18261TIP3    H276199   1.517   3.630  15.284 -0.6759 -0.2119  1.0427
18262TIP3   OH276200   3.294   0.019   4.307  0.1626 -0.8732  0.3162
18262TIP3    H176201   3.388   0.032   4.324 -0.2800  1.3807  1.4549
18262TIP3    H276202   3.253   0.033   4.392 -1.4291  1.2354 -0.7307
18263TIP3   OH276203   5.831   0.337  14.959 -0.5156  0.3470 -0.2801
18263TIP3    H176204   5.902   0.335  15.023 -1.4584  0.5735  0.8019
18263TIP3    H276205   5.755   0.307  15.007 -1.0596 -0.3979 -1.5682
18264TIP3   OH276206   5.574   4.276  12.076 -0.4022 -0.0489  0.2389
18264TIP3    H176207   5.500   4.334  12.092 -0.8918 -0.3580 -0.8411
18264TIP3    H276208   5.587   4.279  11.981  0.5325 -0.5277  0.3415
18265TIP3   OH276209   4.687   6.125  16.684  0.1753  1.0215 -0.1488
18265TIP3    H176210   4.617   6.161  16.630 -0.2783 -0.4318 -0.5718
18265TIP3    H276211   4.761   6.117  16.624  0.0476  0.5721 -0.2510
18266TIP3   OH276212   3.096   0.594   5.392 -0.3724 -0.0178  0.0708
18266TIP3    H176213   3.042   0.646   5.451 -0.8812 -0.0787 -0.3370
18266TIP3    H276214   3.186   0.624   5.409 -0.7489  1.9219 -1.0563
18267TIP3   OH276215   4.483   0.328   3.448  0.1049  0.3443 -0.0083
18267TIP3    H176216   4.561   0.370   3.484 -0.9586  1.4586  1.1514
18267TIP3    H276217   4.460   0.380   3.371 -0.8891  1.6437  1.1062
18268TIP3   OH276218   1.400   6.106  12.296 -0.3829 -0.0824  0.1924
18268TIP3    H176219   1.341   6.153  12.355 -1.5850  0.0577 -1.0717
18268TIP3    H276220   1.356   6.109  12.211  0.3614 -1.9605 -0.3021
18269TIP3   OH276221   4.606   2.463   3.374 -0.1154 -0.6670  0.0850
18269TIP3    H176222   4.673   2.496   3.433 -0.9753  0.0523  0.6855
18269TIP3    H276223   4.532   2.524   3.385 -0.1162 -0.1914 -2.1075
18270TIP3   OH276224   3.269   3.549   6.146  0.4855  0.0651 -0.8530
18270TIP3    H176225   3.273   3.582   6.235  0.9688  1.3394 -1.3256
18270TIP3    H276226   3.296   3.457   6.153 -1.9277 -0.6104  0.6362
18271TIP3   OH276227   6.714   2.588   0.221  0.1635  0.2893 -0.6221
18271TIP3    H176228   6.715   2.638   0.139 -0.3116  0.3474 -0.5957
18271TIP3    H276229   6.672   2.505   0.197 -1.9926  1.1338  0.0215
18272TIP3   OH276230   3.290   0.843   4.692  0.4677  0.7080  0.4032
18272TIP3    H176231   3.249   0.830   4.607  0.8770  0.3904  0.2469
18272TIP3    H276232   3.301   0.938   4.700 -0.6626  0.8289  0.6363
18273TIP3   OH276233   5.942   5.092   5.872  0.0194  0.0227 -0.1398
18273TIP3    H176234   5.877   5.063   5.936 -1.3532  0.2222 -1.3980
18273TIP3    H276235   6.024   5.095   5.921 -1.0279  0.4068  1.6705
18274TIP3   OH276236   0.218   0.872   0.666  0.4948  0.0223  0.4627
18274TIP3    H176237   0.311   0.892   0.683  0.6349 -0.3986  0.2053
18274TIP3    H276238   0.194   0.930   0.594  0.8678 -0.6440 -0.2071
18275TIP3   OH276239   2.462   2.235  13.007  0.4881 -0.2608  0.8072
18275TIP3    H176240   2.389   2.206  13.061 -0.7413  0.8777 -0.1752
18275TIP3    H276241   2.437   2.322  12.978  1.1591 -0.7534 -1.4462
18276TIP3   OH276242   2.312   5.414  11.849 -0.1735  0.3959 -0.5976
18276TIP3    H176243   2.226   5.439  11.882 -0.0421  1.2622 -0.8983
18276TIP3    H276244   2.323   5.464  11.768  0.2276 -0.4123 -1.0609
18277TIP3   OH276245   1.521   5.964   4.518  0.3267  0.3996  0.4017
18277TIP3    H176246   1.576   5.987   4.443  0.2870  0.5326  0.4121
18277TIP3    H276247   1.505   6.048   4.561  1.5327  0.1727  1.3731
18278TIP3   OH276248   0.547   3.747  14.738 -0.1694 -0.4983 -0.0439
18278TIP3    H176249   0.591   3.762  14.654  2.0567  1.0478  1.2949
18278TIP3    H276250   0.454   3.740  14.715  0.2446  0.8617 -2.5535
18279TIP3   OH276251   0.668   3.583   5.464  0.1731  0.3300  0.1304
18279TIP3    H176252   0.713   3.657   5.506 -0.0471  0.9086 -0.6351
18279TIP3    H276253   0.712   3.573   5.380 -0.9854  0.7694 -0.5404
18280TIP3   OH276254   6.134   3.987  12.641  0.5404 -0.3026  0.4174
18280TIP3    H176255   6.139   4.020  12.731 -1.6092 -0.7437  0.7556
18280TIP3    H276256   6.124   4.066  12.588  1.1002 -0.0854  0.6213
18281TIP3   OH276257   3.339   2.836  15.691 -0.5106  0.1167 -0.1512
18281TIP3    H176258   3.326   2.879  15.606  0.2607  0.0072 -0.3359
18281TIP3    H276259   3.251   2.820  15.724 -0.8548  2.5170  0.2729
18282TIP3   OH276260   5.710   0.776   0.073 -0.0850 -0.0935  0.0558
18282TIP3    H176261   5.765   0.794  -0.003 -2.0176  2.0414 -1.0015
18282TIP3    H276262   5.662   0.697   0.050  0.5028 -0.3702 -0.2318
18283TIP3   OH276263   5.039   0.738  13.316  0.2667  0.1186 -0.0440
18283TIP3    H176264   5.080   0.742  13.402 -0.9763 -2.5628  0.7935
18283TIP3    H276265   5.102   0.691  13.261  0.2104  0.0178 -0.0228
18284TIP3   OH276266   5.833   1.003  12.842 -0.2715 -0.2561 -0.2450
18284TIP3    H176267   5.911   1.058  12.854 -1.3536  1.0779  1.0965
18284TIP3    H276268   5.791   1.003  12.928 -0.6645 -2.7212 -0.3591
18285TIP3   OH276269   0.117   5.929  10.774  0.4527  0.1434  0.1501
18285TIP3    H176270   0.201   5.962  10.742 -0.9370  2.5614 -1.2326
18285TIP3    H276271   0.055   5.948  10.704 -1.5204 -0.3544  1.6824
18286TIP3   OH276272   1.486   3.303   4.924 -0.1503  0.8837  0.0019
18286TIP3    H176273   1.403   3.269   4.891 -0.7201 -0.6782  2.6860
18286TIP3    H276274   1.462   3.381   4.974  0.2483  1.4231 -0.6392
18287TIP3   OH276275   1.592   6.455   5.168  0.2810  0.2141 -0.0657
18287TIP3    H176276   1.563   6.476   5.080  1.0014  0.5657 -0.2264
18287TIP3    H276277   1.582   6.537   5.217  0.1853  0.1050  0.0973
18288TIP3   OH276278   3.047   5.535  14.336  0.4360  0.0520 -0.4224
18288TIP3    H176279   3.094   5.521  14.253 -1.9975 -4.9995 -1.3462
18288TIP3    H276280   3.072   5.461  14.390 -2.1783  0.2348  1.2014
18289TIP3   OH276281   5.807   5.682  14.384  0.2873  0.1363  0.6536
18289TIP3    H176282   5.892   5.715  14.356 -0.1471  2.0108  1.3991
18289TIP3    H276283   5.778   5.627  14.311  0.5630  2.3494 -1.2382
18290TIP3   OH276284   2.513   6.328  11.978 -0.0836  0.2174 -0.4286
18290TIP3    H176285   2.537   6.251  11.925  0.8353  0.6827 -0.7031
18290TIP3    H276286   2.513   6.295  12.068  0.8707  0.0172 -0.4895
18291TIP3   OH276287   2.731   0.555   3.311  0.7144  0.4670 -0.2233
18291TIP3    H176288   2.776   0.521   3.388  2.0436  0.0962 -1.1267
18291TIP3    H276289   2.799   0.558   3.243 -1.1179 -2.6156 -2.4435
18292TIP3   OH276290   2.208   3.305   1.772 -0.3754 -0.1487 -0.1429
18292TIP3    H176291   2.165   3.282   1.854 -1.2215  1.6416 -0.0454
18292TIP3    H276292   2.224   3.221   1.729  1.8136 -1.3341  2.6385
18293TIP3   OH276293   5.960   5.110  16.407 -0.0185  0.4278  0.0356
18293TIP3    H176294   6.026   5.046  16.430 -0.1132  0.2422 -0.2060
18293TIP3    H276295   5.918   5.133  16.490  0.7948  1.0491  0.2924
18294TIP3   OH276296   5.353   3.213   4.150  0.1731  0.2579  0.1160
18294TIP3    H176297   5.387   3.142   4.205 -0.6922 -2.7548 -2.8988
18294TIP3    H276298   5.265   3.229   4.184  0.2306 -0.4031  0.6005
18295TIP3   OH276299   1.823   1.293   3.882 -0.4533  0.6531 -0.4552
18295TIP3    H176300   1.737   1.309   3.922 -0.6118  1.5338 -1.1071
18295TIP3    H276301   1.854   1.380   3.857  1.3327  0.5524  1.1183
18296TIP3   OH276302   5.137   4.356  13.521  0.2829 -0.1945 -0.1968
18296TIP3    H176303   5.069   4.344  13.456 -1.2007  1.8807  0.8697
18296TIP3    H276304   5.149   4.269  13.559 -0.7417 -0.8832 -1.3734
18297TIP3   OH276305   3.252   1.307   0.399  0.1370 -0.0972  0.2931
18297TIP3    H176306   3.270   1.375   0.334  1.0709 -2.0248 -1.5892
18297TIP3    H276307   3.312   1.236   0.377 -1.5515 -2.0049  1.4755
18298TIP3   OH276308   5.304   4.628  11.337  0.3219  0.4228 -0.2833
18298TIP3    H176309   5.222   4.648  11.291  0.9170  1.1466 -1.0518
18298TIP3    H276310   5.367   4.609  11.267  0.1646 -2.9892  0.3193
18299TIP3   OH276311   4.849   5.269  12.495 -0.6436 -0.3780 -0.3098
18299TIP3    H176312   4.900   5.231  12.566 -0.2502  0.2759 -0.2362
18299TIP3    H276313   4.904   5.260  12.418  0.2510  1.6546  0.0340
18300TIP3   OH276314   6.752   2.634  17.140  0.5827  0.4019  0.8178
18300TIP3    H176315   6.806   2.621  17.062  1.1045 -0.9967  1.3751
18300TIP3    H276316   6.708   2.718  17.125  1.3548  0.5944 -0.5634
18301TIP3   OH276317   4.560   3.410  16.992 -0.5744  0.1535  0.2287
18301TIP3    H176318   4.646   3.378  17.018 -0.7167 -0.1730  0.3142
18301TIP3    H276319   4.519   3.334  16.949  0.2312  1.0796 -2.4088
18302TIP3   OH276320   5.636   5.867  15.373 -0.3038 -0.2606 -0.4916
18302TIP3    H176321   5.586   5.787  15.363  0.1804 -0.5800 -0.3955
18302TIP3    H276322   5.612   5.900  15.460  0.4163 -0.9627 -0.0079
18303TIP3   OH276323   5.540   3.894   5.980  0.1475  0.3391 -0.3886
18303TIP3    H176324   5.542   3.801   6.001 -0.4652  0.3093 -0.4484
18303TIP3    H276325   5.633   3.920   5.975  0.5048 -1.1246 -4.1572
18304TIP3   OH276326   3.639   4.240   3.139  0.0614  0.6278  0.0089
18304TIP3    H176327   3.606   4.300   3.207  0.0001  1.4209 -0.6964
18304TIP3    H276328   3.699   4.294   3.087 -0.2699  0.1753 -0.8639
18305TIP3   OH276329   5.651   1.866   0.277  0.3288  0.0915  0.3650
18305TIP3    H176330   5.667   1.955   0.246  1.9387 -0.7505 -1.4824
18305TIP3    H276331   5.702   1.811   0.217 -1.9391 -2.2119  0.4043
18306TIP3   OH276332   2.225   2.187   0.110 -0.0867 -0.4223 -0.0901
18306TIP3    H176333   2.309   2.162   0.072 -0.5206 -2.2032  0.0244
18306TIP3    H276334   2.162   2.176   0.039 -0.2801  0.5980 -0.0864
18307TIP3   OH276335   4.849   1.049   0.730 -0.7127  0.4699  0.0267
18307TIP3    H176336   4.820   1.100   0.806 -0.3661  0.0991  0.4088
18307TIP3    H276337   4.941   1.070   0.720 -0.0853 -1.4004  1.2811
18308TIP3   OH276338   4.211   4.151   3.335 -0.1953  0.3473 -0.4506
18308TIP3    H176339   4.251   4.103   3.407 -1.0634  2.4137  1.5284
18308TIP3    H276340   4.134   4.099   3.311 -0.6684  0.3106  1.0681
18309TIP3   OH276341   5.121   4.666  12.649 -0.7165  0.1095 -0.4251
18309TIP3    H176342   5.040   4.616  12.639 -0.5332 -0.3924  0.4982
18309TIP3    H276343   5.189   4.609  12.613 -0.7582  0.5063 -1.1461
18310TIP3   OH276344   2.053   4.942  15.397 -0.4303  0.7965  0.7296
18310TIP3    H176345   2.027   4.856  15.430  0.4830 -0.6182 -1.9902
18310TIP3    H276346   2.148   4.936  15.385 -0.3151  2.2682  0.6753
18311TIP3   OH276347   3.274   6.642   0.143  0.8512  0.0808 -0.6714
18311TIP3    H176348   3.338   6.707   0.173  0.4364 -0.1974  0.9189
18311TIP3    H276349   3.191   6.690   0.139  0.6233 -0.2312  0.1016
18312TIP3   OH276350   3.401   1.399  15.178  0.0609  0.2088 -0.2609
18312TIP3    H176351   3.336   1.351  15.127 -1.2385  0.5427  1.0134
18312TIP3    H276352   3.381   1.491  15.163  0.0081  0.3122  0.3969
18313TIP3   OH276353   3.187   0.414  15.949  0.5733  0.2366  0.4673
18313TIP3    H176354   3.178   0.319  15.940 -0.4392  0.3448  0.1559
18313TIP3    H276355   3.210   0.444  15.861 -0.6578  0.4241  0.1946
18314TIP3   OH276356   2.936   5.322  16.161  0.7303 -0.4014  0.2154
18314TIP3    H176357   2.999   5.282  16.101  0.6504 -0.5587  0.2375
18314TIP3    H276358   2.879   5.373  16.104  1.7291  0.8940  0.3208
18315TIP3   OH276359   4.156   2.194   0.307 -0.1165 -0.2836 -0.4523
18315TIP3    H176360   4.144   2.280   0.265  3.4620  1.0624  0.8632
18315TIP3    H276361   4.155   2.213   0.401  2.4137 -1.2871 -0.1423
18316TIP3   OH276362   2.138   5.810   3.323  0.5140  0.5712  0.4169
18316TIP3    H176363   2.205   5.774   3.266  1.1055  2.3812 -0.1066
18316TIP3    H276364   2.175   5.806   3.411  0.4774 -0.2559  0.3986
18317TIP3   OH276365   2.360   2.351  10.464 -0.2346  0.7448  0.1233
18317TIP3    H176366   2.447   2.372  10.430 -0.1541  0.3565  0.0885
18317TIP3    H276367   2.359   2.390  10.552  0.6069 -0.7204  0.8173
18318TIP3   OH276368   1.056   2.729   6.005  0.3792  0.1618  0.0075
18318TIP3    H176369   1.056   2.714   6.099 -1.4659 -1.2478 -0.1429
18318TIP3    H276370   1.031   2.644   5.968  1.4215  0.5945 -1.7897
18319TIP3   OH276371   5.592   0.234  13.662  0.0414  0.2077  0.1227
18319TIP3    H176372   5.504   0.261  13.635 -0.1442 -0.0326  0.4748
18319TIP3    H276373   5.626   0.309  13.711  1.1417  1.4489 -2.3478
18320TIP3   OH276374   6.285   3.185   4.797  0.0365  0.1549 -0.4680
18320TIP3    H176375   6.345   3.250   4.760 -0.2549  1.2649  0.9204
18320TIP3    H276376   6.220   3.171   4.728  0.0832  1.3962 -0.8010
18321TIP3   OH276377   1.970   0.987   3.801 -0.0191  0.1675 -0.6991
18321TIP3    H176378   2.033   1.038   3.748 -1.0024 -0.2575 -2.3659
18321TIP3    H276379   1.986   1.015   3.891  1.2187  1.5142 -1.2932
18322TIP3   OH276380   3.469   3.929   4.395  0.1669 -0.1124 -0.2918
18322TIP3    H176381   3.545   3.986   4.397  1.1626 -1.3704 -0.6233
18322TIP3    H276382   3.405   3.975   4.340  0.8699  0.7393 -0.4029
18323TIP3   OH276383   6.289   2.048   0.921 -0.4788 -0.4662  0.0145
18323TIP3    H176384   6.372   2.061   0.967 -0.1901 -0.9484 -0.3632
18323TIP3    H276385   6.245   1.979   0.971 -0.2137 -0.9119 -0.3646
18324TIP3   OH276386   0.242   2.856   0.083  0.2887 -0.3761 -0.8742
18324TIP3    H176387   0.157   2.857   0.038  1.2256  1.0231 -2.7643
18324TIP3    H276388   0.278   2.943   0.068  2.1565 -1.0011 -0.3150
18325TIP3   OH276389   4.804   5.169   1.404  0.2319 -0.1266  0.0215
18325TIP3    H176390   4.854   5.194   1.326 -1.0845  2.0793 -0.1995
18325TIP3    H276391   4.840   5.222   1.475 -2.9109  3.1621 -0.5380
18326TIP3   OH276392   2.767   3.301   1.859  0.4603 -0.6182  0.1086
18326TIP3    H176393   2.796   3.230   1.917 -1.2547 -2.5846 -1.3165
18326TIP3    H276394   2.678   3.277   1.834 -0.2560  2.1532 -0.3447
18327TIP3   OH276395   4.555   2.548   2.270  0.5346  0.4712 -0.5289
18327TIP3    H176396   4.494   2.594   2.328 -1.3266  0.1204 -2.0848
18327TIP3    H276397   4.637   2.596   2.279 -0.0805  1.2997  1.2644
18328TIP3   OH276398   4.781   3.837  16.237  0.1304 -0.1980 -0.2701
18328TIP3    H176399   4.724   3.843  16.160 -1.0868  1.0225  0.6939
18328TIP3    H276400   4.866   3.812  16.201 -0.0355  1.7709 -2.2168
18329TIP3   OH276401   4.840   6.116  16.910  0.2639 -0.7106  0.4095
18329TIP3    H176402   4.874   6.205  16.899 -1.4417  0.0720  1.1702
18329TIP3    H276403   4.777   6.105  16.839 -2.5270  0.2610  2.5498
18330TIP3   OH276404   2.019   0.093   2.139  0.4649 -0.0062 -0.1737
18330TIP3    H176405   2.100   0.115   2.093  0.2396 -1.1076 -1.1703
18330TIP3    H276406   2.048   0.060   2.224  0.8650  2.6415  0.8006
18331TIP3   OH276407   5.573   5.441  15.075  0.9509  1.1215  0.0286
18331TIP3    H176408   5.556   5.535  15.088  0.7049  1.1904 -0.7504
18331TIP3    H276409   5.641   5.420  15.139  1.0213  1.8380  0.1976
18332TIP3   OH276410   2.001   3.859   5.140 -0.2562 -0.0464 -0.3668
18332TIP3    H176411   1.914   3.826   5.117  0.3192 -1.0600 -1.1622
18332TIP3    H276412   1.991   3.954   5.139 -1.0304 -0.1204 -1.8060
18333TIP3   OH276413   4.372   2.745  11.762 -0.4100 -0.1298 -0.3693
18333TIP3    H176414   4.319   2.665  11.762  0.6617 -0.8597 -0.9052
18333TIP3    H276415   4.374   2.772  11.854 -0.4077 -0.9726 -0.1149
18334TIP3   OH276416   0.407   5.349   0.498  0.0442  0.0011 -0.4470
18334TIP3    H176417   0.501   5.338   0.483 -0.2972 -1.6173 -1.6112
18334TIP3    H276418   0.392   5.443   0.483  1.2699  0.0586 -1.5129
18335TIP3   OH276419   4.970   5.168  17.165 -0.1850  0.1416 -0.1442
18335TIP3    H176420   4.887   5.132  17.135 -0.5849 -0.2592  1.3691
18335TIP3    H276421   4.992   5.235  17.101 -2.6193  1.5536  0.3835
18336TIP3   OH276422   4.487   1.097  13.242  0.1654 -0.3190 -0.4932
18336TIP3    H176423   4.495   1.010  13.279  0.4678  0.1246  0.5190
18336TIP3    H276424   4.558   1.147  13.282 -0.4702  0.5897 -0.4727
18337TIP3   OH276425   4.754   6.568  13.499 -0.0662 -0.5100 -0.1961
18337TIP3    H176426   4.727   6.642  13.445  2.3416  0.5442 -0.0752
18337TIP3    H276427   4.823   6.526  13.449  0.1770 -1.2830  0.7695
18338TIP3   OH276428   1.590   2.933  14.651  0.4779 -0.4150  0.3784
18338TIP3    H176429   1.548   2.878  14.716 -2.0736 -0.6658 -1.3282
18338TIP3    H276430   1.661   2.879  14.616  1.0913 -0.7232  2.0221
18339TIP3   OH276431   5.902   3.141   5.004 -0.5670  0.2155 -0.4005
18339TIP3    H176432   5.970   3.206   5.024 -1.0922  0.3967  0.9158
18339TIP3    H276433   5.939   3.058   5.033 -0.1667  0.0107 -1.4552
18340TIP3   OH276434   3.145   4.200  15.433  0.7477 -0.1205  0.1324
18340TIP3    H176435   3.188   4.118  15.456  0.1242 -0.8540 -1.2150
18340TIP3    H276436   3.177   4.220  15.345  0.6970  0.9612  0.3453
18341TIP3   OH276437   6.400   0.213   3.430  0.1951 -0.3770 -0.4459
18341TIP3    H176438   6.321   0.249   3.470 -0.4070 -0.9781 -1.0546
18341TIP3    H276439   6.368   0.167   3.352  1.3785  1.4153 -2.0721
18342TIP3   OH276440   2.798   0.221   1.665  0.0038  0.1711 -0.4548
18342TIP3    H176441   2.756   0.306   1.653 -2.4456 -0.6696  1.3681
18342TIP3    H276442   2.770   0.169   1.590  2.3555  1.1846 -2.1342
18343TIP3   OH276443   1.739   4.550   5.966 -0.0024 -0.4115  0.2297
18343TIP3    H176444   1.756   4.501   6.047 -0.4413  0.5458  0.9113
18343TIP3    H276445   1.826   4.571   5.932  0.1974 -1.7700 -0.1509
18344TIP3   OH276446   2.562   0.556   6.457 -0.0446 -0.2336 -0.2795
18344TIP3    H176447   2.518   0.483   6.413 -0.1985 -0.3808  0.1055
18344TIP3    H276448   2.607   0.603   6.388  0.6929 -1.1350 -0.4365
18345TIP3   OH276449   2.709   5.312  17.064  0.4030 -0.3780  0.0493
18345TIP3    H176450   2.769   5.238  17.078  1.6647  0.2837 -1.6045
18345TIP3    H276451   2.740   5.379  17.125  1.1728 -0.1454 -0.5864
18346TIP3   OH276452   4.008   2.162   2.268  0.5993 -0.6712 -0.2540
18346TIP3    H176453   3.918   2.194   2.260  0.5722 -1.0296 -1.8765
18346TIP3    H276454   4.009   2.079   2.219  2.0324 -0.1444 -1.2006
18347TIP3   OH276455   3.736   0.570   3.039  0.3355 -0.5565 -0.0684
18347TIP3    H176456   3.704   0.608   3.122 -0.2953 -0.7447 -0.2195
18347TIP3    H276457   3.741   0.645   2.980  0.7413 -0.4287  0.1249
18348TIP3   OH276458   0.647   1.592   0.269 -0.3326  0.3406  1.0872
18348TIP3    H176459   0.725   1.603   0.322  0.6740 -2.6790  0.3937
18348TIP3    H276460   0.600   1.518   0.308 -0.1093 -1.2877 -1.4721
18349TIP3   OH276461   4.446   4.923   1.213  0.3885  0.1451 -0.0150
18349TIP3    H176462   4.428   4.984   1.285  3.1764  1.8360 -0.5849
18349TIP3    H276463   4.480   4.844   1.256  0.6852  0.5944  0.5842
18350TIP3   OH276464   2.757   1.393   0.966  0.0481 -0.1468 -0.3451
18350TIP3    H176465   2.701   1.462   1.002  0.0376 -0.7261  0.7999
18350TIP3    H276466   2.743   1.397   0.872 -0.8089  0.6757 -0.1939
18351TIP3   OH276467   5.249   1.851   5.859 -0.4242  0.6740 -0.5138
18351TIP3    H176468   5.314   1.781   5.846 -0.2985  0.7640 -0.3687
18351TIP3    H276469   5.173   1.806   5.895 -0.0282  0.7454  0.4276
18352TIP3   OH276470   6.272   0.467  15.189 -0.2594  0.4174  0.4537
18352TIP3    H176471   6.310   0.383  15.212 -1.7329  0.0037  1.5754
18352TIP3    H276472   6.279   0.519  15.269 -1.5344  0.5026  0.5292
18353TIP3   OH276473   2.104   0.642   1.667 -0.4964 -0.6648  0.1571
18353TIP3    H176474   2.091   0.564   1.613  1.1919 -0.3646 -0.7575
18353TIP3    H276475   2.194   0.633   1.700 -0.6209  0.4273  0.8477
18354TIP3   OH276476   3.480   6.226   1.869  0.2777  0.5197 -0.6490
18354TIP3    H176477   3.428   6.153   1.835  1.6795 -0.4124 -0.8701
18354TIP3    H276478   3.521   6.265   1.791 -1.8460  2.7599 -0.7817
18355TIP3   OH276479   1.797   2.268  12.899 -0.0936  0.0345 -0.2923
18355TIP3    H176480   1.738   2.193  12.901 -1.4185  0.9343 -2.5999
18355TIP3    H276481   1.791   2.302  12.810  2.1166  1.6154  0.0710
18356TIP3   OH276482   2.425   0.592  11.875  0.0309  0.2522  0.5946
18356TIP3    H176483   2.348   0.648  11.864 -0.7502 -1.0153 -0.7110
18356TIP3    H276484   2.473   0.601  11.792 -0.8870 -2.1000 -0.2650
18357TIP3   OH276485   2.534   2.798   4.228 -0.3673  0.5434  0.1232
18357TIP3    H176486   2.452   2.785   4.274  0.8227 -0.2905  2.1709
18357TIP3    H276487   2.589   2.846   4.290  1.2282 -0.3839 -0.4951
18358TIP3   OH276488   4.266   6.449  15.329 -0.9857 -0.1060 -0.1055
18358TIP3    H176489   4.188   6.480  15.282 -1.1493 -0.2625  0.0617
18358TIP3    H276490   4.287   6.365  15.288 -0.0226  0.6115 -1.1524
18359TIP3   OH276491   3.039   6.365   5.346  0.2379  0.1649  0.4466
18359TIP3    H176492   3.130   6.337   5.357  0.0921 -0.6646 -0.3384
18359TIP3    H276493   3.045   6.457   5.320  0.8798 -0.0592 -0.2190
18360TIP3   OH276494   1.553   2.486   3.198 -0.3027  0.3586 -0.2234
18360TIP3    H176495   1.478   2.484   3.140  0.6754 -1.5524 -1.5522
18360TIP3    H276496   1.597   2.568   3.178 -1.2308  0.7975 -0.5037
18361TIP3   OH276497   3.007   4.956   1.129  0.2544 -0.3285  0.0887
18361TIP3    H176498   2.986   4.863   1.143  1.0165 -0.6624 -0.9095
18361TIP3    H276499   2.923   5.001   1.140 -0.1590 -1.1463  0.4157
18362TIP3   OH276500   2.209   5.182  11.387  0.5689  0.1528  0.7261
18362TIP3    H176501   2.183   5.236  11.312  1.9195 -0.4834 -0.2416
18362TIP3    H276502   2.126   5.152  11.425 -0.1488  0.6239 -0.4122
18363TIP3   OH276503   0.053   2.146  17.031  0.0466  0.1689  0.2826
18363TIP3    H176504  -0.040   2.139  17.052 -0.1486 -0.9582 -0.8317
18363TIP3    H276505   0.055   2.161  16.936  1.0086 -0.5985  0.1644
18364TIP3   OH276506   6.609   6.353   1.871 -0.4236  0.1757  0.1738
18364TIP3    H176507   6.516   6.370   1.882 -0.4489 -0.5613  1.3064
18364TIP3    H276508   6.614   6.294   1.795 -0.8534  0.4379 -0.0605
18365TIP3   OH276509   0.922   5.242   5.974 -0.2409  0.2170 -0.1993
18365TIP3    H176510   0.984   5.178   6.009  1.2369  0.5930 -1.9846
18365TIP3    H276511   0.850   5.244   6.038  0.9443 -1.2222  1.2448
18366TIP3   OH276512   0.953   0.380  15.262 -0.2161  0.5691 -0.1718
18366TIP3    H176513   0.934   0.288  15.276  0.4589  0.1561 -1.7826
18366TIP3    H276514   0.936   0.395  15.169  3.2154  1.1076 -0.8747
18367TIP3   OH276515   2.898   2.908   2.639 -0.1778 -0.3010 -0.4793
18367TIP3    H176516   2.885   2.833   2.582 -1.6313  0.6313 -1.4201
18367TIP3    H276517   2.815   2.955   2.638  0.5256  1.0540  0.4935
18368TIP3   OH276518   6.629   5.718   5.236 -0.3272 -0.1473 -0.4387
18368TIP3    H176519   6.702   5.676   5.280 -0.3556 -0.1770 -0.4196
18368TIP3    H276520   6.657   5.808   5.223 -0.5398  0.0045  0.1389
18369TIP3   OH276521   1.661   3.289  12.198  0.2034  0.4330  0.3103
18369TIP3    H176522   1.664   3.223  12.267 -0.2511  0.5107  0.4092
18369TIP3    H276523   1.750   3.293  12.165  0.4919  0.6258  1.1038
18370TIP3   OH276524   3.941   5.721   2.833 -0.0959  0.2690  0.4142
18370TIP3    H176525   3.873   5.785   2.808  0.8470  0.5275 -1.6994
18370TIP3    H276526   4.023   5.762   2.806  0.6528 -1.2705  0.2747
18371TIP3   OH276527   1.740   4.882  16.378 -0.0220  0.1455  0.1051
18371TIP3    H176528   1.646   4.883  16.397  0.1344 -1.1527  1.1041
18371TIP3    H276529   1.758   4.969  16.341 -1.7461  0.1434 -0.8669
18372TIP3   OH276530   2.985   1.135  14.180 -0.2770  0.3951 -0.2377
18372TIP3    H176531   3.013   1.177  14.261  0.5802  0.4146 -0.5356
18372TIP3    H276532   3.066   1.103  14.140 -0.5936  1.0601 -1.4631
18373TIP3   OH276533   1.780   3.859  15.975 -0.5041  0.1810 -0.5269
18373TIP3    H176534   1.827   3.777  15.958 -1.4320 -1.2836  3.0931
18373TIP3    H276535   1.840   3.911  16.028 -1.2748  0.1988  0.3609
18374TIP3   OH276536   5.805   4.598  11.632 -0.4424 -0.4386 -0.5942
18374TIP3    H176537   5.833   4.507  11.621  3.0283  0.4083  0.2249
18374TIP3    H276538   5.847   4.645  11.560  0.2123  0.9286  0.6245
18375TIP3   OH276539   5.740   5.229   0.201  0.0064  0.0728 -0.4785
18375TIP3    H176540   5.730   5.165   0.131  2.9924 -2.1145  0.8716
18375TIP3    H276541   5.722   5.180   0.281  0.8082  1.3426  0.5157
18376TIP3   OH276542   4.843   1.323  12.465 -0.0040  0.3249  0.0119
18376TIP3    H176543   4.754   1.296  12.486 -0.0374  1.5039  1.4842
18376TIP3    H276544   4.882   1.246  12.423 -1.0642 -0.9031  1.2071
18377TIP3   OH276545   6.244   5.930  15.680 -0.3790  0.0921 -0.5190
18377TIP3    H176546   6.229   5.940  15.586 -0.0237  2.0823 -0.3991
18377TIP3    H276547   6.336   5.953  15.692 -0.1961 -0.9664  0.2280
18378TIP3   OH276548   4.514   5.666  15.130 -0.7534  0.1216 -0.1030
18378TIP3    H176549   4.507   5.662  15.225 -0.3505 -0.4539 -0.0915
18378TIP3    H276550   4.439   5.617  15.098 -0.3655 -0.5148 -0.0618
18379TIP3   OH276551   3.351   6.076  12.652 -0.4815  0.2396  0.6307
18379TIP3    H176552   3.338   6.063  12.746  1.9666  0.4288  1.0636
18379TIP3    H276553   3.372   5.990  12.618  2.4798  0.7075  1.0395
18380TIP3   OH276554   5.646   5.554   6.280  0.5450 -0.1793  0.5254
18380TIP3    H176555   5.596   5.520   6.206 -0.2974 -2.1363  1.9117
18380TIP3    H276556   5.581   5.597   6.335  0.7409 -0.8289  1.2762
18381TIP3   OH276557   4.285   0.434   3.898  0.4643  0.1670 -0.5912
18381TIP3    H176558   4.328   0.366   3.847  1.6718  0.4537  0.0039
18381TIP3    H276559   4.256   0.390   3.978 -1.4129 -0.2788 -1.4893
18382TIP3   OH276560   1.529   6.749  13.599 -0.4312 -0.8092  0.1284
18382TIP3    H176561   1.465   6.679  13.614 -1.1395 -0.4220 -1.0189
18382TIP3    H276562   1.608   6.703  13.570  0.1645 -1.3664  2.4116
18383TIP3   OH276563   3.928   0.446  13.354  0.5830 -0.1244 -0.0938
18383TIP3    H176564   3.886   0.485  13.277  0.4440  0.5201  0.3040
18383TIP3    H276565   3.983   0.376  13.318  0.3781  0.0494 -0.7637
18384TIP3   OH276566   3.393   0.382  12.967 -0.2825 -0.3100 -0.1648
18384TIP3    H176567   3.377   0.472  12.996  2.1689 -0.1656  0.9952
18384TIP3    H276568   3.353   0.328  13.035  0.3015 -0.0268  0.4253
18385TIP3   OH276569   6.345   1.913   3.466  0.2040 -0.5621  0.2207
18385TIP3    H176570   6.285   1.863   3.521 -0.4338 -1.0648 -0.9029
18385TIP3    H276571   6.313   2.003   3.471 -0.0042 -0.6487  0.4608
18386TIP3   OH276572   2.369   5.038   1.822 -0.7094 -0.3814 -0.6987
18386TIP3    H176573   2.332   5.126   1.813 -1.6277 -0.6656  0.1218
18386TIP3    H276574   2.305   4.981   1.778 -1.0726 -0.8439  0.4087
18387TIP3   OH276575   3.576   5.288  14.730 -0.1742 -0.1329  0.1072
18387TIP3    H176576   3.485   5.283  14.758 -0.8380 -0.4091 -1.9079
18387TIP3    H276577   3.576   5.355  14.661  1.0235 -0.5351 -0.3021
18388TIP3   OH276578   4.952   3.811   0.275  0.4248 -0.2747 -0.1681
18388TIP3    H176579   4.940   3.811   0.180 -0.1814  0.0930 -0.0924
18388TIP3    H276580   4.947   3.718   0.299 -2.7475 -0.1817 -0.0985
18389TIP3   OH276581   6.008   6.720   3.812  0.1930  0.3120 -0.5981
18389TIP3    H176582   6.005   6.705   3.906 -0.5038  0.1940 -0.6292
18389TIP3    H276583   5.918   6.703   3.782  0.0630  1.6763 -1.0672
18390TIP3   OH276584   6.261   3.268   0.549  0.4248  0.0762  0.2612
18390TIP3    H176585   6.244   3.194   0.608 -1.4336  2.0105  2.3101
18390TIP3    H276586   6.204   3.251   0.474 -0.8875 -0.0112  1.2462
18391TIP3   OH276587   5.029   4.057   1.068  0.1641  0.2416 -0.1871
18391TIP3    H176588   5.060   3.969   1.088  1.5377  0.8451  0.5106
18391TIP3    H276589   5.050   4.069   0.975 -1.7586 -0.8189 -0.7951
18392TIP3   OH276590   3.855   0.164  12.397  0.4882 -0.1896  0.2644
18392TIP3    H176591   3.884   0.097  12.336 -0.3055 -0.0158 -0.3198
18392TIP3    H276592   3.934   0.214  12.419  0.6928  0.0722 -1.0180
18393TIP3   OH276593   0.205   6.562   6.025 -0.1152  0.3969  0.1259
18393TIP3    H176594   0.207   6.656   6.011 -1.1025  0.3391 -0.4836
18393TIP3    H276595   0.192   6.552   6.120  1.5828  0.8324  0.4489
18394TIP3   OH276596   1.343   6.082   5.378  0.6776 -0.0541 -0.2138
18394TIP3    H176597   1.386   6.111   5.298 -1.2281  2.6152 -0.3819
18394TIP3    H276598   1.366   6.147   5.444  1.0702 -1.4455  1.0882
18395TIP3   OH276599   4.545   6.343  15.346  0.4147 -0.3390  0.7896
18395TIP3    H176600   4.604   6.322  15.419 -0.3644 -1.9245  1.0137
18395TIP3    H276601   4.471   6.386  15.388  1.1057  1.1238  0.5775
18396TIP3   OH276602   4.419   6.677  15.944  0.4458 -0.0087 -0.5577
18396TIP3    H176603   4.415   6.600  16.002  1.8898 -0.3355 -0.8680
18396TIP3    H276604   4.345   6.665  15.884 -1.9014  0.9747  1.8988
18397TIP3   OH276605   0.957   3.090   5.413  0.1067 -0.2112  0.4169
18397TIP3    H176606   0.913   3.066   5.495  0.6999  2.3326  1.5406
18397TIP3    H276607   1.048   3.063   5.425 -0.3068 -2.3672 -0.5947
18398TIP3   OH276608   2.591   3.121  13.044 -0.1170  0.2344  0.5404
18398TIP3    H176609   2.549   3.202  13.012 -0.6108 -0.2758 -0.1327
18398TIP3    H276610   2.529   3.087  13.109 -1.4766 -1.2130 -1.3837
18399TIP3   OH276611   6.230   1.116  14.847 -0.2069  0.1383  0.5483
18399TIP3    H176612   6.240   1.055  14.921 -0.1142 -0.7569 -0.1842
18399TIP3    H276613   6.142   1.099  14.814  1.0270 -2.3027 -1.9406
18400TIP3   OH276614   6.617   1.806  14.412  0.2770 -0.1255 -0.3151
18400TIP3    H176615   6.663   1.761  14.341  3.0371 -0.8391  1.7553
18400TIP3    H276616   6.625   1.748  14.487 -4.2814 -0.3293  0.2909
18401TIP3   OH276617   2.600   4.135  11.586  0.6963  0.4931  0.9208
18401TIP3    H176618   2.513   4.157  11.621  0.7444 -1.2325  2.2698
18401TIP3    H276619   2.661   4.183  11.642  0.6556  1.2994  0.2958
18402TIP3   OH276620   6.096   4.768   6.047  0.3777 -0.0166 -0.1456
18402TIP3    H176621   6.139   4.690   6.084 -2.9437 -1.0136  2.0739
18402TIP3    H276622   6.056   4.736   5.966  0.3832 -0.2000 -0.0780
18403TIP3   OH276623   1.232   4.142   4.619 -0.0828 -0.2111  0.2577
18403TIP3    H176624   1.179   4.143   4.539 -1.3275 -0.3375  1.0459
18403TIP3    H276625   1.191   4.208   4.675  1.1880  0.3476  0.5403
18404TIP3   OH276626   5.277   3.025  12.399  0.3364  0.4641  0.4558
18404TIP3    H176627   5.251   2.940  12.434  0.1453  0.1782 -0.3528
18404TIP3    H276628   5.310   3.006  12.311  0.1426  1.2395  0.2067
18405TIP3   OH276629   5.487   3.030  17.058  0.0408  0.3868 -0.1181
18405TIP3    H176630   5.397   3.021  17.091 -0.6376  1.1418 -1.6773
18405TIP3    H276631   5.509   2.942  17.025 -0.2752  0.2978 -0.0980
18406TIP3   OH276632   4.554   0.543  11.969  0.0088  0.0270 -0.3588
18406TIP3    H176633   4.638   0.504  11.994  0.1530  0.5158 -0.0758
18406TIP3    H276634   4.500   0.468  11.946 -0.0242 -0.4492  1.1174
18407TIP3   OH276635   4.311   2.687  15.112 -0.6051 -0.4516 -0.1007
18407TIP3    H176636   4.313   2.733  15.196  0.1990  1.6063 -1.1671
18407TIP3    H276637   4.284   2.598  15.134 -1.1258  0.2097  2.2328
18408TIP3   OH276638   0.307   3.016  10.897  0.0692 -0.3395 -0.3493
18408TIP3    H176639   0.300   3.077  10.823 -1.3348  0.8787  0.7477
18408TIP3    H276640   0.222   3.020  10.940  0.1678 -2.6066  0.1674
18409TIP3   OH276641   3.694   1.506  14.791 -0.1594  0.1028  0.0215
18409TIP3    H176642   3.777   1.552  14.806 -0.8745  1.0524  1.2194
18409TIP3    H276643   3.721   1.420  14.759  1.2942  0.4166  0.3086
18410TIP3   OH276644   5.419   2.050   0.221 -0.7976 -0.6357 -0.0403
18410TIP3    H176645   5.449   2.013   0.304  3.7701  1.4584 -0.4392
18410TIP3    H276646   5.359   2.120   0.246 -1.7112 -1.8290  1.2479
18411TIP3   OH276647   3.782   1.658  11.725  0.4899 -0.4037 -0.3770
18411TIP3    H176648   3.742   1.592  11.781  0.0049 -2.1868 -2.6546
18411TIP3    H276649   3.871   1.669  11.759 -0.2829 -0.1879  1.6627
18412TIP3   OH276650   0.246   0.932   3.778  0.7970 -0.4598 -0.1397
18412TIP3    H176651   0.205   0.845   3.778 -0.6003  0.1588 -1.3973
18412TIP3    H276652   0.174   0.993   3.766  1.9969  0.7266 -1.8094
18413TIP3   OH276653   3.713   2.593   4.894  0.2109  0.2887  0.2797
18413TIP3    H176654   3.642   2.618   4.953 -0.2768 -2.8709  1.2280
18413TIP3    H276655   3.683   2.621   4.807 -1.7232 -0.0021  0.8051
18414TIP3   OH276656   0.460   0.571   3.629 -0.1750  0.0716 -0.0678
18414TIP3    H176657   0.454   0.483   3.590 -1.6958 -0.4692  1.2954
18414TIP3    H276658   0.542   0.569   3.679 -0.1469 -0.5237 -0.1240
18415TIP3   OH276659   5.625   5.615  16.679 -0.0083 -0.1155 -0.3787
18415TIP3    H176660   5.590   5.584  16.762 -0.4631  2.9266  0.7004
18415TIP3    H276661   5.718   5.628  16.695 -0.4700  2.6728  0.5176
18416TIP3   OH276662   0.769   4.167  13.286  0.1966  0.4087  0.1069
18416TIP3    H176663   0.692   4.182  13.340  1.0444  1.3990  1.0931
18416TIP3    H276664   0.798   4.079  13.309 -0.4654  0.1482 -0.0496
18417TIP3   OH276665   6.171   0.321   3.494 -0.0781  0.6504 -0.2511
18417TIP3    H176666   6.126   0.281   3.568  0.1472  0.9779  0.0679
18417TIP3    H276667   6.102   0.362   3.442 -0.1564  1.1074  0.2094
18418TIP3   OH276668   0.613   3.874  11.986 -0.2081  0.3846  0.0942
18418TIP3    H176669   0.577   3.941  11.929 -1.1108 -0.7295 -0.6972
18418TIP3    H276670   0.567   3.794  11.961  2.2435 -0.9740 -0.4001
18419TIP3   OH276671   2.400   3.309  12.933  0.0495  0.6277  0.2217
18419TIP3    H176672   2.415   3.380  12.870 -2.0105  0.2440 -0.7930
18419TIP3    H276673   2.374   3.234  12.879  2.1548 -0.9453  1.2666
18420TIP3   OH276674   4.122   5.446   0.423 -0.2297 -0.0880  0.6773
18420TIP3    H176675   4.163   5.503   0.489  0.9934 -0.4413  0.2430
18420TIP3    H276676   4.182   5.372   0.415 -1.2407 -0.8847  0.4072
18421TIP3   OH276677   0.744   5.097  14.783  0.4031  0.6940 -0.2604
18421TIP3    H176678   0.734   5.190  14.764  1.9328  2.0364  4.2854
18421TIP3    H276679   0.831   5.075  14.749  0.6173  1.3208 -0.1423
18422TIP3   OH276680   1.475   0.598  13.242  0.1573  0.2784 -0.3446
18422TIP3    H176681   1.398   0.652  13.226 -0.2108 -0.1609 -0.0937
18422TIP3    H276682   1.516   0.636  13.320 -0.3823 -0.1043  0.1314
18423TIP3   OH276683   1.292   4.340  16.948  0.0037 -0.1212 -0.1797
18423TIP3    H176684   1.374   4.345  16.997  0.5372 -1.1013 -0.9375
18423TIP3    H276685   1.224   4.340  17.015  0.5925  1.1098  0.4473
18424TIP3   OH276686   3.163   1.021  11.819  0.1527 -0.1088 -0.4256
18424TIP3    H176687   3.155   0.925  11.823 -1.0100 -0.0991 -1.8971
18424TIP3    H276688   3.254   1.038  11.840  0.0042 -1.4125  1.5748
18425TIP3   OH276689   0.256   6.169   6.154 -0.2564 -0.1676  0.2265
18425TIP3    H176690   0.208   6.183   6.236 -0.1973 -3.6485  1.0000
18425TIP3    H276691   0.344   6.143   6.182 -0.0965 -0.9366 -0.9466
18426TIP3   OH276692   6.224   0.673  17.003  0.4027 -0.6414  0.5526
18426TIP3    H176693   6.256   0.683  16.913 -0.2992 -2.2918  0.0774
18426TIP3    H276694   6.287   0.616  17.045  1.4340  1.1308  1.5601
18427TIP3   OH276695   3.113   4.478  14.979  0.0300 -0.4955 -0.2938
18427TIP3    H176696   3.113   4.431  14.895 -0.7428  1.4730 -1.4642
18427TIP3    H276697   3.065   4.559  14.961 -1.7817 -0.8097  2.5513
18428TIP3   OH276698   5.593   1.337  11.897  0.1123  0.2287  0.0353
18428TIP3    H176699   5.561   1.391  11.969 -3.0104 -0.7910 -0.4382
18428TIP3    H276700   5.563   1.382  11.818 -2.3526 -1.8774 -0.3766
18429TIP3   OH276701   1.888   2.310  14.701 -0.1152 -0.2445 -0.0006
18429TIP3    H176702   1.975   2.348  14.717 -0.5450  0.6139  0.3272
18429TIP3    H276703   1.885   2.296  14.607  1.0701 -2.0012  0.1537
18430TIP3   OH276704   2.871   3.504  14.806  0.0457  0.1364  0.1713
18430TIP3    H176705   2.846   3.412  14.798  0.8600  0.0358 -1.4109
18430TIP3    H276706   2.873   3.520  14.901 -1.5360 -1.0514  0.4532
18431TIP3   OH276707   6.363   3.635  12.143  0.0973 -0.6240  0.6332
18431TIP3    H176708   6.386   3.687  12.220  0.8819 -1.3728  0.9167
18431TIP3    H276709   6.374   3.696  12.069  0.4149 -0.2152  1.0134
18432TIP3   OH276710   3.771   5.146  14.856  0.1033 -0.3123 -0.6786
18432TIP3    H176711   3.739   5.056  14.853 -0.3093 -0.2081  0.0841
18432TIP3    H276712   3.691   5.199  14.852  0.3273  0.0100 -0.8775
18433TIP3   OH276713   1.138   0.315   3.201 -0.1610  0.0311 -0.2741
18433TIP3    H176714   1.137   0.231   3.155  1.3735  0.5952 -1.4559
18433TIP3    H276715   1.212   0.363   3.162 -0.4175  1.5758  1.0017
18434TIP3   OH276716   2.013   6.226  14.023 -0.4161  0.0195  0.2580
18434TIP3    H176717   2.103   6.207  13.996  0.0026  0.4040  1.3346
18434TIP3    H276718   1.987   6.300  13.969 -0.7251 -1.1562 -1.2904
18435TIP3   OH276719   3.204   3.645  12.889 -0.3595  0.3774 -0.6011
18435TIP3    H176720   3.147   3.641  12.812 -2.6278  0.5516  0.9731
18435TIP3    H276721   3.167   3.581  12.950  2.6628 -1.3632 -0.3787
18436TIP3   OH276722   2.397   5.485   3.609 -0.4486  0.2296  0.6406
18436TIP3    H176723   2.453   5.434   3.550 -1.4625 -1.5583  1.1673
18436TIP3    H276724   2.450   5.562   3.631  0.7622 -0.0973 -0.9266
18437TIP3   OH276725   5.545   4.079  13.814  0.4081  0.1521  0.4398
18437TIP3    H176726   5.455   4.063  13.845  0.2488 -0.9812 -0.5364
18437TIP3    H276727   5.534   4.133  13.736  0.5899  0.1890  0.4399
18438TIP3   OH276728   6.334   6.310  11.033 -0.0717  0.6444 -0.6923
18438TIP3    H176729   6.273   6.373  11.071 -0.3228  0.2033 -0.3598
18438TIP3    H276730   6.418   6.329  11.075  0.1951  1.6847 -1.6216
18439TIP3   OH276731   5.051   2.504   4.141 -0.3961 -0.0125 -0.3172
18439TIP3    H176732   5.095   2.491   4.226  0.3743 -1.4762 -0.8990
18439TIP3    H276733   5.029   2.597   4.139  0.6272  0.2867  0.9956
18440TIP3   OH276734   5.135   4.495   1.406  0.8686  0.4220  0.0960
18440TIP3    H176735   5.222   4.473   1.440  0.4009 -0.3338  0.8442
18440TIP3    H276736   5.102   4.561   1.467  0.0537 -0.8852  1.1048
18441TIP3   OH276737   2.633   4.494  10.654  0.5988 -0.2211 -0.4782
18441TIP3    H176738   2.597   4.576  10.687  1.5168 -0.5378  1.4493
18441TIP3    H276739   2.561   4.454  10.605 -0.1147  1.3286 -0.7641
18442TIP3   OH276740   3.421   5.477  16.028 -0.1642  0.3820  0.1914
18442TIP3    H176741   3.516   5.466  16.038 -0.0695  0.6856 -0.3194
18442TIP3    H276742   3.384   5.396  16.064  0.3381 -0.1290 -0.4064
18443TIP3   OH276743   3.134   4.716  16.596 -0.5916  0.0402 -0.3965
18443TIP3    H176744   3.209   4.714  16.536 -1.2555  0.5032 -1.2665
18443TIP3    H276745   3.079   4.642  16.568 -0.3630 -0.4292  0.3762
18444TIP3   OH276746   5.188   2.899   5.268 -0.2350  1.3964 -0.0242
18444TIP3    H176747   5.113   2.940   5.312  0.2130  1.7069  0.4713
18444TIP3    H276748   5.251   2.884   5.338 -1.1202 -2.0029  0.1968
18445TIP3   OH276749   3.555   6.669   4.849  0.4616  0.0370  0.9968
18445TIP3    H176750   3.580   6.674   4.757  0.7391  2.0355  1.1209
18445TIP3    H276751   3.637   6.653   4.896  0.6369  0.8241  0.9886
18446TIP3   OH276752   0.742   3.725  13.113  0.2830 -0.0022 -0.0288
18446TIP3    H176753   0.776   3.802  13.158  1.4662 -0.8453  0.5853
18446TIP3    H276754   0.768   3.738  13.021 -0.2654  0.7175 -0.0880
18447TIP3   OH276755   5.302   5.335   1.783  0.7631  0.5216 -0.3436
18447TIP3    H176756   5.343   5.422   1.777 -0.3602  1.1373  0.5461
18447TIP3    H276757   5.362   5.285   1.839  0.9126  1.0421 -0.0275
18448TIP3   OH276758   1.374   0.968  11.235  0.5000  0.3080 -0.2002
18448TIP3    H176759   1.317   1.022  11.180 -2.3286  0.8752  2.9131
18448TIP3    H276760   1.433   1.030  11.278  2.2319 -0.0540 -1.9395
18449TIP3   OH276761   2.170   3.312   6.263  0.0373 -0.7127  0.0383
18449TIP3    H176762   2.190   3.396   6.222  0.3894 -0.0199  1.5550
18449TIP3    H276763   2.139   3.335   6.351  1.9233 -2.2224  1.1848
18450TIP3   OH276764   0.023   0.731  14.635 -0.1517 -0.4121  0.3885
18450TIP3    H176765  -0.041   0.706  14.569  1.3111 -1.1616 -0.8198
18450TIP3    H276766  -0.014   0.700  14.718 -1.5063 -0.4702 -0.2132
18451TIP3   OH276767   6.546   1.710   3.662 -0.0451 -1.0491  0.0885
18451TIP3    H176768   6.523   1.621   3.635 -1.9381 -0.2755 -1.0602
18451TIP3    H276769   6.580   1.751   3.582 -0.6068 -0.3146  0.2163
18452TIP3   OH276770   4.403   3.778   5.774  0.1256 -0.3578  0.2890
18452TIP3    H176771   4.439   3.721   5.842 -1.2065 -1.0660  0.4383
18452TIP3    H276772   4.380   3.719   5.703  1.5525  0.3803 -0.8428
18453TIP3   OH276773   0.208   1.807  14.698  0.4436  0.0609 -0.0918
18453TIP3    H176774   0.210   1.733  14.638 -1.3354  0.6617 -0.9812
18453TIP3    H276775   0.293   1.850  14.686  0.7216 -0.7118 -1.0417
18454TIP3   OH276776   5.449   2.649  14.039  0.0386 -0.0259  0.6360
18454TIP3    H176777   5.475   2.563  14.007 -1.8719 -0.0305 -1.1263
18454TIP3    H276778   5.489   2.711  13.977 -0.5034  0.1962  0.4994
18455TIP3   OH276779   1.587   5.644   2.149  0.1626  0.4532  0.3163
18455TIP3    H176780   1.614   5.560   2.113  1.5010  0.6993  0.6680
18455TIP3    H276781   1.664   5.674   2.197 -0.6194  1.4407  0.9814
18456TIP3   OH276782   1.609   1.382   2.114  0.4848  0.0037 -0.1949
18456TIP3    H176783   1.668   1.401   2.041  0.5640  0.2263 -0.0727
18456TIP3    H276784   1.563   1.302   2.087  0.5366  0.0672 -0.4734
18457TIP3   OH276785   6.123   3.156   3.960 -0.3069  0.3358 -0.9101
18457TIP3    H176786   6.114   3.192   4.048 -0.2345 -0.3039 -0.6342
18457TIP3    H276787   6.150   3.065   3.974  0.3938  0.4195 -1.5996
18458TIP3   OH276788   1.249   4.282  12.707  0.5041  0.5485  0.7858
18458TIP3    H176789   1.194   4.211  12.673  0.7012  0.1367  1.3115
18458TIP3    H276790   1.338   4.256  12.683  0.6844  0.0726  1.8889
18459TIP3   OH276791   5.651   2.268   3.644  0.6159 -0.7671  0.3882
18459TIP3    H176792   5.717   2.306   3.702  0.0793 -1.5659  1.5626
18459TIP3    H276793   5.569   2.277   3.692  0.1267 -1.2610 -0.3375
18460TIP3   OH276794   0.877   6.590   3.932 -0.0874 -0.1399 -0.0927
18460TIP3    H176795   0.926   6.614   4.011 -0.1040 -2.0993  0.5495
18460TIP3    H276796   0.937   6.536   3.881 -0.1999  0.8219 -1.2966
18461TIP3   OH276797   2.946   0.662   0.111 -0.1717 -0.0603 -0.1467
18461TIP3    H176798   2.990   0.618   0.184  0.8585 -0.3073 -0.9045
18461TIP3    H276799   2.857   0.678   0.144  0.0743 -0.7539  0.9237
18462TIP3   OH276800   2.109   2.969   1.872  0.3372 -0.2333  0.6432
18462TIP3    H176801   2.183   2.912   1.851 -1.0720 -2.3252  1.0712
18462TIP3    H276802   2.073   2.994   1.787  2.2409  1.9180  0.3716
18463TIP3   OH276803   1.008   2.500   1.988  0.3888  0.4242  0.7938
18463TIP3    H176804   1.039   2.409   1.989 -2.0408 -0.4733  1.3655
18463TIP3    H276805   1.022   2.529   1.898 -0.5209 -1.1959  0.0931
18464TIP3   OH276806   1.966   5.489  12.431 -0.0510 -0.2194 -0.1482
18464TIP3    H176807   1.884   5.502  12.478 -0.3867 -1.9669 -0.1937
18464TIP3    H276808   2.031   5.535  12.485 -0.8233 -0.0368  0.6620
18465TIP3   OH276809   5.520   1.581   2.608 -0.2150 -0.2063 -0.5674
18465TIP3    H176810   5.523   1.485   2.603 -1.3109 -0.2526 -0.5343
18465TIP3    H276811   5.489   1.609   2.522 -0.8432  0.0567 -0.2598
18466TIP3   OH276812   3.577   1.378  12.648  0.3321 -0.4077 -0.0798
18466TIP3    H176813   3.530   1.297  12.665  0.4839 -0.7484 -1.1730
18466TIP3    H276814   3.527   1.445  12.695 -1.0574 -0.8112 -0.9029
18467TIP3   OH276815   2.151   2.437   1.171  0.2154  0.1628 -0.4724
18467TIP3    H176816   2.207   2.368   1.135  0.4766 -0.2746  0.7402
18467TIP3    H276817   2.211   2.509   1.189  0.5201 -0.5288  1.4053
18468TIP3   OH276818   3.151   6.014  13.155 -0.3764  0.0791 -0.1031
18468TIP3    H176819   3.185   5.963  13.229  0.5993  0.1922 -0.4613
18468TIP3    H276820   3.162   5.958  13.079  0.1346  0.5887 -0.4093
18469TIP3   OH276821   2.535   3.530   5.438  0.5163  0.8112 -0.2696
18469TIP3    H176822   2.475   3.494   5.503 -2.2736  0.7769 -2.6516
18469TIP3    H276823   2.546   3.621   5.465 -0.0692  0.6454  0.5965
18470TIP3   OH276824   1.106   1.024  11.377  0.3580  0.2545 -0.0710
18470TIP3    H176825   1.170   1.080  11.333 -1.8227  1.7907 -1.5074
18470TIP3    H276826   1.023   1.043  11.333 -1.3072 -0.9402  2.3062
18471TIP3   OH276827   1.882   3.622   0.638  0.2519  0.2505 -0.3445
18471TIP3    H176828   1.855   3.677   0.566  1.2399  1.1755 -0.0256
18471TIP3    H276829   1.924   3.546   0.597  1.0575  0.9046 -0.7460
18472TIP3   OH276830   5.359   6.615   1.910  0.2896 -0.6293 -0.2128
18472TIP3    H176831   5.315   6.608   1.825 -1.4083  0.0771  0.5530
18472TIP3    H276832   5.432   6.675   1.895 -1.6754  1.8357 -0.6168
18473TIP3   OH276833   4.747   6.569   2.312 -0.1343  0.1307  0.5287
18473TIP3    H176834   4.717   6.514   2.240  0.4049 -0.8063  1.0104
18473TIP3    H276835   4.842   6.558   2.314  0.1625  2.1763 -0.2463
18474TIP3   OH276836   3.360   5.732  15.903 -0.0727 -0.0855  0.0576
18474TIP3    H176837   3.384   5.649  15.943  1.4613  0.0153 -0.5872
18474TIP3    H276838   3.309   5.707  15.825 -1.4469 -0.3236  0.9830
18475TIP3   OH276839   2.385   2.013   3.762 -0.1119  0.6769 -0.3092
18475TIP3    H176840   2.313   2.070   3.733 -0.1862  0.0456 -1.4412
18475TIP3    H276841   2.381   1.938   3.703  2.3033  1.2392 -1.3028
18476TIP3   OH276842   6.479   0.417   0.943  0.3339 -0.2172  0.0419
18476TIP3    H176843   6.445   0.330   0.921  1.5913 -0.6057 -0.4320
18476TIP3    H276844   6.473   0.422   1.038  0.4694 -0.9243  0.0935
18477TIP3   OH276845   1.164   2.527   4.529 -0.5132  0.0229  0.8192
18477TIP3    H176846   1.244   2.566   4.493 -0.5754 -1.8311 -1.5669
18477TIP3    H276847   1.093   2.573   4.484 -0.6114 -1.4497 -0.6647
18478TIP3   OH276848   0.194   3.979  14.660 -0.0714  0.4106 -0.3230
18478TIP3    H176849   0.155   4.026  14.733 -2.6499 -0.6894 -0.8832
18478TIP3    H276850   0.223   4.048  14.600 -1.3582  1.3066  0.0502
18479TIP3   OH276851   0.567   3.197  11.221  0.1395  0.9161 -0.4121
18479TIP3    H176852   0.536   3.248  11.146 -1.7773 -1.3305 -1.2828
18479TIP3    H276853   0.524   3.112  11.211  0.5797  0.2026  2.7204
18480TIP3   OH276854   2.636   0.493  15.907 -0.4109  0.5503 -0.0842
18480TIP3    H176855   2.575   0.466  15.838 -0.5378  2.1032 -0.6253
18480TIP3    H276856   2.722   0.466  15.876 -0.6014  0.1157 -0.2453
18481TIP3   OH276857   4.181   6.316   3.777  0.1686 -0.5901 -0.0837
18481TIP3    H176858   4.117   6.301   3.708  0.9436 -0.1410 -0.9237
18481TIP3    H276859   4.200   6.410   3.772 -0.5485 -0.3294  1.4602
18482TIP3   OH276860   1.370   4.317   6.109 -0.4900  0.3111 -0.0743
18482TIP3    H176861   1.280   4.285   6.115  0.0283 -1.2131 -0.0253
18482TIP3    H276862   1.380   4.374   6.185 -1.3044  0.2060  0.1213
18483TIP3   OH276863   5.337   6.183   5.739  0.6435 -0.0361 -0.2281
18483TIP3    H176864   5.286   6.202   5.819  0.4531  0.7657 -0.5243
18483TIP3    H276865   5.275   6.141   5.680  0.7982 -0.6777  0.0639
18484TIP3   OH276866   4.850   2.506  10.680 -0.2853 -0.7429 -0.4777
18484TIP3    H176867   4.896   2.577  10.725  0.2579 -0.7866 -0.9597
18484TIP3    H276868   4.914   2.436  10.673 -0.4194 -0.8095 -1.1466
18485TIP3   OH276869   0.325   0.956  13.405 -0.0902  0.3055  0.3354
18485TIP3    H176870   0.392   0.897  13.368 -1.4337 -2.6797  2.2346
18485TIP3    H276871   0.336   0.947  13.500 -1.4098  1.9231  0.6764
18486TIP3   OH276872   5.088   2.810  11.502  0.1881  0.3121  0.2992
18486TIP3    H176873   5.159   2.763  11.545  1.0941  2.0892  0.8333
18486TIP3    H276874   5.126   2.894  11.475 -1.9247  1.8020  1.6008
18487TIP3   OH276875   4.115   1.161   0.857 -0.3810 -0.3696 -0.2724
18487TIP3    H176876   4.086   1.070   0.863 -0.8443 -0.1153  2.8558
18487TIP3    H276877   4.121   1.191   0.948 -0.5216  2.8187 -1.1838
18488TIP3   OH276878   1.188   3.358  12.841  0.4555  0.4827  0.1166
18488TIP3    H176879   1.217   3.373  12.751 -0.0700 -1.4053 -0.4063
18488TIP3    H276880   1.267   3.330  12.887  0.9635  2.4882  0.5604
18489TIP3   OH276881   3.822   4.371   2.969  0.2162 -0.5050 -0.1360
18489TIP3    H176882   3.837   4.463   2.988 -1.7338 -0.3927  1.1174
18489TIP3    H276883   3.876   4.353   2.892 -0.1293  1.9400 -1.0186
18490TIP3   OH276884   5.993   3.412  12.589  0.2207  0.6055  0.0464
18490TIP3    H176885   5.991   3.318  12.570 -0.2701  0.7716 -0.7570
18490TIP3    H276886   6.074   3.424  12.638  1.3054  0.0767 -1.5380
18491TIP3   OH276887   2.356   0.947  15.798  0.0422  0.0349  0.5013
18491TIP3    H176888   2.311   0.916  15.877  0.0171  2.2651  1.4366
18491TIP3    H276889   2.410   1.019  15.828  0.7369  0.3635 -1.3921
18492TIP3   OH276890   6.371   2.737  14.484 -0.0013  0.0888 -0.4660
18492TIP3    H176891   6.464   2.718  14.493 -0.3849 -0.7253  4.0401
18492TIP3    H276892   6.360   2.824  14.522 -0.9604  0.8922 -2.4367
18493TIP3   OH276893   5.008   5.006  14.768 -0.3408  0.5116 -0.0302
18493TIP3    H176894   5.044   5.028  14.682  0.3014  2.1698  0.6104
18493TIP3    H276895   4.914   5.000  14.754 -0.1675 -0.2035 -1.0202
18494TIP3   OH276896   5.081   4.868   5.610  0.1305 -0.6532  0.0363
18494TIP3    H176897   5.075   4.927   5.685  1.0412 -2.4790  1.6079
18494TIP3    H276898   5.123   4.920   5.542 -1.8332  1.4426  0.2832
18495TIP3   OH276899   5.457   0.380  12.795  0.4064  0.8410 -0.5821
18495TIP3    H176900   5.381   0.324  12.776  1.6695 -1.1412 -0.0619
18495TIP3    H276901   5.435   0.464  12.755 -1.7442  0.1145 -1.0708
18496TIP3   OH276902   3.003   5.035  15.155 -0.0218  0.3449 -0.0635
18496TIP3    H176903   3.097   5.018  15.158  0.4909  2.7510 -0.7215
18496TIP3    H276904   2.984   5.081  15.237 -0.8845 -1.0365  0.5590
18497TIP3   OH276905   2.652   3.449  12.228 -0.1505  0.1242 -0.1436
18497TIP3    H176906   2.585   3.490  12.283 -1.2917  0.7535 -1.9310
18497TIP3    H276907   2.694   3.522  12.183  1.1610 -0.3403  0.2678
18498TIP3   OH276908   5.069   2.841  16.271  0.0237  0.3865  0.2705
18498TIP3    H176909   5.135   2.813  16.208 -0.4777 -1.7994  0.6238
18498TIP3    H276910   5.059   2.766  16.330 -0.6182  1.8043  2.0402
18499TIP3   OH276911   4.168   5.603  12.069 -0.6445 -0.0074 -0.2207
18499TIP3    H176912   4.157   5.525  12.123  0.7980 -0.0340  0.0617
18499TIP3    H276913   4.174   5.569  11.980  0.7243 -0.3116 -0.0331
18500TIP3   OH276914   2.038   6.040   5.845  0.3066 -0.1295  0.0113
18500TIP3    H176915   2.082   5.955   5.851  2.0737  0.3262 -3.6365
18500TIP3    H276916   1.947   6.019   5.824  0.8336 -1.1881 -1.3627
18501TIP3   OH276917   2.806   5.102   2.062 -0.4677 -0.1439 -0.1385
18501TIP3    H176918   2.731   5.072   2.010 -0.1224 -0.7594 -0.2842
18501TIP3    H276919   2.875   5.038   2.045  1.4830  2.4413 -3.1822
18502TIP3   OH276920   4.992   6.581  16.406  0.6943  0.0805 -0.8027
18502TIP3    H176921   4.982   6.503  16.461  1.0117  0.1940 -0.5828
18502TIP3    H276922   5.071   6.565  16.354 -0.1221 -0.4437 -1.9286
18503TIP3   OH276923   4.702   3.799  12.668  0.4653 -0.4259 -0.0387
18503TIP3    H176924   4.713   3.755  12.583  0.9186  1.1704 -0.8298
18503TIP3    H276925   4.775   3.860  12.673 -0.7786  1.0686  0.4982
18504TIP3   OH276926   4.813   1.927   5.315  0.2080 -0.7310 -0.6100
18504TIP3    H176927   4.881   1.994   5.306 -3.2815  3.4049  0.3717
18504TIP3    H276928   4.797   1.921   5.409 -1.1360 -1.1223 -0.8361
18505TIP3   OH276929   5.402   4.402  13.307  0.4306  0.0210  0.1525
18505TIP3    H176930   5.424   4.492  13.329 -0.4056  0.3356 -0.2428
18505TIP3    H276931   5.307   4.403  13.298  0.4469 -0.8366 -0.1514
18506TIP3   OH276932   5.597   0.341   2.041  0.3139 -0.2992 -0.2967
18506TIP3    H176933   5.633   0.284   1.973  0.4807 -0.8429  0.2330
18506TIP3    H276934   5.580   0.424   1.997  0.8382 -0.5039 -0.8997
18507TIP3   OH276935   5.559   5.755   0.423 -0.0543 -0.4301  0.6399
18507TIP3    H176936   5.537   5.833   0.371 -2.2116 -1.8761 -0.8202
18507TIP3    H276937   5.544   5.782   0.513 -1.7564  0.6167  0.1001
18508TIP3   OH276938   6.099   2.619  12.608  0.0617 -0.0234 -0.2345
18508TIP3    H176939   6.158   2.583  12.541 -0.3820 -0.4223 -0.4128
18508TIP3    H276940   6.038   2.548  12.627 -0.1431  0.2696  0.2142
18509TIP3   OH276941   3.438   2.102   0.759 -0.0618 -0.3460 -0.2900
18509TIP3    H176942   3.418   2.146   0.676  2.7555  0.2351 -0.7584
18509TIP3    H276943   3.500   2.161   0.803  2.4376 -2.9026 -0.0996
18510TIP3   OH276944   1.702   6.584  13.465  0.0787 -0.6125  0.0996
18510TIP3    H176945   1.781   6.612  13.510  0.5616 -1.1947 -0.3745
18510TIP3    H276946   1.682   6.498  13.502 -0.1831 -0.5824  0.0348
18511TIP3   OH276947   2.830   1.467   4.018  0.0178 -0.1881  0.0080
18511TIP3    H176948   2.780   1.517   3.953  0.8712 -0.7865 -1.1421
18511TIP3    H276949   2.834   1.378   3.983 -2.7722 -1.5816  2.7416
18512TIP3   OH276950   0.866   5.586   0.793 -0.3208  0.0789 -0.3078
18512TIP3    H176951   0.945   5.532   0.795 -0.3247  0.0961  0.4168
18512TIP3    H276952   0.795   5.526   0.816 -0.1987  0.5792  1.5729
18513TIP3   OH276953   2.706   1.593  11.885  0.2230  0.1380 -0.3102
18513TIP3    H176954   2.651   1.662  11.848 -0.1435 -1.2386 -2.4885
18513TIP3    H276955   2.773   1.640  11.934 -1.6257  1.9274  0.6506
18514TIP3   OH276956   5.597   6.282   5.164  0.1764 -0.6233  0.2269
18514TIP3    H176957   5.593   6.190   5.136  1.1962 -0.8910  0.8966
18514TIP3    H276958   5.517   6.321   5.130  0.6825 -1.2653 -1.8229
18515TIP3   OH276959   3.263   2.397  15.220 -0.5746 -0.0807 -0.3125
18515TIP3    H176960   3.332   2.392  15.286 -0.8202 -1.5514 -0.1422
18515TIP3    H276961   3.302   2.357  15.142 -1.3437 -1.2568 -0.1085
18516TIP3   OH276962   0.904   5.563  15.715  0.7743  0.4554 -0.2078
18516TIP3    H176963   0.846   5.628  15.676 -0.6409 -0.5857  0.0880
18516TIP3    H276964   0.952   5.527  15.641  2.6672  2.7747 -0.2379
18517TIP3   OH276965   0.973   5.026   2.966 -0.1890  0.6235  0.0519
18517TIP3    H176966   1.068   5.015   2.955 -0.2469  0.4766 -0.3127
18517TIP3    H276967   0.936   4.988   2.887 -0.6379 -0.9316  0.9555
18518TIP3   OH276968   1.176   2.460  13.271  0.1849  0.5939  0.2537
18518TIP3    H176969   1.197   2.469  13.178  1.6319  1.6713  0.6596
18518TIP3    H276970   1.081   2.471  13.275  0.2764  2.1778 -0.9334
18519TIP3   OH276971   6.508   4.227  13.284  0.1624 -0.0413  0.4735
18519TIP3    H176972   6.570   4.238  13.213 -0.6639  1.3498 -0.0850
18519TIP3    H276973   6.533   4.145  13.326  1.2602 -0.3968 -0.8145
18520TIP3   OH276974   5.785   5.423   5.023  0.1163 -0.2639 -0.0273
18520TIP3    H176975   5.692   5.400   5.025  0.1147 -0.4304 -1.2083
18520TIP3    H276976   5.794   5.494   5.086 -0.7432 -0.4889  0.3596
18521TIP3   OH276977   1.140   0.202  12.659  0.2547  0.1486  0.2571
18521TIP3    H176978   1.207   0.269  12.648  0.6849 -0.1363  1.0694
18521TIP3    H276979   1.114   0.208  12.751 -1.5965  0.9541 -0.2666
18522TIP3   OH276980   2.072   3.252   5.987 -0.0156  0.1954  0.5853
18522TIP3    H176981   2.080   3.300   6.070 -0.3057 -1.5973  1.7096
18522TIP3    H276982   2.026   3.312   5.929 -1.5013  0.8467  2.3267
18523TIP3   OH276983   3.273   4.199  13.600 -0.2205  0.0968 -0.2001
18523TIP3    H176984   3.330   4.128  13.574 -0.0131  0.6098 -1.1867
18523TIP3    H276985   3.283   4.265  13.531  1.1779  1.9883  1.6612
18524TIP3   OH276986   4.216   6.333   1.131  0.0368  0.2373  0.2904
18524TIP3    H176987   4.236   6.239   1.134  0.3667  0.3276  1.1457
18524TIP3    H276988   4.150   6.345   1.199  0.0572  0.6430  0.2376
18525TIP3   OH276989   6.045   6.094  10.612 -0.3034 -0.6432  0.5639
18525TIP3    H176990   5.966   6.103  10.560  0.1584  0.6859  0.0689
18525TIP3    H276991   6.063   6.000  10.611 -0.3875 -0.6824 -1.5752
18526TIP3   OH276992   5.703   4.383   1.674 -0.4410  0.0315 -0.1960
18526TIP3    H176993   5.722   4.379   1.580  1.2150  1.5145  0.0233
18526TIP3    H276994   5.748   4.307   1.711  0.6808  0.6018 -0.3617
18527TIP3   OH276995   0.863   1.327   5.368 -0.0649  0.0550  0.1710
18527TIP3    H176996   0.840   1.242   5.403  2.4089 -0.4077  0.8086
18527TIP3    H276997   0.791   1.385   5.396 -0.0681 -1.0847  2.7407
18528TIP3   OH276998   1.805   1.369   0.322 -0.0502 -0.1739  0.2306
18528TIP3    H176999   1.885   1.379   0.269 -1.4226 -0.3450 -2.0176
18528TIP3    H277000   1.775   1.458   0.338 -0.3579 -0.1350 -0.5124
18529TIP3   OH277001   1.984   4.069   3.224  0.2859 -0.4873  0.5551
18529TIP3    H177002   1.972   4.160   3.252 -2.5470 -0.0764 -1.5632
18529TIP3    H277003   2.079   4.059   3.218  0.7082  2.8928 -0.7317
18530TIP3   OH277004   2.865   2.436   4.496 -0.1416 -0.1630 -0.1326
18530TIP3    H177005   2.942   2.381   4.482 -0.0267  0.3406 -1.5992
18530TIP3    H277006   2.887   2.519   4.454 -1.7683 -0.2645 -1.2676
18531TIP3   OH277007   6.790   6.057  15.562 -0.1417  0.0541  0.1837
18531TIP3    H177008   6.737   6.130  15.594  0.9095  0.5585  0.8291
18531TIP3    H277009   6.802   6.001  15.639  2.6941  1.4501  0.8811
18532TIP3   OH277010   4.112   0.935   2.677  0.0802  0.4498  0.2277
18532TIP3    H177011   4.086   0.979   2.758  0.1950 -0.8936  1.0276
18532TIP3    H277012   4.208   0.933   2.681  0.1450  1.3001 -0.4731
18533TIP3   OH277013   3.794   1.244  11.420  0.4308  0.0159 -0.0359
18533TIP3    H177014   3.881   1.257  11.382  1.1832 -2.4054  0.6521
18533TIP3    H277015   3.736   1.230  11.346  1.2470 -1.4107 -0.4288
18534TIP3   OH277016   5.789   1.675   6.169  0.0409 -0.5068 -0.4438
18534TIP3    H177017   5.856   1.680   6.238 -0.9941  2.7501  0.5516
18534TIP3    H277018   5.827   1.723   6.096 -0.8972  0.9036 -0.0578
18535TIP3   OH277019   6.170   0.243   0.716  0.2462  0.5839 -0.3372
18535TIP3    H177020   6.087   0.203   0.691  1.3314 -0.3121 -2.7604
18535TIP3    H277021   6.216   0.257   0.634  1.9047  2.4632  0.8271
18536TIP3   OH277022   1.210   4.381   6.346  0.0829  0.2533 -0.2407
18536TIP3    H177023   1.217   4.338   6.431 -0.1194 -1.2257 -0.9309
18536TIP3    H277024   1.116   4.382   6.328 -0.0539  2.3935  0.4209
18537TIP3   OH277025   6.106   4.867   0.297  0.5180 -0.1265  0.2802
18537TIP3    H177026   6.049   4.803   0.339 -0.6142  0.6468 -0.0413
18537TIP3    H277027   6.071   4.877   0.209 -0.3176  2.0447  0.7745
18538TIP3   OH277028   5.887   0.215   3.213  0.3723  0.5537  0.4232
18538TIP3    H177029   5.882   0.140   3.154  0.4649 -0.4472  1.6219
18538TIP3    H277030   5.796   0.231   3.238  0.5043 -0.4801  1.6970
18539TIP3   OH277031   0.468   2.497   0.732  0.5716 -0.7967  0.4598
18539TIP3    H177032   0.540   2.476   0.672  0.2767  0.8957 -0.5487
18539TIP3    H277033   0.429   2.413   0.753  0.5767 -1.4544 -1.9017
18540TIP3   OH277034   1.917   0.705   5.683  0.6157 -1.0454  0.1161
18540TIP3    H177035   2.000   0.751   5.691 -0.4004  1.2404 -1.5325
18540TIP3    H277036   1.930   0.643   5.611  1.0049 -0.9974  0.1444
18541TIP3   OH277037   2.812   2.969   4.240 -0.7660 -0.3226  0.5671
18541TIP3    H177038   2.863   2.946   4.317 -0.4031 -1.3736  0.0357
18541TIP3    H277039   2.855   2.923   4.168 -0.1378  1.9276 -0.5551
18542TIP3   OH277040   3.931   2.682   2.224  0.1367 -0.6790  0.7417
18542TIP3    H177041   3.996   2.690   2.154 -0.0468 -0.1227  0.6328
18542TIP3    H277042   3.930   2.768   2.267 -0.8590 -0.5278  0.4443
18543TIP3   OH277043   1.482   2.575  16.093  0.0541  0.1094  0.2081
18543TIP3    H177044   1.531   2.599  16.015 -0.0531 -1.0590 -0.2304
18543TIP3    H277045   1.404   2.530  16.060  1.0554 -2.3636  0.9831
18544TIP3   OH277046   0.435   5.413   4.090 -0.1857  0.1299  0.2610
18544TIP3    H177047   0.428   5.326   4.051 -1.5325 -0.3343  1.4587
18544TIP3    H277048   0.488   5.400   4.169 -0.7051  0.3079  0.6490
18545TIP3   OH277049   2.262   3.625   4.767 -0.9216  0.6588  0.2770
18545TIP3    H177050   2.273   3.649   4.859  0.2986  0.0370  0.3143
18545TIP3    H277051   2.215   3.541   4.771 -0.9207  0.6604  0.3280
18546TIP3   OH277052   2.872   2.843   3.371 -0.2278  0.4767 -0.2353
18546TIP3    H177053   2.830   2.869   3.289  3.9166 -2.8932 -3.9533
18546TIP3    H277054   2.937   2.911   3.388  0.6561 -0.0512 -1.3709
18547TIP3   OH277055   2.815   5.540   4.625  0.3230  0.2659  0.6268
18547TIP3    H177056   2.771   5.604   4.570  0.0353 -0.4296  0.0391
18547TIP3    H277057   2.904   5.536   4.591 -0.4272 -1.8465 -1.3621
18548TIP3   OH277058   4.105   1.419   1.361  0.3100 -0.3894 -1.1693
18548TIP3    H177059   4.047   1.494   1.350  0.0585 -0.0755  1.6150
18548TIP3    H277060   4.145   1.431   1.447 -0.2103 -3.7230 -0.3091
18549TIP3   OH277061   4.203   5.591   2.926  0.1130 -0.0968 -0.2774
18549TIP3    H177062   4.164   5.607   2.840 -0.2863  1.4366  0.1543
18549TIP3    H277063   4.136   5.542   2.974 -0.8581  1.5117  0.0742
18550TIP3   OH277064   3.908   3.383   4.876  0.1318  0.2421 -0.2314
18550TIP3    H177065   3.820   3.375   4.839 -0.2041  2.5788 -0.1261
18550TIP3    H277066   3.893   3.403   4.969  0.7586  0.4942 -0.1784
18551TIP3   OH277067   1.265   5.290  15.401  0.5360  0.3912  0.1057
18551TIP3    H177068   1.348   5.330  15.377  1.6291 -1.2263  1.0279
18551TIP3    H277069   1.277   5.197  15.384 -0.5431 -0.0668  1.6553
18552TIP3   OH277070   3.514   1.590   2.910  0.1367 -0.0480  0.6059
18552TIP3    H177071   3.564   1.536   2.972  1.6868  0.5256 -0.1016
18552TIP3    H277072   3.577   1.654   2.878 -0.3910 -0.7677 -2.1335
18553TIP3   OH277073   5.122   5.024   5.078  0.3094 -0.3375  0.2248
18553TIP3    H177074   5.048   4.983   5.123 -0.3578 -2.3140 -2.3943
18553TIP3    H277075   5.140   4.965   5.004  2.6101  1.6178 -0.9110
18554TIP3   OH277076   0.906   3.056   4.646 -0.3638 -0.4113  0.1382
18554TIP3    H177077   0.866   2.994   4.707  0.9286  0.2700  1.7484
18554TIP3    H277078   0.909   3.139   4.694  1.6099 -0.0949 -0.4575
18555TIP3   OH277079   2.590   2.713  12.240 -0.2818 -0.3558 -0.5774
18555TIP3    H177080   2.541   2.775  12.186  0.9491  2.3072  1.1603
18555TIP3    H277081   2.680   2.718  12.206 -0.1349 -1.1303 -0.3223
18556TIP3   OH277082   3.844   2.279   3.783 -0.0743 -0.1529  0.8446
18556TIP3    H177083   3.909   2.289   3.714 -0.8545 -0.3328  0.0632
18556TIP3    H277084   3.895   2.269   3.863  0.9163 -2.2510  0.0205
18557TIP3   OH277085   4.269   5.402  13.649 -0.4160 -0.0738 -0.4243
18557TIP3    H177086   4.347   5.441  13.689 -0.8751 -0.0125  0.4441
18557TIP3    H277087   4.271   5.311  13.678 -1.2337  0.1878  0.5248
18558TIP3   OH277088   3.693   3.109   5.585 -0.3202 -0.0045 -0.1450
18558TIP3    H177089   3.724   3.056   5.658  0.8473  0.8059 -0.0348
18558TIP3    H277090   3.660   3.045   5.522  2.4550 -1.0336 -0.6898
18559TIP3   OH277091   1.390   3.165   5.662 -0.4442  0.0154 -0.0821
18559TIP3    H177092   1.441   3.236   5.623 -2.5378  0.8431 -1.4981
18559TIP3    H277093   1.455   3.099   5.687  1.2983  0.8747 -2.0394
18560TIP3   OH277094   5.951   4.857   6.266 -0.1522 -0.3144 -0.1984
18560TIP3    H177095   5.925   4.780   6.318  0.5505 -1.0170 -0.8558
18560TIP3    H277096   6.010   4.821   6.200  0.8527  0.9301  0.0040
18561TIP3   OH277097   4.501   6.019  14.293  0.2294  0.4749  0.2517
18561TIP3    H177098   4.479   6.025  14.200 -1.9918  0.1245  0.7141
18561TIP3    H277099   4.431   6.066  14.338  0.7875 -0.1289  1.8223
18562TIP3   OH277100   5.852   3.338   2.800 -0.0121  0.1482  0.3455
18562TIP3    H177101   5.927   3.298   2.757 -0.8061 -1.2290  0.2119
18562TIP3    H277102   5.778   3.284   2.776 -1.3342  2.2603 -0.6573
18563TIP3   OH277103   3.717   6.098  11.996  0.3063  0.0549  0.3233
18563TIP3    H177104   3.752   6.050  11.921  0.0730 -0.9574  0.8340
18563TIP3    H277105   3.622   6.102  11.979  0.3429  0.4964  0.2035
18564TIP3   OH277106   3.354   1.057   4.923 -0.2705  0.1027  0.3246
18564TIP3    H177107   3.434   1.095   4.886 -0.4858  0.3080  0.0734
18564TIP3    H277108   3.287   1.123   4.909 -0.6154 -0.3081  0.0180
18565TIP3   OH277109   6.010   1.085  14.051 -0.1906 -0.3927  0.0661
18565TIP3    H177110   5.921   1.089  14.086 -0.6020 -0.9718 -0.8638
18565TIP3    H277111   6.065   1.066  14.127 -1.1619 -2.6939  0.2815
18566TIP3   OH277112   5.381   1.935   1.577 -0.2675  0.0555  0.0979
18566TIP3    H177113   5.299   1.903   1.540  0.1403 -0.9865  0.0604
18566TIP3    H277114   5.447   1.917   1.510  0.4641 -1.7658  1.2350
18567TIP3   OH277115   4.131   5.751  16.780  0.3548 -0.5341 -0.0314
18567TIP3    H177116   4.119   5.758  16.685  1.2305  1.3297 -0.0423
18567TIP3    H277117   4.226   5.740  16.791  0.2195 -1.1532  0.6379
18568TIP3   OH277118   0.503   2.663  15.105  0.1701  0.1288  0.0074
18568TIP3    H177119   0.433   2.728  15.105  1.6556  1.8330  1.2938
18568TIP3    H277120   0.511   2.635  15.196  2.0360  1.0265  0.1642
18569TIP3   OH277121   0.092   0.667  11.780 -0.2768 -0.2149  0.1907
18569TIP3    H177122   0.161   0.730  11.759 -1.5178  1.2954  0.4207
18569TIP3    H277123   0.139   0.587  11.803  1.3590  0.5182 -0.3950
18570TIP3   OH277124   5.742   2.864  16.082  0.0644 -0.2088  0.1258
18570TIP3    H177125   5.813   2.841  16.022  0.5048 -0.0361  0.5803
18570TIP3    H277126   5.682   2.917  16.029  0.7182  0.3979 -0.0209
18571TIP3   OH277127   5.064   6.728   4.352  0.0122 -0.0060 -0.1933
18571TIP3    H177128   4.980   6.723   4.306 -0.2841 -1.7835  0.4875
18571TIP3    H277129   5.092   6.637   4.363  1.8923  0.5322 -0.1299
18572TIP3   OH277130   1.109   3.236  15.244  0.1963  0.4314  0.7454
18572TIP3    H177131   1.089   3.296  15.315  0.0165 -0.0193  1.0838
18572TIP3    H277132   1.055   3.265  15.171  0.4557  0.9573  0.7601
18573TIP3   OH277133   2.762   6.287  13.823  0.1672  0.5888  0.2229
18573TIP3    H177134   2.768   6.222  13.894 -1.1406  1.0904  0.8234
18573TIP3    H277135   2.752   6.371  13.868  2.1725  1.2935 -0.5421
18574TIP3   OH277136   0.825   3.895   4.803  0.0591  0.1928  0.0557
18574TIP3    H177137   0.803   3.825   4.865 -0.3842  0.1963 -0.0934
18574TIP3    H277138   0.920   3.903   4.808  0.1193 -0.4785  0.0097
18575TIP3   OH277139   3.282   3.533  13.858  0.5406 -0.1300 -0.3596
18575TIP3    H177140   3.209   3.538  13.919  0.3024 -0.2249 -0.6322
18575TIP3    H277141   3.360   3.529  13.913  0.3597  0.2974 -0.0725
18576TIP3   OH277142   1.984   3.404   0.563 -0.1990 -0.4385  0.2444
18576TIP3    H177143   1.930   3.364   0.495 -0.5151 -1.6325  1.1762
18576TIP3    H277144   2.063   3.350   0.565 -0.3393 -0.6198  1.0523
18577TIP3   OH277145   1.097   3.047   0.185 -0.4123  0.5313  0.2724
18577TIP3    H177146   1.042   2.991   0.240 -1.9037  0.7160 -0.9409
18577TIP3    H277147   1.155   3.091   0.246 -0.0435 -1.3782  1.3945
18578TIP3   OH277148   6.196   6.426  12.983  0.2464 -0.3924 -0.1010
18578TIP3    H177149   6.259   6.487  12.946  1.8266 -1.5768  0.4895
18578TIP3    H277150   6.180   6.460  13.071  1.9191 -1.2858  0.6119
18579TIP3   OH277151   3.818   2.302   5.652 -0.3280 -0.2038  0.4476
18579TIP3    H177152   3.828   2.242   5.726 -1.6449 -0.6806  0.2540
18579TIP3    H277153   3.724   2.317   5.645 -0.0965  1.2293 -0.0449
18580TIP3   OH277154   6.327   2.252   2.342 -0.3035  0.3001  0.6270
18580TIP3    H177155   6.255   2.289   2.291 -0.7954 -0.8643  0.4621
18580TIP3    H277156   6.393   2.322   2.344 -1.2413  1.2118  0.3991
18581TIP3   OH277157   3.213   0.275  14.103 -0.2617  0.6083  0.4445
18581TIP3    H177158   3.213   0.349  14.164 -1.3573  0.6431  0.4244
18581TIP3    H277159   3.214   0.316  14.016 -3.0480  0.7416  0.3653
18582TIP3   OH277160   2.445   1.768  12.522 -0.0833  0.1822 -0.3007
18582TIP3    H177161   2.462   1.674  12.534 -1.2407  0.1079  1.0649
18582TIP3    H277162   2.532   1.806  12.511  0.6165 -0.7989  1.3607
18583TIP3   OH277163   6.398   0.385  16.366  0.0420  0.1605  0.3476
18583TIP3    H177164   6.460   0.312  16.369  2.1227  1.8638  1.7525
18583TIP3    H277165   6.319   0.351  16.407  1.4625 -0.9164  2.3465
18584TIP3   OH277166   4.918   0.714   1.892 -0.7568 -0.0696  0.0773
18584TIP3    H177167   4.879   0.733   1.978  1.0851  0.7878  0.7955
18584TIP3    H277168   4.850   0.737   1.829 -1.7435  0.4281  1.2782
18585TIP3   OH277169   4.929   2.506   0.045  0.4630 -0.2002 -0.1604
18585TIP3    H177170   4.903   2.584  -0.004  0.7344  0.0878  0.1424
18585TIP3    H277171   4.938   2.537   0.136 -1.4517 -1.0287  0.3593
18586TIP3   OH277172   1.037   3.372   5.904 -0.2290  0.1030 -0.0843
18586TIP3    H177173   1.046   3.436   5.975  1.1097  3.4610 -2.9380
18586TIP3    H277174   1.095   3.300   5.928  0.9760  1.6076  1.7749
18587TIP3   OH277175   6.233   3.347   5.433 -0.1391  0.0239 -0.1524
18587TIP3    H177176   6.159   3.291   5.457 -0.6757  1.6915  2.4856
18587TIP3    H277177   6.193   3.431   5.410  0.8411  0.5127 -0.1106
18588TIP3   OH277178   6.625   4.988   0.859 -0.3055 -0.0880 -0.0133
18588TIP3    H177179   6.676   4.952   0.932  0.2948 -3.1585 -1.7832
18588TIP3    H277180   6.552   5.034   0.901  1.6771  0.9739  2.5185
18589TIP3   OH277181   4.391   6.416  12.846  0.4949 -0.0476 -0.7063
18589TIP3    H177182   4.401   6.323  12.866 -0.1935 -0.1433 -0.7762
18589TIP3    H277183   4.418   6.461  12.925  2.2742 -0.2372 -1.1636
18590TIP3   OH277184   4.130   4.435   3.667  0.0578 -0.5190  0.2350
18590TIP3    H177185   4.110   4.522   3.632  1.1966 -0.2359  0.2341
18590TIP3    H277186   4.085   4.375   3.609 -0.9229  0.0775  0.3604
18591TIP3   OH277187   0.827   0.098   3.944  0.4064  0.4162  0.0375
18591TIP3    H177188   0.813   0.096   4.038  0.0638 -0.7310 -0.0157
18591TIP3    H277189   0.885   0.024   3.927  0.0924  0.3279 -0.6967
18592TIP3   OH277190   0.561   0.746  15.513 -0.4218  0.3321 -0.5037
18592TIP3    H177191   0.472   0.767  15.483  0.0068 -1.6070 -3.4842
18592TIP3    H277192   0.586   0.669  15.462  3.6794  1.8799 -1.1547
18593TIP3   OH277193   2.548   6.229   1.859  0.1560 -0.0839  0.2686
18593TIP3    H177194   2.536   6.224   1.954 -0.9526 -0.5655  0.1103
18593TIP3    H277195   2.462   6.209   1.822  0.8021 -0.9038 -0.8595
18594TIP3   OH277196   4.148   3.967   6.535  0.0570 -0.1334 -0.1929
18594TIP3    H177197   4.158   4.062   6.545  0.6462 -0.1230 -0.8444
18594TIP3    H277198   4.234   3.931   6.555  0.0695 -0.4588 -0.8096
18595TIP3   OH277199   0.131   5.817   4.932  0.4018 -0.3492 -0.5345
18595TIP3    H177200   0.177   5.753   4.988  2.6972 -0.5348 -2.4893
18595TIP3    H277201   0.040   5.809   4.958  0.2655 -5.4208 -1.4527
18596TIP3   OH277202   3.832   3.752   4.277 -0.1162 -0.2254 -0.2278
18596TIP3    H177203   3.815   3.727   4.367  0.5673 -1.0445 -0.3156
18596TIP3    H277204   3.792   3.682   4.225  1.9850 -1.3015 -0.4775
18597TIP3   OH277205   2.251   2.163  12.219 -0.0538 -0.1157  0.1428
18597TIP3    H177206   2.175   2.216  12.245  0.5135  0.5951  0.3834
18597TIP3    H277207   2.294   2.141  12.301 -0.0964 -0.6680  0.0179
18598TIP3   OH277208   0.681   3.809   2.778  0.1905  0.8783  0.1132
18598TIP3    H177209   0.637   3.729   2.749  0.3425  0.8326  0.0036
18598TIP3    H277210   0.629   3.880   2.741  0.0331  0.8288  0.2425
18599TIP3   OH277211   5.556   4.424  13.704 -0.2270 -0.0345 -0.2922
18599TIP3    H177212   5.636   4.476  13.696 -1.2380  1.5068 -0.8360
18599TIP3    H277213   5.552   4.374  13.623 -0.0173  0.1801 -0.4383
18600TIP3   OH277214   4.184   4.343  13.335 -0.1742 -0.4253 -0.5056
18600TIP3    H177215   4.152   4.432  13.350  0.8959 -0.2939  1.2689
18600TIP3    H277216   4.105   4.289  13.332 -0.7165  0.2257  1.1453
18601TIP3   OH277217   3.203   3.931   3.943 -0.1598 -0.3620  0.1062
18601TIP3    H177218   3.231   3.953   4.032  0.3008  0.0008 -0.1187
18601TIP3    H277219   3.193   4.016   3.900  0.2127 -0.5490 -0.3591
18602TIP3   OH277220   2.295   3.020  12.370  0.0593 -0.2899  0.5790
18602TIP3    H177221   2.362   3.047  12.433 -0.1733 -1.2531  1.2658
18602TIP3    H277222   2.283   2.927  12.388  0.4868 -0.7551 -1.3597
18603TIP3   OH277223   5.154   0.025  12.233 -0.0732  0.2326  0.2989
18603TIP3    H177224   5.064  -0.004  12.245  0.8711 -2.5822  1.5708
18603TIP3    H277225   5.188   0.037  12.322  0.0626  4.3644 -0.1082
18604TIP3   OH277226   1.514   0.446   4.076  0.1011 -0.2839  0.2556
18604TIP3    H177227   1.592   0.435   4.131  0.8527 -0.3870 -0.7953
18604TIP3    H277228   1.497   0.540   4.076  2.1248  0.1879 -1.9558
18605TIP3   OH277229   1.778   6.462  14.603  0.0050  0.5013  0.5386
18605TIP3    H177230   1.863   6.502  14.584  0.3208 -0.1915  0.4552
18605TIP3    H277231   1.790   6.370  14.582 -0.0178 -0.0944  2.8878
18606TIP3   OH277232   5.501   5.685   3.147  0.7416  0.0459 -0.1564
18606TIP3    H177233   5.435   5.706   3.214  0.0829 -2.7431  0.2021
18606TIP3    H277234   5.455   5.694   3.064  1.1192  1.9761 -0.2137
18607TIP3   OH277235   3.029   1.467   2.411  0.5492  0.0939 -0.0199
18607TIP3    H177236   2.964   1.426   2.468  1.8041 -1.5967  0.2856
18607TIP3    H277237   3.110   1.465   2.462  1.5141 -0.6642 -1.5155
18608TIP3   OH277238   2.706   0.207  15.979  0.8758  0.1337  0.2144
18608TIP3    H177239   2.624   0.164  16.002  0.4309  0.1625 -1.2114
18608TIP3    H277240   2.702   0.292  16.024  0.9545 -0.5523  1.5785
18609TIP3   OH277241   3.879   0.140  16.611  0.3718  0.0345 -0.8552
18609TIP3    H177242   3.800   0.129  16.559  0.5063 -0.9914 -0.8502
18609TIP3    H277243   3.847   0.160  16.699  0.1290  3.2991 -1.5473
18610TIP3   OH277244   3.404   0.742  15.082 -0.0584  0.1179  0.0071
18610TIP3    H177245   3.449   0.779  15.157 -1.3057 -0.3515  1.0255
18610TIP3    H277246   3.409   0.810  15.015 -0.5962  1.3460  1.1714
18611TIP3   OH277247   2.592   6.202   0.963  0.1995 -0.3370 -0.1292
18611TIP3    H177248   2.615   6.154   1.042 -0.6204  0.2252  0.4735
18611TIP3    H277249   2.675   6.237   0.931  0.5708 -0.7565  0.3597
18612TIP3   OH277250   0.183   3.086   0.994  0.1110  0.0942  0.1736
18612TIP3    H177251   0.129   3.019   1.036 -0.6286  0.8651  0.4685
18612TIP3    H277252   0.127   3.123   0.926 -0.0400  1.4642  1.0197
18613TIP3   OH277253   4.254   5.004  14.240 -0.1172  0.1227 -0.1826
18613TIP3    H177254   4.344   4.972  14.244 -0.6648 -1.7304 -1.4607
18613TIP3    H277255   4.222   4.998  14.330  0.8295  0.2036  0.1722
18614TIP3   OH277256   3.897   3.312   0.632 -0.0095  0.1434  0.3792
18614TIP3    H177257   3.889   3.358   0.549  0.2107 -1.0052 -0.2929
18614TIP3    H277258   3.991   3.308   0.648 -0.0373  0.0956  0.5321
18615TIP3   OH277259   3.169   2.279   1.415 -0.2705  0.0963  0.0762
18615TIP3    H177260   3.126   2.364   1.419 -0.7493 -0.1390 -0.0336
18615TIP3    H277261   3.124   2.232   1.345 -1.7866 -1.2274  1.8516
18616TIP3   OH277262   4.211   2.574  17.072  0.1184 -0.2739  0.1297
18616TIP3    H177263   4.156   2.496  17.067 -2.4709  1.5237 -2.3065
18616TIP3    H277264   4.277   2.561  17.004  1.2491 -1.3333  1.3766
18617TIP3   OH277265   6.480   0.669   2.991  0.0482  0.1762  0.0793
18617TIP3    H177266   6.389   0.647   3.009 -0.1819 -0.5529 -1.7219
18617TIP3    H277267   6.476   0.759   2.958  0.0239  0.2563  0.2992
18618TIP3   OH277268   6.518   1.831  13.235  0.0949 -0.0819  0.6799
18618TIP3    H177269   6.483   1.918  13.217 -0.4760 -0.2700  0.8567
18618TIP3    H277270   6.441   1.774  13.236  0.4126 -0.5113  1.0458
18619TIP3   OH277271   5.170   5.619   2.276 -0.0257 -0.1638 -0.6010
18619TIP3    H177272   5.173   5.601   2.182  1.0107 -1.2181 -0.3927
18619TIP3    H277273   5.083   5.655   2.291  0.0408  0.6886 -2.0744
18620TIP3   OH277274   1.669   3.665  11.705  0.7822 -0.3400  0.6803
18620TIP3    H177275   1.576   3.664  11.728  1.1227 -1.0718  2.1156
18620TIP3    H277276   1.675   3.607  11.629 -0.2198  1.3548 -0.7726
18621TIP3   OH277277   2.262   2.752   3.056  0.6064  0.3396  0.3452
18621TIP3    H177278   2.320   2.828   3.062  1.9691 -0.5010 -1.2172
18621TIP3    H277279   2.196   2.778   2.992 -1.7621  1.8294  3.1473
18622TIP3   OH277280   6.597   4.185   0.533 -0.3400  0.2348  0.7686
18622TIP3    H177281   6.527   4.136   0.576  0.0439  1.0297  2.4170
18622TIP3    H277282   6.636   4.123   0.472 -0.9074 -0.9927  1.6009
18623TIP3   OH277283   5.557   1.697  14.978  0.4538  1.0512 -0.1198
18623TIP3    H177284   5.585   1.723  15.066  0.1424  0.1765  0.2480
18623TIP3    H277285   5.467   1.666  14.990  0.3102  1.1988 -0.7999
18624TIP3   OH277286   1.588   3.348   5.919 -0.3470 -0.1943  0.7333
18624TIP3    H177287   1.496   3.372   5.930 -0.6789  1.2005 -3.3633
18624TIP3    H277288   1.632   3.431   5.901  0.2124 -1.2228 -4.4027
18625TIP3   OH277289   3.863   4.810   0.595 -0.4420 -0.2037  0.3818
18625TIP3    H177290   3.794   4.756   0.557 -1.6522  1.9052 -0.6228
18625TIP3    H277291   3.861   4.891   0.543  2.4086  0.1688  0.7249
18626TIP3   OH277292   4.989   2.678  12.345  0.0568 -0.8250 -0.2595
18626TIP3    H177293   4.956   2.684  12.256 -4.0986 -3.3373  0.7764
18626TIP3    H277294   4.979   2.766  12.381 -0.5539 -0.3322 -1.5747
18627TIP3   OH277295   6.229   6.319   5.105 -0.4666  0.4428 -0.5506
18627TIP3    H177296   6.202   6.227   5.102  0.2889  0.2377 -1.9593
18627TIP3    H277297   6.187   6.353   5.184  0.0492 -1.3676  0.5880
18628TIP3   OH277298   4.206   5.537   0.929  0.4324 -0.3937 -0.2167
18628TIP3    H177299   4.241   5.492   1.006 -1.2808  0.0307  0.8653
18628TIP3    H277300   4.212   5.630   0.950  0.5444 -0.2417 -0.8834
18629TIP3   OH277301   1.615   3.025   1.236 -0.3881 -0.4401  0.4271
18629TIP3    H177302   1.618   2.983   1.150 -0.7249 -2.3698  1.2990
18629TIP3    H277303   1.533   2.995   1.275 -1.0702  1.7425  0.8282
18630TIP3   OH277304   3.726   2.005  11.491 -0.3439  0.4722 -0.1503
18630TIP3    H177305   3.783   1.994  11.567  1.1703 -1.6355 -1.4895
18630TIP3    H277306   3.678   1.922  11.485  0.0775  0.3147 -1.8507
18631TIP3   OH277307   2.996   3.643   5.051  0.3880  0.0679  0.3092
18631TIP3    H177308   2.929   3.580   5.025 -0.2102  1.1903 -1.0092
18631TIP3    H277309   3.065   3.632   4.986  0.9570 -0.2219  0.9443
18632TIP3   OH277310   2.539   0.496   1.092  0.4147  0.0586 -0.3992
18632TIP3    H177311   2.548   0.563   1.159 -0.0519 -0.5069  0.2467
18632TIP3    H277312   2.609   0.433   1.110  0.9421  0.4324 -1.0912
18633TIP3   OH277313   2.289   0.652   4.744 -0.0926 -0.5166 -0.2232
18633TIP3    H177314   2.262   0.681   4.657 -1.3651  0.1488  0.3645
18633TIP3    H277315   2.384   0.645   4.738  0.1105  1.8136 -1.0246
18634TIP3   OH277316   3.242   3.898  11.195 -0.6092  0.2255  0.0514
18634TIP3    H177317   3.158   3.932  11.166 -0.4227 -1.0941 -2.3190
18634TIP3    H277318   3.237   3.804  11.179  0.5417 -0.2275  1.9893
18635TIP3   OH277319   5.156   5.347  15.229  0.8161 -0.1179 -0.0688
18635TIP3    H177320   5.110   5.389  15.155 -1.3798 -1.0622  0.6738
18635TIP3    H277321   5.087   5.304  15.278  2.5153 -1.3254  1.3715
18636TIP3   OH277322   0.725   1.857   0.580  0.8024  0.7398 -0.5106
18636TIP3    H177323   0.784   1.809   0.523  1.5562  0.8539  0.1454
18636TIP3    H277324   0.754   1.948   0.574  0.6468  0.8100 -0.2394
18637TIP3   OH277325   5.506   5.346   5.049 -0.0572 -0.2397  0.0724
18637TIP3    H177326   5.505   5.391   5.133  0.7432  0.3402 -0.2118
18637TIP3    H277327   5.428   5.379   5.003  0.6066  1.0240 -0.2007
18638TIP3   OH277328   0.434   0.327   3.505 -0.3206 -0.2531  0.1251
18638TIP3    H177329   0.350   0.285   3.525  1.6297 -4.3658  0.8553
18638TIP3    H277330   0.435   0.334   3.410 -1.9156  1.0942  0.1529
18639TIP3   OH277331   3.606   1.421   2.642 -0.0316  0.5734  0.6188
18639TIP3    H177332   3.619   1.399   2.734 -0.5904 -0.2043  0.5223
18639TIP3    H277333   3.688   1.398   2.600 -0.1670 -0.1437  0.7392
18640TIP3   OH277334   0.787   1.147  11.544  0.7534  0.5754 -0.2226
18640TIP3    H177335   0.756   1.236  11.526 -1.4089 -0.4184 -1.8318
18640TIP3    H277336   0.798   1.107  11.458 -0.9312 -1.5307  0.4499
18641TIP3   OH277337   3.457   4.819   4.499 -0.6469  0.0633 -0.1373
18641TIP3    H177338   3.540   4.785   4.466 -0.5031  0.8845 -0.6408
18641TIP3    H277339   3.420   4.746   4.549 -0.7176 -1.1026 -1.8240
18642TIP3   OH277340   0.571   5.172   3.543  0.3387  0.2705  0.1641
18642TIP3    H177341   0.495   5.121   3.572 -0.8254  1.8783  0.1066
18642TIP3    H277342   0.580   5.150   3.450 -1.0384  1.1506 -0.2167
18643TIP3   OH277343   5.298   1.570  15.307  0.5647  0.3828  0.5988
18643TIP3    H177344   5.233   1.522  15.358  0.9671 -0.9600 -0.1062
18643TIP3    H277345   5.305   1.521  15.225  2.2026  0.7020  0.5212
18644TIP3   OH277346   1.560   1.162   3.606  0.6187 -0.4818 -0.4993
18644TIP3    H177347   1.482   1.215   3.622  0.6987 -0.7429  0.9290
18644TIP3    H277348   1.551   1.132   3.516 -0.8350 -0.3396 -0.4255
18645TIP3   OH277349   3.819   1.231   3.954 -0.6079  0.6516 -0.2916
18645TIP3    H177350   3.783   1.147   3.982 -0.0890  0.4018 -0.3660
18645TIP3    H277351   3.746   1.274   3.910 -0.6087 -0.1831 -1.1478
18646TIP3   OH277352   1.134   2.333   0.040  0.4451 -0.7556  0.2351
18646TIP3    H177353   1.046   2.371   0.045  0.3620 -0.9450  0.2123
18646TIP3    H277354   1.137   2.291  -0.046  0.6753 -0.4591  0.0976
18647TIP3   OH277355   1.858   0.439  11.407 -0.8185 -0.0915  0.1427
18647TIP3    H177356   1.789   0.480  11.353 -0.8379  0.6200  0.6962
18647TIP3    H277357   1.939   0.480  11.376 -0.9180  1.0289  1.2630
18648TIP3   OH277358   3.716   2.194   1.823 -0.4905  0.0509  0.4268
18648TIP3    H177359   3.679   2.218   1.908 -0.5649  0.9733  0.1418
18648TIP3    H277360   3.772   2.268   1.799  1.4283 -1.2154  0.7532
18649TIP3   OH277361   5.700   1.091   0.648  0.1966  0.6590 -0.0325
18649TIP3    H177362   5.635   1.022   0.664 -1.4538  1.5031 -2.4516
18649TIP3    H277363   5.649   1.172   0.646  2.0223  2.0107  2.3196
18650TIP3   OH277364   2.737   4.879   3.968  0.0234  0.4360 -0.0855
18650TIP3    H177365   2.723   4.955   3.912 -0.5062 -0.0799 -0.6831
18650TIP3    H277366   2.756   4.808   3.906  1.7655  0.3322  0.5131
18651TIP3   OH277367   0.572   0.171  14.303 -0.0823  0.3132 -0.0474
18651TIP3    H177368   0.628   0.246  14.324 -0.4648  1.4725 -2.8092
18651TIP3    H277369   0.489   0.191  14.348  0.8098 -0.1574  1.9373
18652TIP3   OH277370   1.990   0.524   0.879  1.0503  0.2887  0.3720
18652TIP3    H177371   1.965   0.574   0.957  1.0251  0.7295  0.0874
18652TIP3    H277372   2.006   0.591   0.812  4.0075  0.1223  0.7822
18653TIP3   OH277373   3.192   2.281   0.283  0.2874 -0.3228  0.6089
18653TIP3    H177374   3.164   2.274   0.192 -2.9080 -0.2005  1.4532
18653TIP3    H277375   3.227   2.370   0.291  1.7898 -0.7477 -0.7117
18654TIP3   OH277376   0.956   1.886   3.330  0.5772  0.2928  0.3245
18654TIP3    H177377   0.955   1.893   3.425 -0.7726  1.1264  0.2660
18654TIP3    H277378   1.036   1.836   3.311  1.2215  0.6859  1.8376
18655TIP3   OH277379   3.917   1.113  13.530  0.2475  0.3974 -0.0468
18655TIP3    H177380   3.980   1.054  13.572  1.1546  1.0945 -0.4010
18655TIP3    H277381   3.904   1.183  13.594  1.7525  1.5449 -0.9373
18656TIP3   OH277382   5.408   1.828   5.612 -0.2166  0.3918  0.0699
18656TIP3    H177383   5.338   1.818   5.677 -1.7706  0.1284 -1.5568
18656TIP3    H277384   5.489   1.827   5.663 -1.4144  1.7736  2.1648
18657TIP3   OH277385   0.391   6.693  13.233 -0.2135 -0.0138  0.4350
18657TIP3    H177386   0.426   6.605  13.226 -0.5246 -0.1646  0.7461
18657TIP3    H277387   0.379   6.708  13.327  0.4344  0.5992  0.4300
18658TIP3   OH277388   4.858   2.835  12.739 -0.0750  0.4748  0.7569
18658TIP3    H177389   4.840   2.780  12.663 -1.8367  0.3868  1.2112
18658TIP3    H277390   4.773   2.869  12.766  0.4411  0.1777  2.9505
18659TIP3   OH277391   6.379   2.432   4.924 -0.1390 -0.3906 -0.5856
18659TIP3    H177392   6.400   2.350   4.970  0.1880 -0.2771 -0.5284
18659TIP3    H277393   6.305   2.410   4.868 -0.4770 -0.5632 -0.0854
18660TIP3   OH277394   4.396   5.657   3.573 -0.0626  0.0203 -0.4078
18660TIP3    H177395   4.359   5.651   3.661  2.2090  1.2418  0.7146
18660TIP3    H277396   4.353   5.733   3.533 -0.4206  0.0278 -0.0063
18661TIP3   OH277397   1.881   6.502   1.884  0.3598  0.5689  0.1871
18661TIP3    H177398   1.855   6.594   1.895  2.5329  1.2359  0.3052
18661TIP3    H277399   1.934   6.483   1.961  1.2105 -0.2724 -0.5809
18662TIP3   OH277400   3.456   2.022   4.396 -0.0995 -0.2474 -0.2968
18662TIP3    H177401   3.374   1.976   4.380 -0.8808  0.5894  1.1158
18662TIP3    H277402   3.435   2.114   4.380  0.0693  0.1812  1.6560
18663TIP3   OH277403   5.232   2.394   1.976 -0.0716  0.6115 -0.1070
18663TIP3    H177404   5.214   2.301   1.964 -1.0852  0.6761  0.8191
18663TIP3    H277405   5.299   2.397   2.045 -1.3333  0.6175  1.1510
18664TIP3   OH277406   6.515   3.374   4.326  0.0759 -0.7354 -0.8147
18664TIP3    H177407   6.452   3.333   4.384  0.3565 -1.3657 -0.9405
18664TIP3    H277408   6.481   3.462   4.311 -0.5732 -0.9419 -0.5882
18665TIP3   OH277409   1.650   2.453   5.513 -0.2032  0.0488 -0.4489
18665TIP3    H177410   1.728   2.494   5.549  0.0594 -0.7644 -0.0738
18665TIP3    H277411   1.670   2.439   5.421  0.2617 -0.5320 -0.2669
18666TIP3   OH277412   4.371   5.007  13.531 -0.0507 -0.0122  0.0290
18666TIP3    H177413   4.343   5.053  13.610 -1.6812 -0.4174 -0.2843
18666TIP3    H277414   4.450   4.961  13.558  0.3011  1.0994  0.9787
18667TIP3   OH277415   0.523   3.008   1.573  0.2048  0.2938  0.1174
18667TIP3    H177416   0.557   2.921   1.552  0.6973  0.8445 -1.4975
18667TIP3    H277417   0.576   3.036   1.648  0.7367 -0.3706  0.0001
18668TIP3   OH277418   2.318   5.597   1.687 -0.3478  0.5057 -0.0974
18668TIP3    H177419   2.397   5.544   1.684 -1.2595 -1.2651  2.9300
18668TIP3    H277420   2.263   5.562   1.617  1.6400  2.2023 -2.6921
18669TIP3   OH277421   5.940   1.858   4.902  0.3305  0.3132 -0.0928
18669TIP3    H177422   6.008   1.891   4.961 -1.1033 -1.4005  2.7237
18669TIP3    H277423   5.971   1.771   4.877 -1.3847 -1.1793  2.5304
18670TIP3   OH277424   3.806   4.167   3.862  0.3789  0.4486 -0.5674
18670TIP3    H177425   3.737   4.133   3.805 -0.9404 -1.3247  1.9323
18670TIP3    H277426   3.854   4.090   3.891  0.7497  1.2310  1.0123
18671TIP3   OH277427   2.447   6.785  14.480  1.1795 -0.5801 -0.7340
18671TIP3    H177428   2.486   6.854  14.427  0.2233 -0.1148 -0.8595
18671TIP3    H277429   2.366   6.823  14.514  0.9017 -1.4595 -0.3705
18672TIP3   OH277430   2.967   5.726  15.900 -0.0288 -0.1148  0.1218
18672TIP3    H177431   3.023   5.719  15.977 -0.2312  0.8893  0.3731
18672TIP3    H277432   2.955   5.820  15.888  1.7868 -0.1073 -2.4425
18673TIP3   OH277433   2.567   4.699   2.158 -0.3455 -0.2660 -0.1035
18673TIP3    H177434   2.521   4.663   2.234 -2.8410  1.8191 -0.5113
18673TIP3    H277435   2.619   4.771   2.193 -0.6152 -0.0185 -0.2090
18674TIP3   OH277436   4.206   1.320  16.957  0.5166 -0.4572 -0.4717
18674TIP3    H177437   4.223   1.377  16.882 -0.8591 -1.1622 -1.3768
18674TIP3    H277438   4.211   1.231  16.921  0.8578 -0.8509  0.5068
18675TIP3   OH277439   6.154   2.117  13.950 -0.2415  0.1540  0.4524
18675TIP3    H177440   6.061   2.136  13.963 -0.2460  0.0696  0.5438
18675TIP3    H277441   6.199   2.192  13.988 -0.3304  2.1148 -2.8756
18676TIP3   OH277442   4.956   1.642   4.171  0.4747  0.4007 -0.3427
18676TIP3    H177443   4.873   1.623   4.215  0.0047 -0.7672 -1.6780
18676TIP3    H277444   5.022   1.604   4.228  0.1221  1.2706  0.6958
18677TIP3   OH277445   3.851   5.048  11.525  0.0492  0.0456  0.3732
18677TIP3    H177446   3.804   5.073  11.605 -0.3408  0.4952  0.0104
18677TIP3    H277447   3.839   5.123  11.466  1.4647  0.2946  0.3709
18678TIP3   OH277448   3.684   2.556  12.810  0.0358 -0.6311 -0.7879
18678TIP3    H177449   3.641   2.476  12.840  1.3981 -1.7366 -1.6350
18678TIP3    H277450   3.775   2.547  12.839  0.1509  0.7655 -0.6314
18679TIP3   OH277451   6.565   6.392   4.720  0.1633 -0.1611 -0.2726
18679TIP3    H177452   6.513   6.470   4.737 -1.0525 -1.2340  1.2071
18679TIP3    H277453   6.517   6.347   4.650  0.7152  0.2561 -0.9340
18680TIP3   OH277454   6.785   1.809  13.369  0.1639  0.1102 -0.1739
18680TIP3    H177455   6.810   1.732  13.319 -1.2630 -0.7637  0.4189
18680TIP3    H277456   6.696   1.828  13.341 -0.1340  0.4746  0.9764
18681TIP3   OH277457   1.332   1.916  14.146  0.4609 -0.7009 -0.2415
18681TIP3    H177458   1.321   1.969  14.225  0.2879 -0.4795 -0.4090
18681TIP3    H277459   1.422   1.885  14.149  0.2765 -1.1960  0.3497
18682TIP3   OH277460   4.124   5.411   5.276 -0.4904 -0.1720  0.2317
18682TIP3    H177461   4.152   5.500   5.258 -0.7524 -0.4307 -1.5883
18682TIP3    H277462   4.065   5.419   5.351 -0.9004  1.2535 -0.2134
18683TIP3   OH277463   3.755   4.261   1.678 -0.3054  0.0470 -0.1555
18683TIP3    H177464   3.827   4.213   1.637 -0.0662 -0.8908  1.2936
18683TIP3    H277465   3.724   4.203   1.748 -3.0637  0.0459 -1.2504
18684TIP3   OH277466   5.429   0.861  14.665 -0.5679  0.1356 -0.3076
18684TIP3    H177467   5.350   0.816  14.635  1.8070 -3.4856 -1.8743
18684TIP3    H277468   5.501   0.816  14.620  2.5897  1.6042  2.7628
18685TIP3   OH277469   1.528   1.237  14.212  0.2289  0.2456  0.1143
18685TIP3    H177470   1.547   1.305  14.148 -1.8887 -0.1931 -1.0663
18685TIP3    H277471   1.610   1.225  14.259  1.0113  2.7029 -0.4807
18686TIP3   OH277472   4.321   0.327   3.064 -0.2554 -0.3611 -0.1667
18686TIP3    H177473   4.332   0.395   3.129  1.3906 -1.2434  0.5380
18686TIP3    H277474   4.233   0.291   3.081 -0.4928  0.4906  0.4739
18687TIP3   OH277475   0.028   5.934  14.599  0.3437  0.3357 -0.1491
18687TIP3    H177476   0.085   5.993  14.649  0.8140  0.1196 -0.4195
18687TIP3    H277477   0.085   5.862  14.574 -0.2457 -0.2685  0.2257
18688TIP3   OH277478   4.989   3.871  13.715  0.1716  0.1588 -1.0189
18688TIP3    H177479   4.964   3.787  13.752  0.1984  0.7104  0.3131
18688TIP3    H277480   5.002   3.854  13.622 -2.2449 -0.8019 -1.2542
18689TIP3   OH277481   5.686   4.806  15.350  0.0822 -0.1497  0.1857
18689TIP3    H177482   5.674   4.900  15.360  0.0294  0.0343 -1.3497
18689TIP3    H277483   5.625   4.767  15.412 -0.3048  0.8336  0.4320
18690TIP3   OH277484   3.568   0.266  14.613 -0.0140 -0.5553 -0.0695
18690TIP3    H177485   3.504   0.194  14.612 -1.0453  0.3340 -0.3389
18690TIP3    H277486   3.526   0.336  14.563  1.0398  0.1825  0.0428
18691TIP3   OH277487   0.895   4.159  12.346 -0.2685 -0.3051 -0.0660
18691TIP3    H177488   0.915   4.250  12.370 -1.1271 -0.5186  1.6467
18691TIP3    H277489   0.842   4.166  12.267 -2.0863  0.8450  1.1803
18692TIP3   OH277490   6.666   0.594  11.630  0.3075  0.2741  0.4610
18692TIP3    H177491   6.653   0.512  11.677  0.7083  0.0502  0.1805
18692TIP3    H277492   6.759   0.614  11.640  0.7904 -0.6690 -1.6617
18693TIP3   OH277493   4.980   2.188  13.923 -0.8693 -0.0630  0.2103
18693TIP3    H177494   4.900   2.237  13.903 -0.2244  0.6659 -0.6780
18693TIP3    H277495   5.024   2.180  13.838  0.3604  0.1927  0.8114
18694TIP3   OH277496   2.807   5.740  14.962 -0.1882 -0.1914  0.4229
18694TIP3    H177497   2.746   5.686  14.912 -0.2022 -0.1757  0.4235
18694TIP3    H277498   2.880   5.757  14.902 -1.0655  1.4139 -0.2497
18695TIP3   OH277499   0.004   2.469  16.661 -0.0198  0.1401  0.2364
18695TIP3    H177500   0.001   2.491  16.567  0.0147  0.8302  0.3903
18695TIP3    H277501  -0.087   2.473  16.689 -0.0216  0.0091  0.2506
18696TIP3   OH277502   0.068   2.644  16.417 -0.0364  0.3233 -0.3473
18696TIP3    H177503   0.106   2.695  16.489  3.3681  0.5771 -2.1021
18696TIP3    H277504   0.027   2.710  16.361 -1.3327  0.2959  0.5202
18697TIP3   OH277505   3.026   0.669   3.876 -0.0010 -0.3807 -0.3593
18697TIP3    H177506   2.949   0.701   3.830 -0.7936 -0.6119  0.7517
18697TIP3    H277507   3.030   0.576   3.854 -0.0018 -0.3561 -0.4637
18698TIP3   OH277508   3.305   5.292   4.889 -0.0372  0.4217 -0.0641
18698TIP3    H177509   3.257   5.321   4.811 -0.6343 -0.2561  0.0334
18698TIP3    H277510   3.250   5.222   4.926  0.7138  0.0753  0.4247
18699TIP3   OH277511   3.112   3.885   3.214 -0.3188  0.3155  0.1693
18699TIP3    H177512   3.096   3.979   3.222  0.8522  0.4955  0.6899
18699TIP3    H277513   3.068   3.847   3.290  2.9359  0.9995  2.6213
18700TIP3   OH277514   0.287   5.683  15.774 -0.3995  0.0172 -0.4889
18700TIP3    H177515   0.229   5.607  15.785 -0.4725  0.0164 -0.8682
18700TIP3    H277516   0.232   5.758  15.797 -0.9251  0.1257 -1.9624
18701TIP3   OH277517   6.297   6.182   0.847 -0.2612 -0.3438  0.3291
18701TIP3    H177518   6.344   6.165   0.766 -0.8406  0.2427 -0.1368
18701TIP3    H277519   6.359   6.160   0.916  0.9796  1.1563 -0.2544
18702TIP3   OH277520   5.546   0.246  12.274  0.0523 -0.2665 -0.1086
18702TIP3    H177521   5.638   0.220  12.261  0.0782 -0.5470  0.5550
18702TIP3    H277522   5.546   0.291  12.359 -0.3878 -0.0761 -0.2062
18703TIP3   OH277523   0.720   4.534  11.334  0.3098 -0.3355  0.7038
18703TIP3    H177524   0.788   4.561  11.273  1.0571 -1.9060  0.7863
18703TIP3    H277525   0.640   4.531  11.282  0.7009 -0.4569  0.1036
18704TIP3   OH277526   5.736   5.313   3.654  0.4195  0.4678  0.1916
18704TIP3    H177527   5.774   5.387   3.701  0.4350 -0.6703  2.0904
18704TIP3    H277528   5.644   5.311   3.683  0.2389  0.1652 -0.3926
18705TIP3   OH277529   5.929   5.300  13.788 -0.8574 -0.3553 -0.0824
18705TIP3    H177530   5.893   5.211  13.787 -2.3079  0.2022 -0.7472
18705TIP3    H277531   5.856   5.355  13.815  0.2333  0.5823  1.0959
18706TIP3   OH277532   3.962   3.738   3.978 -0.0876 -0.2287 -0.0836
18706TIP3    H177533   4.006   3.817   4.010 -0.3170 -0.2174  0.1987
18706TIP3    H277534   3.960   3.679   4.053 -0.0385 -0.4537 -0.2574
18707TIP3   OH277535   2.630   5.875  13.223  0.0055 -0.0026 -0.1501
18707TIP3    H177536   2.664   5.865  13.134 -0.4028  0.3517 -0.3460
18707TIP3    H277537   2.624   5.969  13.236  1.4405  0.0011  0.7849
18708TIP3   OH277538   1.673   3.191   5.097  0.1254  0.6150  0.4371
18708TIP3    H177539   1.637   3.103   5.105  0.2443  0.6575  1.6193
18708TIP3    H277540   1.626   3.230   5.023 -1.3328  0.2277  1.1336
18709TIP3   OH277541   1.394   4.893   0.071  0.2875 -0.3350 -0.5780
18709TIP3    H177542   1.407   4.979   0.031 -0.2449 -0.1026 -0.2522
18709TIP3    H277543   1.325   4.906   0.136  0.2623 -0.9898 -0.4633
18710TIP3   OH277544   3.932   0.111  13.360  0.2198 -0.4902  0.2521
18710TIP3    H177545   3.988   0.162  13.301  0.5834  0.5540  1.4595
18710TIP3    H277546   3.979   0.029  13.373  1.8656  0.6128  1.7399
18711TIP3   OH277547   4.922   2.377   0.502  0.2947  0.5288  0.0958
18711TIP3    H177548   4.959   2.452   0.546 -1.1408  1.1201  0.3449
18711TIP3    H277549   4.997   2.332   0.464  1.1732  2.1341 -0.1506
18712TIP3   OH277550   0.896   5.967  13.826  0.2045  0.5090  0.7957
18712TIP3    H177551   0.899   5.882  13.782  2.1842  1.3559 -0.9079
18712TIP3    H277552   0.808   6.000  13.808  0.1790 -0.2058 -0.5382
18713TIP3   OH277553   1.127   1.300   4.263 -0.2463 -0.4274  0.6657
18713TIP3    H177554   1.145   1.262   4.349  0.9306 -0.1396  0.5745
18713TIP3    H277555   1.056   1.362   4.278  1.2835  1.1397  1.8861
18714TIP3   OH277556   6.573   6.341  11.175  0.6872  0.6478 -0.5165
18714TIP3    H177557   6.563   6.415  11.235  0.7383 -0.2484  0.6309
18714TIP3    H277558   6.668   6.328  11.169  0.6567 -0.5602  0.9062
18715TIP3   OH277559   5.646   5.028  16.738  0.3863 -0.1399 -0.6175
18715TIP3    H177560   5.551   5.022  16.749  0.3655  0.1314 -0.6475
18715TIP3    H277561   5.658   5.057  16.647  0.4029  2.8525  0.2494
18716TIP3   OH277562   2.655   3.425  11.496  0.1123 -0.0566  0.2498
18716TIP3    H177563   2.564   3.453  11.505 -0.1300 -0.3793 -0.9702
18716TIP3    H277564   2.702   3.472  11.565 -0.9860  0.0514  0.9461
18717TIP3   OH277565   6.095   1.735  14.142 -0.0147 -0.0945 -0.0590
18717TIP3    H177566   6.102   1.676  14.217  1.8629  0.2193  0.0670
18717TIP3    H277567   6.015   1.785  14.158 -1.2272 -2.0276  0.2258
18718TIP3   OH277568   4.967   5.214  15.773  0.1633  0.2600 -0.2018
18718TIP3    H177569   4.945   5.295  15.819 -1.8459 -0.2043 -0.2499
18718TIP3    H277570   5.049   5.234  15.728  0.8671  1.5447  1.5178
18719TIP3   OH277571   5.763   4.773   5.812  0.0297  0.1151  0.0551
18719TIP3    H177572   5.740   4.789   5.904  1.1164 -0.2798  0.4066
18719TIP3    H277573   5.857   4.757   5.813 -0.0128 -0.2831 -1.0846
18720TIP3   OH277574   4.574   4.496  14.304 -0.4559  0.4877 -0.0559
18720TIP3    H177575   4.546   4.411  14.338  0.3959 -0.3607 -1.3611
18720TIP3    H277576   4.493   4.542  14.281 -0.9079 -0.1786  0.2001
18721TIP3   OH277577   5.992   1.289   0.581  0.1374  0.3943  0.1826
18721TIP3    H177578   5.937   1.261   0.508 -1.4550 -0.3521  1.5980
18721TIP3    H277579   5.955   1.373   0.608 -1.2028 -0.7024  1.9478
18722TIP3   OH277580   4.127   2.065  16.136  0.3269  0.6448  0.1735
18722TIP3    H177581   4.115   2.160  16.132  1.3147  0.8115  0.9313
18722TIP3    H277582   4.041   2.031  16.159 -0.1171  1.3183 -0.4308
18723TIP3   OH277583   2.282   2.715  15.042 -0.1821 -0.7224 -0.1281
18723TIP3    H177584   2.339   2.723  15.119 -0.8470 -0.8158  0.3842
18723TIP3    H277585   2.241   2.801  15.034 -2.3109 -1.4963  1.3964
18724TIP3   OH277586   0.107   4.933   0.320 -0.3814 -0.1714 -0.4662
18724TIP3    H177587   0.147   4.929   0.233 -0.6700  0.6295 -0.6515
18724TIP3    H277588   0.145   4.860   0.368 -0.6818 -1.0050 -1.4551
18725TIP3   OH277589   6.142   2.707   5.241 -0.0970  0.2097 -0.6475
18725TIP3    H177590   6.153   2.612   5.235  0.2795 -0.0009  2.1475
18725TIP3    H277591   6.224   2.738   5.279 -1.0349  1.3419  0.5212
18726TIP3   OH277592   2.871   4.953  14.872  0.0910 -0.4006  0.1728
18726TIP3    H177593   2.805   4.963  14.804 -0.0284  0.0048  0.3465
18726TIP3    H277594   2.822   4.948  14.954  0.2856  0.4008  0.3519
18727TIP3   OH277595   1.820   4.200  15.169  0.2877  0.3629 -0.3503
18727TIP3    H177596   1.736   4.232  15.201 -0.0314  0.2855 -1.0907
18727TIP3    H277597   1.870   4.180  15.249  0.4860  2.6305  0.1471
18728TIP3   OH277598   1.593   5.497   4.090  0.2100  0.5550 -0.5641
18728TIP3    H177599   1.505   5.485   4.053 -0.6437  2.3026  0.7142
18728TIP3    H277600   1.641   5.544   4.022 -0.3979  1.0715 -0.6521
18729TIP3   OH277601   5.901   2.496   0.510  0.2166  0.2292  0.1998
18729TIP3    H177602   5.815   2.505   0.551  0.4068  0.3898  0.5730
18729TIP3    H277603   5.956   2.560   0.556  0.6357 -0.1547  0.2385
18730TIP3   OH277604   2.474   5.903   5.018 -0.2819  0.2504 -0.4116
18730TIP3    H177605   2.540   5.867   4.960  1.5699  1.0092  1.1363
18730TIP3    H277606   2.467   5.995   4.992 -2.0622 -0.1857 -1.6966
18731TIP3   OH277607   5.113   4.377   0.394  0.4076 -0.4831 -0.0576
18731TIP3    H177608   5.181   4.444   0.400  0.2392 -0.4615  2.2758
18731TIP3    H277609   5.145   4.316   0.327  0.7424  1.6497 -1.9856
18732TIP3   OH277610   0.431   5.257  16.805  0.1252 -0.2275 -0.1341
18732TIP3    H177611   0.410   5.320  16.874 -0.6740  0.3673 -0.8810
18732TIP3    H277612   0.516   5.286  16.771 -0.6422  1.0763 -1.0874
18733TIP3   OH277613   5.846   6.316   1.974 -0.7911  0.6580  0.0672
18733TIP3    H177614   5.827   6.355   2.060  0.1995  0.6205  0.3167
18733TIP3    H277615   5.916   6.370   1.939 -1.2836  0.7530 -0.7916
18734TIP3   OH277616   4.973   0.259  12.340  0.4448 -0.1084  0.1758
18734TIP3    H177617   4.896   0.272  12.395  0.9324 -0.3572  0.9383
18734TIP3    H277618   5.046   0.254  12.402  0.9168 -1.1475 -0.4401
18735TIP3   OH277619   5.517   6.428   2.229 -0.5560  1.1635 -0.3408
18735TIP3    H177620   5.446   6.493   2.228 -1.8105 -0.1473 -0.1890
18735TIP3    H277621   5.504   6.378   2.309 -0.4913 -0.1639 -1.1120
18736TIP3   OH277622   5.939   5.304   4.121 -0.2391 -0.3925  0.0243
18736TIP3    H177623   5.935   5.316   4.026  2.6573 -0.2175 -0.1536
18736TIP3    H277624   5.891   5.223   4.137  2.1922 -2.4461 -2.1371
18737TIP3   OH277625   6.352   3.351  11.604 -0.4997  0.1886 -0.6324
18737TIP3    H177626   6.428   3.397  11.638 -0.9248  0.6524 -0.2922
18737TIP3    H277627   6.305   3.417  11.553 -1.5780  0.4012  0.5831
18738TIP3   OH277628   0.544   6.611   1.163  0.5544  0.1994 -0.4015
18738TIP3    H177629   0.465   6.559   1.146  0.0530  0.3284  1.3423
18738TIP3    H277630   0.577   6.577   1.246  1.9315  0.6717 -0.7279
18739TIP3   OH277631   3.355   1.700   3.577  0.3065 -0.2115  0.5047
18739TIP3    H177632   3.333   1.758   3.650 -0.0717  2.0582 -1.2924
18739TIP3    H277633   3.450   1.699   3.575  0.3176 -0.0142  0.8249
18740TIP3   OH277634   0.757   2.061  16.892  0.1655 -0.7854 -0.1197
18740TIP3    H177635   0.713   2.010  16.959  0.7937  0.5054  1.3368
18740TIP3    H277636   0.693   2.126  16.864  0.8181  0.6761  1.5371
18741TIP3   OH277637   0.647   4.743  11.867  0.0146  0.7056  0.1771
18741TIP3    H177638   0.628   4.753  11.773 -0.8670 -0.4565  0.2108
18741TIP3    H277639   0.720   4.681  11.870 -0.4535  0.1458  0.2676
18742TIP3   OH277640   4.160   1.604  14.168  0.1328  0.4956  0.0166
18742TIP3    H177641   4.199   1.623  14.082  1.2822  3.1816  1.0146
18742TIP3    H277642   4.167   1.686  14.216 -0.2011 -0.9791  2.8162
18743TIP3   OH277643   5.090   3.634  14.023  0.0324  0.1262 -0.0638
18743TIP3    H177644   5.003   3.646  14.060 -0.6083  1.1457 -1.7825
18743TIP3    H277645   5.139   3.587  14.091 -1.4887  0.5783  1.4155
18744TIP3   OH277646   1.891   0.195   1.552 -0.7476  1.0412  0.4804
18744TIP3    H177647   1.886   0.101   1.566  2.5300  0.8052  0.7390
18744TIP3    H277648   1.864   0.233   1.635 -2.1996  0.3897  0.3394
18745TIP3   OH277649   4.501   2.085   1.412 -0.0591 -0.0754 -0.4244
18745TIP3    H177650   4.594   2.082   1.389  0.2634  1.2671  0.6096
18745TIP3    H277651   4.478   2.177   1.410 -1.2909 -0.3607 -0.3160
18746TIP3   OH277652   3.515   6.209   5.026  0.2979 -0.0457 -0.5441
18746TIP3    H177653   3.512   6.282   4.963  0.3298  1.1116  0.7520
18746TIP3    H277654   3.597   6.221   5.073 -0.5955  0.2499  1.0066
18747TIP3   OH277655   1.612   1.756   0.031 -0.0290 -0.5305 -0.4652
18747TIP3    H177656   1.617   1.753  -0.064  0.7855  0.7586 -0.4775
18747TIP3    H277657   1.560   1.834   0.050 -0.0732 -0.7054  0.1572
18748TIP3   OH277658   4.549   1.094  10.706  0.0317  0.0028  0.3497
18748TIP3    H177659   4.643   1.110  10.698  0.2685 -0.9929  0.9361
18748TIP3    H277660   4.542   0.999  10.719 -1.0311  0.1074  0.6229
18749TIP3   OH277661   2.390   1.337   2.398  0.4276 -0.2669 -0.4073
18749TIP3    H177662   2.333   1.414   2.403 -1.5408 -1.6572 -0.3907
18749TIP3    H277663   2.413   1.319   2.490  2.5025  1.3672 -0.5356
18750TIP3   OH277664   2.808   3.102  13.759 -0.6191  0.1514 -0.0293
18750TIP3    H177665   2.799   3.152  13.840 -0.9907 -0.2669  0.1933
18750TIP3    H277666   2.901   3.109  13.736 -0.1758 -1.0724  1.2981
18751TIP3   OH277667   2.199   2.911  16.393 -0.5993 -0.6342 -0.1621
18751TIP3    H177668   2.237   2.841  16.340 -0.9058 -1.2654  0.4322
18751TIP3    H277669   2.115   2.930  16.351  0.1853  0.5380 -1.2869
18752TIP3   OH277670   0.683   0.534  15.980 -0.3729  0.3438 -0.2853
18752TIP3    H177671   0.709   0.442  15.973 -2.5049 -0.2322 -1.8901
18752TIP3    H277672   0.706   0.571  15.895  1.6853  1.7277  0.7894
18753TIP3   OH277673   3.826   0.081  15.097 -0.0950  0.5251  0.0688
18753TIP3    H177674   3.846   0.109  15.186  1.9223  0.1784 -0.2271
18753TIP3    H277675   3.737   0.112  15.081  1.0309  4.5421  0.6371
18754TIP3   OH277676   0.824   6.261  12.290  0.1905 -0.5806  0.3112
18754TIP3    H177677   0.780   6.343  12.265  1.2581 -0.3554 -0.9663
18754TIP3    H277678   0.753   6.204  12.319 -1.1014 -0.4916 -2.3554
18755TIP3   OH277679   3.080   2.612   1.219  0.0429 -0.4534 -0.0011
18755TIP3    H177680   3.172   2.611   1.192  0.1137  2.6528 -0.2978
18755TIP3    H277681   3.032   2.590   1.139  0.4875 -0.6465 -0.2230
18756TIP3   OH277682   6.762   0.057  16.551 -0.0619  0.3026  0.0876
18756TIP3    H177683   6.794   0.050  16.641 -0.7421 -0.9243  0.2543
18756TIP3    H277684   6.825   0.007  16.499 -0.9523 -1.0195  0.2365
18757TIP3   OH277685   5.625   6.169  14.627  0.3094 -0.2283  0.1566
18757TIP3    H177686   5.650   6.132  14.712  2.5721 -0.6733 -0.6174
18757TIP3    H277687   5.704   6.160  14.573 -0.9708  0.2855 -1.9261
18758TIP3   OH277688   4.459   0.832  11.602  0.1217 -0.5221  0.7144
18758TIP3    H177689   4.483   0.924  11.592  1.8440 -0.9569  0.3953
18758TIP3    H277690   4.387   0.819  11.540  1.1964  0.1584 -0.7615
18759TIP3   OH277691   1.792   4.137   1.729  0.3659 -0.3294  0.6896
18759TIP3    H177692   1.729   4.072   1.758  2.4828 -2.5535  0.6608
18759TIP3    H277693   1.872   4.087   1.713  1.2924  1.8400 -2.2975
18760TIP3   OH277694   4.822   2.077  14.957  0.4749 -0.1020  0.0128
18760TIP3    H177695   4.913   2.099  14.935  0.4122 -0.6081 -0.7605
18760TIP3    H277696   4.830   2.008  15.023  0.6806 -2.0088 -1.9193
18761TIP3   OH277697   2.730   6.386   4.670  0.1298  0.1546  0.4213
18761TIP3    H177698   2.779   6.455   4.713  0.1314 -0.4804  1.4694
18761TIP3    H277699   2.743   6.309   4.725  0.9806 -0.9748 -1.2535
18762TIP3   OH277700   0.736   1.141  15.779  0.0138  0.1541  0.5586
18762TIP3    H177701   0.760   1.065  15.831 -0.4496 -1.5036 -1.5209
18762TIP3    H277702   0.759   1.117  15.689 -2.0540  1.6303 -0.4477
18763TIP3   OH277703   0.403   4.239   4.071 -0.6846 -0.1626  0.2326
18763TIP3    H177704   0.307   4.234   4.074 -0.9201  1.7314 -1.7005
18763TIP3    H277705   0.421   4.318   4.019  1.9384 -0.2459  0.9056
18764TIP3   OH277706   1.302   5.521   0.626  0.3871 -0.1243 -0.9008
18764TIP3    H177707   1.225   5.566   0.592  2.7084  3.2964 -2.1713
18764TIP3    H277708   1.311   5.444   0.570 -1.6470 -0.2580 -1.1394
18765TIP3   OH277709   4.804   0.676   3.224 -0.1976 -0.2728 -0.2504
18765TIP3    H177710   4.804   0.770   3.205 -0.0940 -0.1182  0.5068
18765TIP3    H277711   4.896   0.656   3.244 -0.3149 -0.4194  0.1460
18766TIP3   OH277712   3.100   0.499   0.350  0.2478 -0.5774 -0.2492
18766TIP3    H177713   3.088   0.526   0.441 -1.0133 -0.0116 -0.5582
18766TIP3    H277714   3.088   0.404   0.351  2.1163 -0.8438  0.4446
18767TIP3   OH277715   0.156   4.622  16.173  0.0699  0.1796 -0.0881
18767TIP3    H177716   0.079   4.613  16.117  1.4027  1.0591 -2.2084
18767TIP3    H277717   0.151   4.712  16.208 -0.7100 -0.3360  1.1893
18768TIP3   OH277718   3.791   0.974  16.261 -0.2867 -0.7717  0.2216
18768TIP3    H177719   3.818   0.967  16.353 -0.2567  0.6844  0.3506
18768TIP3    H277720   3.830   0.898  16.218  0.5981 -0.8881  1.1988
18769TIP3   OH277721   6.607   3.177  14.353  0.6028  0.3366 -0.4264
18769TIP3    H177722   6.697   3.156  14.377 -0.2491 -0.4098  2.5270
18769TIP3    H277723   6.587   3.257  14.402 -1.0708 -0.9265  1.0979
18770TIP3   OH277724   3.344   3.703   3.733 -0.2108  0.3736 -0.5339
18770TIP3    H177725   3.355   3.798   3.741 -0.0053  0.4175 -1.2241
18770TIP3    H277726   3.317   3.691   3.642  0.7897 -0.3192 -0.7474
18771TIP3   OH277727   3.983   5.098  16.251  0.0092  0.3545  0.7765
18771TIP3    H177728   4.054   5.035  16.245 -0.3367  0.0097  0.2797
18771TIP3    H277729   4.017   5.167  16.309  2.6865  2.7262 -3.1618
18772TIP3   OH277730   5.793   4.811  11.101  0.3970  0.3932  0.2116
18772TIP3    H177731   5.829   4.782  11.017  0.9225  0.0156  0.5608
18772TIP3    H277732   5.844   4.889  11.122 -0.3093  0.9853 -0.2222
18773TIP3   OH277733   4.545   5.114   1.444  0.3007  0.3627  0.2150
18773TIP3    H177734   4.640   5.110   1.433  0.2845 -0.8969  0.4510
18773TIP3    H277735   4.519   5.195   1.399  1.3539  0.1608 -0.8093
18774TIP3   OH277736   1.050   5.415   0.455 -0.3911 -0.1452 -0.2272
18774TIP3    H177737   0.999   5.416   0.374 -0.5206 -2.2407 -0.2335
18774TIP3    H277738   1.044   5.324   0.486  2.3002 -0.1851  0.4475
18775TIP3   OH277739   2.018   1.009   1.429  0.2306  0.3690 -0.1781
18775TIP3    H177740   2.099   0.958   1.437 -0.2353 -0.3267  0.1518
18775TIP3    H277741   1.984   0.988   1.343 -0.2294 -0.2852  0.1576
18776TIP3   OH277742   2.608   5.748   4.263 -0.2980  0.0233 -0.2439
18776TIP3    H177743   2.594   5.654   4.278  1.2519 -0.4461 -1.4554
18776TIP3    H277744   2.691   5.767   4.307  0.1470  0.4653 -1.2419
18777TIP3   OH277745   6.582   0.159  16.370  0.6420  0.2558 -0.3865
18777TIP3    H177746   6.651   0.107  16.328 -1.1072 -1.6667 -0.9918
18777TIP3    H277747   6.594   0.144  16.464  2.1596  1.4609 -0.3441
18778TIP3   OH277748   6.134   1.266   2.152 -0.4884 -0.2760 -0.1670
18778TIP3    H177749   6.039   1.281   2.148 -0.3417  0.7572 -0.2036
18778TIP3    H277750   6.156   1.272   2.245 -0.6380 -1.8846  0.0021
18779TIP3   OH277751   0.379   4.751  12.232  0.4025 -0.2455 -0.3115
18779TIP3    H177752   0.417   4.686  12.173 -0.3998  0.6341 -1.8495
18779TIP3    H277753   0.286   4.731  12.235  0.4041 -0.1979  0.5798
18780TIP3   OH277754   4.070   1.381  12.958 -0.0684 -0.0051 -0.4963
18780TIP3    H177755   4.012   1.305  12.949 -0.2343  0.0034  0.4277
18780TIP3    H277756   4.022   1.453  12.917 -0.5008 -0.1085 -0.1751
18781TIP3   OH277757   2.475   1.998  15.680  0.1109  0.0210 -0.2891
18781TIP3    H177758   2.555   1.969  15.725  0.6976  1.0284 -0.6537
18781TIP3    H277759   2.446   2.075  15.728 -0.9444 -0.6233  0.1427
18782TIP3   OH277760   6.326   4.216  14.023  0.2704  0.5391  0.1321
18782TIP3    H177761   6.323   4.297  14.075  0.7765  2.0194 -2.0090
18782TIP3    H277762   6.379   4.239  13.947 -0.8363 -1.3715 -1.3007
18783TIP3   OH277763   4.217   1.017  12.892 -0.0641 -0.1736 -0.4749
18783TIP3    H177764   4.168   1.085  12.846  1.2134  0.7149 -0.5613
18783TIP3    H277765   4.271   0.976  12.824  1.5110  0.8519  0.1153
18784TIP3   OH277766   5.816   5.669  10.714 -0.1581  0.1461 -0.5690
18784TIP3    H177767   5.775   5.591  10.750 -2.2693  1.7576  0.7291
18784TIP3    H277768   5.885   5.635  10.657  0.5329 -2.6135  1.6624
18785TIP3   OH277769   5.777   6.130  12.448  0.2672  0.1570  0.4442
18785TIP3    H177770   5.828   6.205  12.420 -0.0147  0.4650  0.7483
18785TIP3    H277771   5.701   6.167  12.493  1.5179 -0.3277  3.1229
18786TIP3   OH277772   0.940   1.406  12.006 -0.3207  0.0437 -0.3140
18786TIP3    H177773   1.024   1.397  12.052  0.3545 -1.9472 -1.8256
18786TIP3    H277774   0.961   1.386  11.914 -2.2197  0.8151 -0.9538
18787TIP3   OH277775   5.705   3.689   2.505  0.0478 -0.1421  0.4431
18787TIP3    H177776   5.666   3.629   2.568  1.7455 -1.1413  0.6047
18787TIP3    H277777   5.727   3.634   2.430 -0.8457  0.8121 -0.5751
18788TIP3   OH277778   5.478   3.768   5.025  0.1942  0.5579  0.1391
18788TIP3    H177779   5.408   3.784   5.089 -0.1877 -0.1287 -0.0952
18788TIP3    H277780   5.445   3.695   4.971  0.6300  0.9352 -0.6552
18789TIP3   OH277781   2.425   1.861   5.878  0.0895 -0.5235  0.7262
18789TIP3    H177782   2.385   1.789   5.928 -1.2952 -0.3165 -0.0115
18789TIP3    H277783   2.432   1.932   5.941  0.8137 -1.0750  1.2851
18790TIP3   OH277784   3.407   4.201  14.226  0.3090  0.2493 -0.5837
18790TIP3    H177785   3.412   4.286  14.271  1.1910 -0.6241  1.0843
18790TIP3    H277786   3.499   4.178  14.211  0.0452  0.1752 -2.2653
18791TIP3   OH277787   4.658   1.844   3.851 -0.0114 -0.4355 -0.4047
18791TIP3    H177788   4.720   1.850   3.777  1.3853  0.7863  0.8031
18791TIP3    H277789   4.637   1.934   3.872 -0.5754 -0.7770  0.5490
18792TIP3   OH277790   5.662   5.986   4.144 -0.0783  0.1261  0.2053
18792TIP3    H177791   5.590   5.979   4.081  0.8332 -0.8071 -0.7754
18792TIP3    H277792   5.733   6.028   4.095  0.7727 -0.9608  0.4684
18793TIP3   OH277793   6.591   6.426   3.127 -0.0553 -0.1448  0.1302
18793TIP3    H177794   6.576   6.482   3.051  3.6702 -0.4570 -1.0388
18793TIP3    H277795   6.564   6.480   3.202 -1.3702  1.1770 -1.2127
18794TIP3   OH277796   5.244   2.243  11.170 -0.0763  0.8170 -0.5176
18794TIP3    H177797   5.286   2.225  11.085  0.1034 -0.2775 -0.2040
18794TIP3    H277798   5.299   2.312  11.209  0.7129  0.2851 -0.6526
18795TIP3   OH277799   1.089   6.650  16.449  0.0189  0.4611  0.0709
18795TIP3    H177800   1.166   6.594  16.459  0.0853  0.9055  2.8044
18795TIP3    H277801   1.125   6.738  16.433  0.1353  0.7195  1.6273
18796TIP3   OH277802   1.151   1.250  13.686 -0.1926 -0.2335 -0.3683
18796TIP3    H177803   1.160   1.216  13.775 -2.1467 -0.6179 -0.2667
18796TIP3    H277804   1.142   1.345  13.698  0.9728 -0.1177 -0.2990
18797TIP3   OH277805   1.609   4.944  13.697  0.5222  0.5243 -0.6228
18797TIP3    H177806   1.689   4.990  13.672  0.4686  0.7504 -0.3774
18797TIP3    H277807   1.632   4.895  13.776  0.8637 -0.6779 -1.4269
18798TIP3   OH277808   3.445   2.593   4.159 -0.4567  0.0789 -0.0482
18798TIP3    H177809   3.478   2.565   4.073  0.1808 -0.5952  0.4064
18798TIP3    H277810   3.456   2.688   4.159  0.5915 -0.0327 -0.2886
18799TIP3   OH277811   0.343   1.848   0.718 -0.0389 -0.2869  0.0653
18799TIP3    H177812   0.260   1.853   0.671 -0.3923  0.6996  0.7657
18799TIP3    H277813   0.396   1.919   0.681 -0.4638  0.7613  1.3818
18800TIP3   OH277814   0.349   6.335  13.453  0.1361  0.2813  0.2615
18800TIP3    H177815   0.364   6.267  13.519 -1.3675 -0.3144  0.0171
18800TIP3    H277816   0.304   6.405  13.501  1.3676  0.9772  0.4340
18801TIP3   OH277817   6.391   6.113   2.594 -0.0470  0.0346 -0.3140
18801TIP3    H177818   6.370   6.022   2.613  1.5568  0.1976  2.6668
18801TIP3    H277819   6.306   6.157   2.591 -0.7149 -0.9651  1.9265
18802TIP3   OH277820   6.419   5.595   4.176 -0.2312  0.4775 -0.0019
18802TIP3    H177821   6.328   5.567   4.165  0.4108 -1.4100 -1.0428
18802TIP3    H277822   6.424   5.627   4.266 -2.7965  4.3890 -1.0317
18803TIP3   OH277823   3.329   6.152   3.115  0.9081 -0.3900  0.2879
18803TIP3    H177824   3.321   6.061   3.087  0.6150 -0.1943 -0.2752
18803TIP3    H277825   3.248   6.194   3.085  1.3606  0.2197 -0.1048
18804TIP3   OH277826   2.253   0.407   3.308  0.2374 -0.2146  0.4179
18804TIP3    H177827   2.245   0.384   3.400  0.0864  0.5815  0.6095
18804TIP3    H277828   2.301   0.334   3.269  0.1205 -0.6517  1.0834
18805TIP3   OH277829   5.896   1.131  10.729 -0.1103  0.2300 -0.2266
18805TIP3    H177830   5.986   1.161  10.721 -0.2557  0.3322 -1.7601
18805TIP3    H277831   5.888   1.060  10.665 -1.1777  0.3828 -0.2846
18806TIP3   OH277832   3.388   4.927  15.486  0.4323  0.3238  0.5907
18806TIP3    H177833   3.385   4.877  15.568  3.0842  3.2188  2.7430
18806TIP3    H277834   3.321   4.994  15.496  0.3700  0.3314  0.1380
18807TIP3   OH277835   4.848   1.506  15.517  0.0546 -0.5893  0.5170
18807TIP3    H177836   4.856   1.584  15.571  0.6914 -0.4098  0.1768
18807TIP3    H277837   4.834   1.435  15.579 -1.6388 -0.0756  0.7670
18808TIP3   OH277838   2.937   2.404   0.066  0.2372 -0.7187  0.2382
18808TIP3    H177839   2.868   2.452   0.110 -1.0010 -0.8458 -1.4646
18808TIP3    H277840   2.891   2.347   0.004  1.8582  1.8035 -3.6482
18809TIP3   OH277841   5.675   3.740  12.608  0.2243 -0.2952 -0.3462
18809TIP3    H177842   5.737   3.730  12.537 -1.2916  0.7477 -1.8930
18809TIP3    H277843   5.593   3.767  12.566 -1.2863 -1.5061  1.5922
18810TIP3   OH277844   3.382   6.328   2.389  0.1485  0.0491 -0.4479
18810TIP3    H177845   3.301   6.379   2.397 -0.0493 -0.1531 -1.1462
18810TIP3    H277846   3.399   6.325   2.295  0.5768 -0.5203 -0.3547
18811TIP3   OH277847   3.988   2.228  12.867 -0.1447  0.2005  0.1788
18811TIP3    H177848   4.017   2.179  12.943 -0.6325 -0.8265 -0.2711
18811TIP3    H277849   3.899   2.257  12.889  0.5408  1.8685  0.8810
18812TIP3   OH277850   6.611   0.759   2.598  0.5296  0.1679  0.2388
18812TIP3    H177851   6.636   0.706   2.674 -1.1086  1.8296  2.0524
18812TIP3    H277852   6.653   0.844   2.613 -2.1815  1.4853  0.9320
18813TIP3   OH277853   1.650   3.056   4.032  0.1367 -0.0148 -0.2115
18813TIP3    H177854   1.714   3.083   3.966 -1.1239  1.4366 -0.9154
18813TIP3    H277855   1.591   2.996   3.985 -1.2944  1.7156 -0.7410
18814TIP3   OH277856   3.593   0.278   4.715 -0.0502 -0.1994  0.0165
18814TIP3    H177857   3.536   0.259   4.789 -0.4435  1.8049  0.3068
18814TIP3    H277858   3.650   0.202   4.707 -1.0811 -1.1480  1.3405
18815TIP3   OH277859   4.269   1.966   5.687 -0.4716 -0.4846 -0.2758
18815TIP3    H177860   4.226   2.033   5.634 -1.2945 -0.6319  0.2059
18815TIP3    H277861   4.321   2.015   5.750 -0.3173 -0.3085 -0.5347
18816TIP3   OH277862   0.027   0.518  14.314 -0.2969 -0.0209  0.4605
18816TIP3    H177863   0.015   0.525  14.219  1.4928  0.1954  0.2167
18816TIP3    H277864   0.065   0.431  14.327 -3.8385 -1.6126  1.4195
18817TIP3   OH277865   3.881   4.461   6.005 -0.4634  0.0983 -0.1150
18817TIP3    H177866   3.877   4.556   6.003 -1.4935  0.0588 -0.3196
18817TIP3    H277867   3.830   4.436   6.082  1.2538 -0.2406  0.9908
18818TIP3   OH277868   2.701   6.310  16.080 -0.1830 -0.0563 -0.3653
18818TIP3    H177869   2.686   6.244  16.012  0.1295 -0.5306  0.0209
18818TIP3    H277870   2.614   6.346  16.098 -0.1885  0.5067 -1.4427
18819TIP3   OH277871   6.249   0.402  13.455 -0.4446  0.1177 -0.6643
18819TIP3    H177872   6.272   0.486  13.494  1.8747 -0.7192 -0.0462
18819TIP3    H277873   6.274   0.410  13.363 -1.8293  0.6507 -1.0047
18820TIP3   OH277874   3.712   5.026   4.216  0.0077  0.2418  0.1278
18820TIP3    H177875   3.774   4.958   4.190  0.8826  0.8231  0.6489
18820TIP3    H277876   3.720   5.031   4.311  0.4875  1.5448  0.0421
18821TIP3   OH277877   5.383   6.022  16.537 -0.4436 -0.0518 -0.1668
18821TIP3    H177878   5.319   6.090  16.517 -0.2620  0.1706 -0.0028
18821TIP3    H277879   5.437   6.059  16.607  0.7827  0.3537 -1.2900
18822TIP3   OH277880   0.223   5.727   5.761  0.0328  0.5089  0.0634
18822TIP3    H177881   0.187   5.764   5.681  1.1166  0.0385 -0.6561
18822TIP3    H277882   0.157   5.747   5.828 -0.4454  1.7343 -0.7409
18823TIP3   OH277883   1.245   1.139  14.430  0.5307  0.3589  0.5132
18823TIP3    H177884   1.277   1.056  14.395 -1.1007  0.0476 -0.3346
18823TIP3    H277885   1.150   1.127  14.438  0.5923  1.0033  3.4966
18824TIP3   OH277886   1.314   3.927   4.808 -0.1234 -0.3526  0.4446
18824TIP3    H177887   1.303   4.013   4.767  0.5429 -0.3503  0.2490
18824TIP3    H277888   1.335   3.947   4.899 -2.0154 -0.3657  0.9285
18825TIP3   OH277889   3.186   4.257  12.050 -0.3191  1.1600  0.5976
18825TIP3    H177890   3.256   4.296  12.102 -0.2551  1.2660  0.4344
18825TIP3    H277891   3.175   4.317  11.976  0.8034  0.1312 -0.4601
18826TIP3   OH277892   0.796   5.213  15.835 -0.0881  0.2821  0.7391
18826TIP3    H177893   0.717   5.262  15.812  0.1105  0.8776  1.2998
18826TIP3    H277894   0.764   5.125  15.856 -0.4940  0.2714  0.1222
18827TIP3   OH277895   0.257   2.682   4.116 -0.1384 -0.3834  0.2704
18827TIP3    H177896   0.294   2.660   4.030 -2.3203 -0.1632 -0.7995
18827TIP3    H277897   0.195   2.753   4.097  0.7694  1.0431  2.3674
18828TIP3   OH277898   5.772   0.468  10.719 -0.4616 -0.0204 -0.0084
18828TIP3    H177899   5.687   0.500  10.687 -0.4072  0.1184 -0.0137
18828TIP3    H277900   5.768   0.373  10.706 -0.8292 -0.0774  0.4902
18829TIP3   OH277901   6.262   5.159   3.777  0.3002  0.4117 -0.3614
18829TIP3    H177902   6.350   5.145   3.741 -0.0251 -1.0630 -0.6517
18829TIP3    H277903   6.214   5.202   3.706  0.6091  0.6584 -0.4255
18830TIP3   OH277904   4.024   4.841  12.233  0.6249  0.1347 -0.1116
18830TIP3    H177905   4.063   4.913  12.184  1.3142 -0.3308 -0.2594
18830TIP3    H277906   4.098   4.785  12.257  0.2167  0.0358  0.9332
18831TIP3   OH277907   4.033   5.349   3.028 -0.4886  0.1364 -0.1634
18831TIP3    H177908   3.987   5.343   3.112 -1.2785 -2.1104 -0.6674
18831TIP3    H277909   4.082   5.267   3.022  0.7529  0.9279 -1.2488
18832TIP3   OH277910   0.494   6.338   3.934  0.2881 -0.3114 -0.1791
18832TIP3    H177911   0.561   6.275   3.908  0.0725 -0.5382 -0.1904
18832TIP3    H277912   0.523   6.421   3.896 -1.6031 -1.1484 -3.9893
18833TIP3   OH277913   0.523   3.701  12.817  0.2747  0.5146  0.4290
18833TIP3    H177914   0.581   3.625  12.823  2.1893  1.9899  1.8312
18833TIP3    H277915   0.508   3.713  12.723  2.6275  0.3359 -0.0176
18834TIP3   OH277916   6.721   6.274   2.368  0.0296 -0.0273 -0.4299
18834TIP3    H177917   6.737   6.180   2.372  0.0231 -0.0646 -1.2095
18834TIP3    H277918   6.707   6.300   2.459 -2.1963 -1.1542 -0.3970
18835TIP3   OH277919   6.417   1.653  10.519 -0.0274  0.0586  0.6501
18835TIP3    H177920   6.386   1.721  10.459  0.4484  0.2544  0.6239
18835TIP3    H277921   6.340   1.632  10.572 -0.3598  0.1255  0.1998
18836TIP3   OH277922   6.186   3.808  14.948  0.1775 -0.0850 -0.0235
18836TIP3    H177923   6.258   3.786  14.889 -0.4628  0.3822 -1.0039
18836TIP3    H277924   6.115   3.749  14.922 -0.3684  0.6602 -0.2699
18837TIP3   OH277925   5.674   0.635   2.714 -0.0539 -0.1443  0.1271
18837TIP3    H177926   5.644   0.717   2.753 -1.7407 -0.4069 -0.5379
18837TIP3    H277927   5.677   0.573   2.788  0.5634  0.3296  0.5086
18838TIP3   OH277928   2.587   4.945  16.676 -0.0037 -0.3497  0.4105
18838TIP3    H177929   2.659   4.921  16.734  0.2791  0.9945  0.6422
18838TIP3    H277930   2.508   4.917  16.723  0.2848 -0.4163  0.8589
18839TIP3   OH277931   6.597   5.741  15.748 -0.2275 -0.3757 -0.4346
18839TIP3    H177932   6.573   5.834  15.744  1.7049  0.1343 -1.0808
18839TIP3    H277933   6.688   5.738  15.718 -0.7465 -2.6881 -2.1237
18840TIP3   OH277934   1.003   0.955  15.434  0.1756  0.0784  0.2838
18840TIP3    H177935   1.010   0.952  15.529  2.6668 -0.5357  0.1391
18840TIP3    H277936   1.037   0.871  15.404 -3.2070 -0.9629 -1.1331
18841TIP3   OH277937   3.012   6.275   1.825 -0.2038 -0.2831  0.1176
18841TIP3    H177938   2.955   6.210   1.865 -1.1625 -0.0957 -0.8753
18841TIP3    H277939   3.018   6.249   1.733 -0.7583  1.1019 -0.3425
18842TIP3   OH277940   1.670   5.361  13.629  0.4506  0.4735 -0.5449
18842TIP3    H177941   1.716   5.442  13.605  0.0488  1.3419  1.3907
18842TIP3    H277942   1.677   5.357  13.724 -0.0477 -1.4992 -0.5384
18843TIP3   OH277943   4.369   6.625  13.387 -0.0557  0.4152  0.1308
18843TIP3    H177944   4.323   6.655  13.465 -1.3288 -0.9120 -0.0694
18843TIP3    H277945   4.414   6.545  13.414  1.1972  1.0602  0.0128
18844TIP3   OH277946   5.109   6.109   3.930 -0.0323 -0.1472  0.0710
18844TIP3    H177947   5.098   6.065   4.014 -2.0818  1.2575  0.6122
18844TIP3    H277948   5.086   6.042   3.865 -0.9932 -0.5017  0.7611
18845TIP3   OH277949   1.769   3.424   1.294  0.4056  0.5572  0.0345
18845TIP3    H177950   1.845   3.372   1.318  0.4814  0.7567  0.2298
18845TIP3    H277951   1.801   3.484   1.226  0.8284  1.7178  1.2066
18846TIP3   OH277952   4.658   1.503  11.159 -0.6525  0.4414  0.6835
18846TIP3    H177953   4.731   1.441  11.156 -0.1530  0.9862  1.4452
18846TIP3    H277954   4.587   1.453  11.199 -0.1127  0.4750  1.7325
18847TIP3   OH277955   0.627   1.171   5.154 -0.3762 -0.0518 -0.4756
18847TIP3    H177956   0.631   1.080   5.124 -2.2044 -0.2006 -0.3383
18847TIP3    H277957   0.561   1.212   5.098  0.7151  1.3197 -0.8091
18848TIP3   OH277958   4.704   1.173  14.897 -0.0869 -0.1689 -0.0582
18848TIP3    H177959   4.758   1.231  14.843  0.1329 -1.2490 -1.0205
18848TIP3    H277960   4.736   1.085  14.878 -2.2820 -0.8776 -0.7872
18849TIP3   OH277961   2.091   4.357  15.792 -0.3525  0.1995 -0.6455
18849TIP3    H177962   2.164   4.296  15.784 -0.9240 -0.2879 -2.6182
18849TIP3    H277963   2.027   4.312  15.848 -0.8702 -1.1601 -2.2691
18850TIP3   OH277964   0.132   6.151   4.644 -0.4127  0.0468 -0.3489
18850TIP3    H177965   0.198   6.159   4.575 -0.5949 -0.5752 -0.6055
18850TIP3    H277966   0.116   6.241   4.673  1.1208  0.1457  0.2740
18851TIP3   OH277967   2.265   4.206   2.027  0.6211 -0.5957 -0.0117
18851TIP3    H177968   2.242   4.292   2.061  0.0180 -0.0297 -1.7372
18851TIP3    H277969   2.181   4.163   2.010  0.9143 -1.3837  0.4598
18852TIP3   OH277970   4.180   1.185  11.436  0.0795  0.5506  0.5454
18852TIP3    H177971   4.241   1.226  11.497 -0.1421 -0.4062  1.4333
18852TIP3    H277972   4.154   1.256  11.377  0.9082  1.3071  1.0641
18853TIP3   OH277973   4.626   1.103  15.785  0.0072  0.6419  0.9675
18853TIP3    H177974   4.702   1.132  15.834  0.7393 -0.5324  0.5732
18853TIP3    H277975   4.654   1.106  15.693 -1.0927  2.0892  0.6466
18854TIP3   OH277976   2.374   5.577  15.522 -0.1411  0.0725  0.7610
18854TIP3    H177977   2.287   5.537  15.528  0.3429 -1.5599 -1.8911
18854TIP3    H277978   2.432   5.515  15.566  0.2511 -1.0453 -1.2335
18855TIP3   OH277979   2.662   6.789   2.845 -0.3826 -0.1771 -0.0084
18855TIP3    H177980   2.747   6.754   2.818 -0.1744 -0.4758  0.9758
18855TIP3    H277981   2.637   6.849   2.775  0.1254 -0.9034 -0.8338
18856TIP3   OH277982   2.684   0.453  16.831 -0.1013  0.2561 -0.2938
18856TIP3    H177983   2.677   0.372  16.780 -1.2403  1.1698 -1.6465
18856TIP3    H277984   2.718   0.518  16.770 -0.6733  1.1855  0.3477
18857TIP3   OH277985   5.655   1.295  15.596  0.4816 -0.5224 -0.0785
18857TIP3    H177986   5.638   1.366  15.535  0.5180 -1.6654 -1.4729
18857TIP3    H277987   5.572   1.248  15.602  0.1311  0.2322  1.7069
18858TIP3   OH277988   5.110   3.251   6.044  0.1803 -0.3567 -0.1019
18858TIP3    H177989   5.148   3.181   6.096  2.0847  0.6661 -0.0248
18858TIP3    H277990   5.139   3.332   6.087 -2.8618  0.5586  0.4719
18859TIP3   OH277991   1.624   4.969   6.796 -0.5725  0.1054 -0.6327
18859TIP3    H177992   1.666   4.901   6.850 -1.6087 -0.1498 -0.1146
18859TIP3    H277993   1.684   5.043   6.801  0.5055 -0.7069 -1.0760
18860TIP3   OH277994   3.364   1.278   4.056 -0.5922 -0.3125 -0.0642
18860TIP3    H177995   3.344   1.355   4.003 -0.8001 -0.6327 -0.4618
18860TIP3    H277996   3.309   1.287   4.133 -1.0828 -0.3674 -0.4000
18861TIP3   OH277997   1.381   2.394  16.636  0.3270  0.3581  0.0576
18861TIP3    H177998   1.437   2.465  16.668  0.6792  0.8532 -1.5611
18861TIP3    H277999   1.295   2.433  16.625  0.0704  0.0455  0.8962
18862TIP3   OH278000   1.833   2.908   0.541  0.0257 -0.1141  0.2671
18862TIP3    H178001   1.837   2.863   0.625 -2.6171 -1.2886 -0.1240
18862TIP3    H278002   1.829   3.001   0.564 -0.5126 -0.4114  1.4683
18863TIP3   OH278003   5.985   3.505   5.978 -0.1845 -0.2241  0.0460
18863TIP3    H178004   5.969   3.432   5.919  1.1555 -0.1197 -0.4705
18863TIP3    H278005   5.898   3.531   6.008 -0.8474 -0.6005 -1.4833
18864TIP3   OH278006   2.911   2.891  11.807 -0.5878 -0.1766 -0.1894
18864TIP3    H178007   2.895   2.936  11.890 -0.8512  0.2677 -0.4775
18864TIP3    H278008   2.950   2.958  11.751 -1.2539 -0.2211 -0.7170
18865TIP3   OH278009   2.750   4.237   4.670  0.0400  0.0277 -0.3958
18865TIP3    H178010   2.757   4.187   4.751  4.9904 -0.8557 -1.0617
18865TIP3    H278011   2.732   4.327   4.699  0.8420 -0.4051  1.6323
18866TIP3   OH278012   5.085   2.486  10.957  0.4290 -0.4817  0.9488
18866TIP3    H178013   5.021   2.499  11.026  2.4474 -1.2150  3.0778
18866TIP3    H278014   5.102   2.574  10.923 -2.3687 -0.3656 -0.4436
18867TIP3   OH278015   2.878   3.104   2.027  0.3015  0.2118  0.2459
18867TIP3    H178016   2.971   3.112   2.048  0.5184 -0.8520 -0.2589
18867TIP3    H278017   2.865   3.011   2.011 -0.0373  0.7719 -3.4050
18868TIP3   OH278018   3.701   4.419   5.794 -0.2849  0.5195  0.2031
18868TIP3    H178019   3.668   4.334   5.764  1.7215 -0.9063  1.7863
18868TIP3    H278020   3.769   4.398   5.857  0.0316  3.3471  0.9570
18869TIP3   OH278021   5.968   6.507  10.291 -0.1235 -0.2409  0.0463
18869TIP3    H178022   5.909   6.486  10.364 -0.9049  0.3595 -0.4026
18869TIP3    H278023   5.997   6.422  10.259  0.8074 -0.5187  1.4997
18870TIP3   OH278024   4.517   3.290  15.834  0.0666  0.1496 -0.5550
18870TIP3    H178025   4.584   3.254  15.892 -0.0313  1.0263  0.1165
18870TIP3    H278026   4.563   3.355  15.781 -0.5120  1.9459  1.0174
18871TIP3   OH278027   2.552   4.118  15.288  0.6925  0.3800  0.6527
18871TIP3    H178028   2.464   4.084  15.273 -0.5724  3.8813 -1.2915
18871TIP3    H278029   2.604   4.083  15.215  0.4210 -0.2366  0.7528
18872TIP3   OH278030   1.164   4.328   3.782  0.4060  0.4918  0.1297
18872TIP3    H178031   1.131   4.241   3.803 -1.7854  0.4440 -2.8955
18872TIP3    H278032   1.258   4.315   3.765 -0.1019 -1.5545 -1.4074
18873TIP3   OH278033   1.270   3.888   5.971  0.1438  0.1277  0.3094
18873TIP3    H178034   1.189   3.869   6.019  0.1677 -0.8062 -0.0054
18873TIP3    H278035   1.260   3.980   5.945 -1.3719 -0.2787 -0.7323
18874TIP3   OH278036   2.053   6.071  16.828 -0.0476 -0.0727 -0.6011
18874TIP3    H178037   2.061   6.159  16.792  0.4745 -0.3060 -1.0542
18874TIP3    H278038   2.022   6.085  16.918  0.7578  0.6090 -0.4188
18875TIP3   OH278039   4.359   6.507   4.450 -0.5687 -0.1171  0.0740
18875TIP3    H178040   4.324   6.433   4.400 -1.2946  1.1439 -1.3861
18875TIP3    H278041   4.399   6.563   4.384 -0.8965  1.2656  1.0055
18876TIP3   OH278042   6.139   2.885  14.027  0.2019 -0.0550  0.1199
18876TIP3    H178043   6.150   2.873  14.121  0.3496  0.3768  0.1575
18876TIP3    H278044   6.195   2.818  13.988  0.2295 -0.1587  0.3388
18877TIP3   OH278045   0.352   1.614  11.253  0.4680  0.1888 -0.4127
18877TIP3    H178046   0.402   1.540  11.218 -0.3857 -0.2141 -0.7906
18877TIP3    H278047   0.311   1.654  11.176 -0.4103  0.0532 -0.0200
18878TIP3   OH278048   6.009   6.756  15.743 -0.9363 -0.0972  0.4442
18878TIP3    H178049   5.989   6.847  15.764  0.5101  0.0363  1.3258
18878TIP3    H278050   5.937   6.729  15.686 -1.7713  1.3664  0.7494
18879TIP3   OH278051   4.855   1.146  14.431  0.1174  0.1687  0.4626
18879TIP3    H178052   4.848   1.081  14.500  0.7423 -2.6508 -1.9122
18879TIP3    H278053   4.774   1.136  14.380  0.1239  1.4542  0.1532
18880TIP3   OH278054   4.709   2.961  14.954 -0.1415 -0.0017  0.0445
18880TIP3    H178055   4.702   2.874  14.993 -1.0605 -0.8912 -1.9365
18880TIP3    H278056   4.730   3.018  15.027 -1.1662 -1.6307  1.7207
18881TIP3   OH278057   2.918   2.724  12.770  0.1527  0.2077 -0.1972
18881TIP3    H178058   2.891   2.743  12.860  1.3327  0.9176  0.0339
18881TIP3    H278059   3.009   2.755  12.766  1.2477 -2.7358 -0.6910
18882TIP3   OH278060   6.596   0.407   4.855 -0.2912  0.0756  0.2733
18882TIP3    H178061   6.657   0.388   4.927  0.0807  0.2676  0.0129
18882TIP3    H278062   6.510   0.381   4.889  0.1772 -2.0399 -0.0563
18883TIP3   OH278063   6.440   6.451   4.485  0.0587  0.3087  0.2547
18883TIP3    H178064   6.486   6.399   4.419 -0.9191 -0.5643  0.2254
18883TIP3    H278065   6.475   6.539   4.475 -1.1219  0.6003 -2.5171
18884TIP3   OH278066   3.863   2.773  14.851  0.1807 -0.3818  0.4236
18884TIP3    H178067   3.889   2.797  14.940  2.3094  1.9074 -0.6718
18884TIP3    H278068   3.937   2.721  14.818  0.7710  1.1696 -0.8453
18885TIP3   OH278069   4.357   0.597  12.182  0.0329 -0.1224 -0.0344
18885TIP3    H178070   4.286   0.535  12.165 -0.1362  0.1627 -0.3844
18885TIP3    H278071   4.350   0.661  12.111  1.8998 -1.1954 -1.2630
18886TIP3   OH278072   1.460   3.020  11.921 -0.4519 -0.4108 -0.1840
18886TIP3    H178073   1.418   3.015  11.835 -0.1276 -0.1463 -0.3597
18886TIP3    H278074   1.506   2.937  11.930  0.6190  0.0913 -0.8478
18887TIP3   OH278075   0.174   2.970   3.754 -0.1370 -0.2288  0.0744
18887TIP3    H178076   0.197   2.932   3.839 -3.8133  1.2526  1.9678
18887TIP3    H278077   0.235   3.043   3.743  0.0081 -0.0501  1.7969
18888TIP3   OH278078   0.934   3.017   6.100  0.1435 -0.0465  0.2527
18888TIP3    H178079   1.022   2.993   6.071  0.5937  0.0088  1.4881
18888TIP3    H278080   0.914   2.955   6.171 -0.5903  0.2771  0.3411
18889TIP3   OH278081   4.012   4.902   0.959  0.5522 -0.3818 -0.1184
18889TIP3    H178082   3.974   4.981   0.997  0.3371 -0.6947  0.3251
18889TIP3    H278083   3.939   4.839   0.958  0.6802 -0.5277 -0.6097
18890TIP3   OH278084   0.181   1.650  11.472  0.1038  0.3407  0.0503
18890TIP3    H178085   0.239   1.646  11.396 -1.5510  1.7617 -1.4061
18890TIP3    H278086   0.107   1.594  11.449 -0.6579  1.1913  0.3420
18891TIP3   OH278087   4.411   2.375   6.574 -0.4739  0.3519  0.4884
18891TIP3    H178088   4.502   2.345   6.582 -0.8662 -0.6391  1.5190
18891TIP3    H278089   4.381   2.339   6.490 -0.4584 -0.8993  0.9961
18892TIP3   OH278090   3.844   3.759  13.005  0.0314  0.6430  0.0966
18892TIP3    H178091   3.776   3.694  12.987 -0.9726  0.9277  2.5253
18892TIP3    H278092   3.807   3.842  12.974 -0.4329  0.6792  0.7344
18893TIP3   OH278093   2.180   5.410  14.341 -0.0150  0.1074  0.4705
18893TIP3    H178094   2.105   5.449  14.385 -0.7029 -0.2737 -0.3383
18893TIP3    H278095   2.180   5.319  14.371  1.1551  0.4967  1.7854
18894TIP3   OH278096   1.132   3.273   5.631 -0.1441 -0.3124 -0.0448
18894TIP3    H178097   1.195   3.203   5.646  1.2361  0.5537 -1.5701
18894TIP3    H278098   1.182   3.354   5.637 -0.9709  0.3848 -1.7872
18895TIP3   OH278099   0.326   4.600   2.831 -0.0556 -0.1720 -0.1839
18895TIP3    H178100   0.318   4.551   2.749  0.0510  0.0848 -0.3458
18895TIP3    H278101   0.350   4.534   2.896  1.0951 -0.1700 -0.5945
18896TIP3   OH278102   5.755   4.018  11.129 -0.4837 -1.0187 -0.0077
18896TIP3    H178103   5.686   3.986  11.071  1.2427 -0.5191 -2.4768
18896TIP3    H278104   5.746   4.114  11.126 -0.6406 -0.9956  0.9272
18897TIP3   OH278105   5.732   1.306  11.583  0.5021 -0.1059 -0.3627
18897TIP3    H178106   5.789   1.372  11.542  0.1537  0.7567  0.5013
18897TIP3    H278107   5.735   1.232  11.523  1.3870  0.4655 -1.0625
18898TIP3   OH278108   6.442   6.460   3.848 -0.3262  0.2370 -0.3256
18898TIP3    H178109   6.488   6.406   3.913 -0.3645 -1.0437 -1.3443
18898TIP3    H278110   6.364   6.410   3.825  0.4589 -0.0853 -2.4954
18899TIP3   OH278111   0.939   0.272  16.409  0.0585  0.6209 -0.0536
18899TIP3    H178112   0.997   0.256  16.483 -0.0175 -1.8151 -0.4330
18899TIP3    H278113   0.853   0.289  16.449 -0.1324 -1.3470  0.4658
18900TIP3   OH278114   2.503   3.150  16.148  0.1404  0.1539  0.3965
18900TIP3    H178115   2.436   3.164  16.215  0.1328  0.6664  0.2835
18900TIP3    H278116   2.555   3.076  16.181  1.6099  1.8470  2.1361
18901TIP3   OH278117   0.710   6.377  14.142 -0.6292  0.0838  0.2144
18901TIP3    H178118   0.701   6.299  14.197 -0.1856  0.3414  0.6659
18901TIP3    H278119   0.791   6.362  14.093  0.0283  0.7176  1.0784
18902TIP3   OH278120   5.440   2.529   3.461 -0.0544 -0.2786 -0.3187
18902TIP3    H178121   5.433   2.473   3.384  1.0445  1.1546 -1.5413
18902TIP3    H278122   5.452   2.469   3.534 -0.9882 -1.6810 -1.2627
18903TIP3   OH278123   2.096   1.854   0.279 -0.5408  0.1346  0.4847
18903TIP3    H178124   2.128   1.764   0.286  0.6967  0.6104  1.2521
18903TIP3    H278125   2.166   1.908   0.317 -2.1721  1.2402  2.0703
18904TIP3   OH278126   5.218   5.732  10.693 -0.3952 -0.0539 -0.2159
18904TIP3    H178127   5.228   5.787  10.616  2.6941 -2.1706 -1.5443
18904TIP3    H278128   5.126   5.707  10.694 -0.8201  1.2325 -2.3609
18905TIP3   OH278129   2.500   1.601   0.185  0.3836 -0.2993 -0.0671
18905TIP3    H178130   2.557   1.614   0.109 -0.8602 -3.7429 -1.8060
18905TIP3    H278131   2.550   1.543   0.243 -0.2784 -1.1415 -0.3219
18906TIP3   OH278132   4.620   6.130  10.664 -0.0770  0.1014  0.1211
18906TIP3    H178133   4.640   6.156  10.574 -1.0639 -0.8125 -0.3792
18906TIP3    H278134   4.704   6.135  10.710  0.3741  0.8972 -0.7549
18907TIP3   OH278135   3.188   5.288  11.104  0.1529 -0.5652 -0.4447
18907TIP3    H178136   3.149   5.325  11.183  0.8702 -0.8051  0.0342
18907TIP3    H278137   3.171   5.194  11.111  0.9906 -0.6961 -0.1290
18908TIP3   OH278138   5.258   2.097   0.857  0.8181 -0.6972  0.3029
18908TIP3    H178139   5.232   2.022   0.910  0.2944 -1.1967 -0.6306
18908TIP3    H278140   5.179   2.150   0.849  0.8397 -0.7287 -0.1418
18909TIP3   OH278141   3.319   2.988  16.108 -0.3626  0.1039  0.9127
18909TIP3    H178142   3.324   2.902  16.067 -1.9858  0.2481  0.3655
18909TIP3    H278143   3.226   3.000  16.127 -0.3022  2.1723  0.0583
18910TIP3   OH278144   4.595   6.314  13.620 -0.5164 -0.1285 -0.0180
18910TIP3    H178145   4.611   6.284  13.709  0.1037  0.7242  0.1638
18910TIP3    H278146   4.574   6.407  13.628 -0.6348 -0.0828 -0.7460
18911TIP3   OH278147   2.869   3.266   1.264 -0.1619  0.5969 -0.1978
18911TIP3    H178148   2.841   3.258   1.355  0.2451 -0.8390 -0.1804
18911TIP3    H278149   2.902   3.355   1.257  0.9852  0.3356  1.4015
18912TIP3   OH278150   4.792   3.556  14.541 -0.4700  0.2189 -0.1904
18912TIP3    H178151   4.844   3.519  14.469  0.3254  0.6513  0.1513
18912TIP3    H278152   4.804   3.651  14.532 -0.8454  0.2994  0.1570
18913TIP3   OH278153   3.617   3.581   6.334  0.3770 -0.4784 -0.4410
18913TIP3    H178154   3.699   3.559   6.378  0.4787 -0.1120 -0.4433
18913TIP3    H278155   3.550   3.534   6.382  0.5713 -0.6528 -0.3404
18914TIP3   OH278156   0.625   2.619  11.277 -0.0988 -0.3581 -0.2605
18914TIP3    H178157   0.565   2.669  11.333  0.8091  1.7806 -1.0646
18914TIP3    H278158   0.709   2.625  11.322  0.6739  1.4969 -1.7881
18915TIP3   OH278159   2.895   0.947   0.440 -0.2032  0.0027 -0.4608
18915TIP3    H178160   2.872   0.880   0.375  0.0452 -1.1062  0.5494
18915TIP3    H278161   2.980   0.919   0.474 -0.1046  0.8336  0.0030
18916TIP3   OH278162   5.784   3.616   5.721 -0.8227 -0.3895 -0.0442
18916TIP3    H178163   5.740   3.631   5.805  1.1118 -0.2053  1.0028
18916TIP3    H278164   5.830   3.698   5.704 -1.0026 -0.5130 -1.1868
18917TIP3   OH278165   3.447   3.442   1.988 -0.0028 -0.3896  0.2176
18917TIP3    H178166   3.377   3.459   1.925 -0.2473 -0.6582  0.4162
18917TIP3    H278167   3.475   3.529   2.016  1.3209 -0.1924 -1.5698
18918TIP3   OH278168   2.513   6.553   3.107  0.5425  0.2270  0.6375
18918TIP3    H178169   2.550   6.635   3.138  0.3192  0.5956 -0.0556
18918TIP3    H278170   2.579   6.518   3.047 -0.0652  0.7324 -0.3597
18919TIP3   OH278171   5.009   2.774   1.194  0.1653  0.3945  0.1228
18919TIP3    H178172   4.921   2.811   1.206 -0.4885 -0.6994 -1.0208
18919TIP3    H278173   5.010   2.695   1.248  1.0783  1.2973  1.4855
18920TIP3   OH278174   6.551   2.923   1.778  0.1110  0.0002  0.0767
18920TIP3    H178175   6.551   2.887   1.867 -3.0054  1.4599  0.8002
18920TIP3    H278176   6.554   3.018   1.790 -1.0570  0.2494 -1.3059
18921TIP3   OH278177   5.347   2.297  12.875 -0.3532  0.1306  0.1313
18921TIP3    H178178   5.375   2.242  12.802 -1.0672  0.3602 -0.3214
18921TIP3    H278179   5.259   2.326  12.851 -0.6242  0.1588  1.1116
18922TIP3   OH278180   0.511   4.072   5.454  0.3144  0.1700 -0.1805
18922TIP3    H178181   0.485   4.025   5.533  2.2569 -1.7908 -0.6038
18922TIP3    H278182   0.543   4.157   5.486  1.6252 -0.8147  1.2686
18923TIP3   OH278183   5.473   0.386   0.371  0.1688 -0.0398  0.7268
18923TIP3    H178184   5.559   0.421   0.348  1.1475 -2.3822  0.5267
18923TIP3    H278185   5.476   0.377   0.467 -0.0814  0.3850  0.7781
18924TIP3   OH278186   1.347   5.250   3.046  0.4846  0.5327 -0.3311
18924TIP3    H178187   1.296   5.187   2.996 -0.1457  0.9300 -0.2030
18924TIP3    H278188   1.364   5.206   3.130  1.6098 -0.1636 -0.8965
18925TIP3   OH278189   0.856   4.065  11.430  0.4247  0.1188 -0.2681
18925TIP3    H178190   0.950   4.047  11.432  0.2879 -0.5855  0.3461
18925TIP3    H278191   0.828   4.058  11.521  0.0309  1.8135 -0.2292
18926TIP3   OH278192   5.548   1.721  17.083 -0.3015 -1.1787  0.0080
18926TIP3    H178193   5.513   1.802  17.121 -1.9057 -2.0816  0.5740
18926TIP3    H278194   5.599   1.681  17.153  1.1316 -0.3236 -0.5117
18927TIP3   OH278195   3.666   6.606  12.322 -0.7920  0.0614  0.1515
18927TIP3    H178196   3.597   6.554  12.363 -0.9974  0.0320 -0.2246
18927TIP3    H278197   3.741   6.546  12.318 -1.4781 -0.7380 -1.6599
18928TIP3   OH278198   0.466   2.847  12.742 -0.3371 -0.7908  0.1060
18928TIP3    H178199   0.394   2.784  12.747 -2.1654  0.9961 -1.7949
18928TIP3    H278200   0.518   2.817  12.668 -0.0869 -1.1274  0.4144
18929TIP3   OH278201   1.071   0.090  12.417  0.0147 -0.5527  0.1901
18929TIP3    H178202   1.104   0.158  12.359 -2.0099  0.7905  0.4983
18929TIP3    H278203   1.101   0.115  12.504  0.7847 -1.0875  0.0918
18930TIP3   OH278204   1.318   1.881   5.828  0.4254  0.2563 -0.4733
18930TIP3    H178205   1.264   1.836   5.763  0.9467  0.7247 -1.2395
18930TIP3    H278206   1.391   1.918   5.778  1.7475 -0.7696  0.5905
18931TIP3   OH278207   1.334   1.244  16.366  0.0916  0.1590  0.0586
18931TIP3    H178208   1.273   1.300  16.319 -2.2950 -0.4957  2.1436
18931TIP3    H278209   1.333   1.161  16.317  0.5715  0.6583 -0.8150
18932TIP3   OH278210   0.866   1.577  12.376  0.2837  0.1254  0.1397
18932TIP3    H178211   0.820   1.502  12.414  0.2468 -0.2004 -0.5362
18932TIP3    H278212   0.958   1.551  12.373  0.1301 -0.3661 -1.1439
18933TIP3   OH278213   3.717   0.687   0.326 -0.1943 -0.0578  0.3119
18933TIP3    H178214   3.753   0.646   0.248  2.5799  0.7458  1.0467
18933TIP3    H278215   3.665   0.761   0.294 -1.2988 -1.2624 -0.8012
18934TIP3   OH278216   3.708   5.104  10.809  0.1690 -0.3427 -0.8119
18934TIP3    H178217   3.791   5.103  10.856 -0.9851  0.6724  1.3919
18934TIP3    H278218   3.660   5.028  10.844 -1.5676  1.6636  1.4820
18935TIP3   OH278219   3.848   5.230   6.523  0.7027 -0.1128 -0.2315
18935TIP3    H178220   3.878   5.144   6.550  0.0512 -0.2522  0.0747
18935TIP3    H278221   3.871   5.288   6.596 -0.5859 -0.3931  0.4302
18936TIP3   OH278222   0.658   0.846  15.234  0.6905  0.0778  0.0332
18936TIP3    H178223   0.624   0.935  15.225 -0.1805 -0.3259 -0.9853
18936TIP3    H278224   0.589   0.791  15.197  1.8055 -0.9017 -0.6591
18937TIP3   OH278225   5.137   3.600  12.280  0.1972 -0.2227  0.1581
18937TIP3    H178226   5.218   3.624  12.325  0.6239 -1.2043 -0.0668
18937TIP3    H278227   5.094   3.684  12.264  1.1549  0.3213  0.3057
18938TIP3   OH278228   0.724   0.336   5.459 -0.5019 -0.1951 -0.3975
18938TIP3    H178229   0.812   0.366   5.479 -0.8294  1.2258 -0.9834
18938TIP3    H278230   0.667   0.412   5.474 -1.9025 -1.5484  1.6416
18939TIP3   OH278231   3.800   5.980  16.445  0.1138 -0.0483  0.0310
18939TIP3    H178232   3.742   6.016  16.512  0.6669  0.8641  0.0343
18939TIP3    H278233   3.791   5.885  16.454 -3.3751 -0.0334 -1.6883
18940TIP3   OH278234   4.552   2.119  13.372 -0.1111  0.4777  0.3558
18940TIP3    H178235   4.558   2.122  13.467  0.6286  1.5875  0.2940
18940TIP3    H278236   4.638   2.147  13.341 -1.0095  2.3311 -0.6276
18941TIP3   OH278237   1.960   1.529  15.896 -0.1467  0.2485 -0.1414
18941TIP3    H178238   2.037   1.530  15.954 -1.1291 -2.1258  1.3378
18941TIP3    H278239   1.894   1.580  15.943 -0.2892  0.0590 -0.1340
18942TIP3   OH278240   3.353   1.453   5.476 -0.8922 -0.0245  0.0315
18942TIP3    H178241   3.412   1.407   5.536  0.8639  2.7802  0.6533
18942TIP3    H278242   3.313   1.521   5.529 -3.4614 -0.7782 -0.8222
18943TIP3   OH278243   1.162   3.677  15.855  0.1587 -0.2796  0.1092
18943TIP3    H178244   1.151   3.731  15.934  0.8344 -0.1180  0.0958
18943TIP3    H278245   1.139   3.735  15.783 -0.1388 -0.3276  0.1651
18944TIP3   OH278246   2.930   0.303   2.735 -0.2008 -0.1843  0.1235
18944TIP3    H178247   2.891   0.315   2.821  2.8341  0.4175  1.5283
18944TIP3    H278248   2.932   0.391   2.697 -2.5907 -0.5947 -1.1834
18945TIP3   OH278249   4.461   2.183   5.218  0.2016  0.5046 -0.0773
18945TIP3    H178250   4.497   2.106   5.175  0.5048  0.5953  0.0145
18945TIP3    H278251   4.521   2.200   5.290  0.9141  1.6563 -0.9243
18946TIP3   OH278252   5.699   0.513   2.455  0.0317  0.4811 -0.5364
18946TIP3    H178253   5.627   0.531   2.395 -0.3192 -1.5410 -0.8052
18946TIP3    H278254   5.683   0.571   2.530 -1.6092  0.4325 -0.8030
18947TIP3   OH278255   0.754   4.177  12.113  0.1230 -0.4034 -0.0994
18947TIP3    H178256   0.662   4.175  12.086 -0.2004  1.4667  0.7580
18947TIP3    H278257   0.779   4.084  12.116 -1.0382 -0.9058 -2.5522
18948TIP3   OH278258   5.554   2.421  13.916 -0.0842 -0.4590  0.1827
18948TIP3    H178259   5.566   2.370  13.996  0.1036  0.6785  0.9024
18948TIP3    H278260   5.581   2.362  13.846  0.8501 -1.0903  1.0427
18949TIP3   OH278261   2.435   0.667  12.456 -0.0134  0.3205  0.3181
18949TIP3    H178262   2.401   0.620  12.532 -1.4585 -0.4154 -0.7370
18949TIP3    H278263   2.523   0.693  12.482 -0.6732  0.6349  2.4635
18950TIP3   OH278264   0.385   4.165  13.269  0.1200 -0.1317 -0.4120
18950TIP3    H178265   0.422   4.250  13.290  1.8754 -0.6322 -1.3432
18950TIP3    H278266   0.449   4.124  13.211 -1.7961 -1.1332 -1.9492
18951TIP3   OH278267   3.228   1.851  16.772 -0.6443 -0.3120  0.0931
18951TIP3    H178268   3.255   1.873  16.861 -0.2823  0.0906 -0.1109
18951TIP3    H278269   3.199   1.934  16.735  1.6626  0.0900 -1.0085
18952TIP3   OH278270   5.389   4.461   6.024 -0.7145 -0.5725 -0.2685
18952TIP3    H178271   5.416   4.476   5.933 -0.7201  0.4601 -0.1075
18952TIP3    H278272   5.472   4.449   6.071 -0.7345 -1.7837 -0.5077
18953TIP3   OH278273   6.588   5.736   6.348 -0.5755  0.1022  0.1484
18953TIP3    H178274   6.631   5.721   6.264 -1.1324 -0.1583 -0.0920
18953TIP3    H278275   6.652   5.706   6.413  1.1244  3.0254  0.0224
18954TIP3   OH278276   3.521   5.402  15.150  0.0088 -0.4931  0.3852
18954TIP3    H178277   3.541   5.467  15.083  1.4993 -1.7875 -0.5168
18954TIP3    H278278   3.555   5.439  15.231  0.9153 -0.1769 -0.1267
18955TIP3   OH278279   4.810   3.746  12.019  0.4710 -0.8595 -0.4245
18955TIP3    H178280   4.833   3.669  12.071 -0.3192 -0.9538 -0.2060
18955TIP3    H278281   4.715   3.747  12.019  0.4743  0.0000 -0.6067
18956TIP3   OH278282   6.685   3.063   2.167  0.5283 -0.2752 -0.1105
18956TIP3    H178283   6.753   3.053   2.101  0.0666 -1.5949 -0.4229
18956TIP3    H278284   6.732   3.069   2.250  1.0492 -0.8463 -0.3538
18957TIP3   OH278285   5.553   1.312   0.556 -0.8672 -0.0676  0.1063
18957TIP3    H178286   5.610   1.387   0.538 -1.0754 -0.1901 -1.1583
18957TIP3    H278287   5.464   1.348   0.548 -0.9743 -0.1698  0.7725
18958TIP3   OH278288   3.977   2.474   1.904 -0.1170  0.1388  0.0614
18958TIP3    H178289   4.013   2.443   1.821  2.4757  0.5624  0.9362
18958TIP3    H278290   3.928   2.553   1.881  0.8930  0.4716 -1.0476
18959TIP3   OH278291   4.765   4.190  11.977 -0.0381  0.3287 -0.1117
18959TIP3    H178292   4.809   4.187  11.892  1.8504  0.7484  0.7968
18959TIP3    H278293   4.688   4.245  11.962  0.2460  0.3761 -1.5458
18960TIP3   OH278294   5.712   0.537   0.779  0.0931 -0.1984 -0.6303
18960TIP3    H178295   5.805   0.515   0.784 -0.0273 -1.1632 -2.1799
18960TIP3    H278296   5.703   0.589   0.700 -0.6171  0.3177 -0.2268
18961TIP3   OH278297   1.842   1.225  12.859  0.2351 -0.2711  0.1735
18961TIP3    H178298   1.917   1.275  12.891  0.5934 -0.6877  0.0003
18961TIP3    H278299   1.880   1.162  12.797 -0.0534 -1.4553  1.1547
18962TIP3   OH278300   6.365   0.059   3.656 -0.0738  0.6005  0.6899
18962TIP3    H178301   6.400   0.129   3.711 -1.6977  0.9785  1.3076
18962TIP3    H278302   6.348   0.100   3.571 -0.6709  0.8850  0.9385
18963TIP3   OH278303   1.628   3.577  12.701  0.3364 -0.7716 -0.2598
18963TIP3    H178304   1.579   3.586  12.619 -1.5803 -1.2469  0.7801
18963TIP3    H278305   1.628   3.483  12.719 -1.4681 -0.5009  1.4982
18964TIP3   OH278306   0.369   0.574  15.726  0.3454  0.1281  0.2664
18964TIP3    H178307   0.404   0.592  15.813 -0.6851  0.8738  0.5346
18964TIP3    H278308   0.291   0.629  15.718  1.2697  1.2801 -1.7199
18965TIP3   OH278309   1.820   0.724  11.613  0.1992 -0.2245 -0.2679
18965TIP3    H178310   1.775   0.662  11.555 -0.1965  0.1276 -0.3386
18965TIP3    H278311   1.768   0.722  11.693  2.0736 -2.5362  1.0210
18966TIP3   OH278312   1.164   0.831   0.735  0.3327  0.4093  0.3901
18966TIP3    H178313   1.189   0.741   0.758  0.9051  0.4001 -0.2159
18966TIP3    H278314   1.181   0.836   0.641 -0.4152  0.9272  0.2758
18967TIP3   OH278315   0.296   0.181   3.853 -0.2723 -0.0551  0.5550
18967TIP3    H178316   0.353   0.257   3.863  0.9081 -1.2047  3.3432
18967TIP3    H278317   0.350   0.115   3.811 -1.4420  0.6220 -2.3355
18968TIP3   OH278318   1.150   1.235  16.557 -0.4823  0.2127  0.0313
18968TIP3    H178319   1.196   1.236  16.473  1.4374  0.4362  1.0359
18968TIP3    H278320   1.063   1.270  16.537  0.7205  2.5737 -1.4243
18969TIP3   OH278321   2.295   1.524   1.851 -0.1907 -0.6741 -0.3137
18969TIP3    H178322   2.222   1.584   1.867  0.7911 -0.0942  2.4635
18969TIP3    H278323   2.269   1.443   1.895  0.4191 -0.7983 -0.1833
18970TIP3   OH278324   6.475   5.972   6.133 -0.6566  0.0072  0.0567
18970TIP3    H178325   6.470   6.068   6.134  1.4461  0.2615 -2.6161
18970TIP3    H278326   6.567   5.954   6.116 -0.9634 -2.5390  0.7723
18971TIP3   OH278327   2.534   0.249  11.336 -0.3274  0.1054  0.7200
18971TIP3    H178328   2.444   0.227  11.312 -0.1747 -0.0573  0.2848
18971TIP3    H278329   2.559   0.317  11.273  1.1405 -2.4600 -1.7026
18972TIP3   OH278330   0.896   1.060   4.690 -0.0045  0.6110 -0.1584
18972TIP3    H178331   0.809   1.058   4.728 -0.5578 -1.8290 -1.3365
18972TIP3    H278332   0.951   1.011   4.752  0.2659  1.0792 -0.0211
18973TIP3   OH278333   6.408   5.111  12.288  0.0739 -0.3538  0.1668
18973TIP3    H178334   6.314   5.126  12.287  0.0576 -0.3457  1.0797
18973TIP3    H278335   6.445   5.189  12.330  0.6561  0.4088 -1.6629
18974TIP3   OH278336   1.539   4.512  13.943  0.0863 -0.3576 -0.2350
18974TIP3    H178337   1.633   4.494  13.940  0.5371  1.6585  0.3486
18974TIP3    H278338   1.498   4.425  13.945  1.9594 -1.2777  0.4130
18975TIP3   OH278339   4.688   0.621   4.736 -0.0270 -0.1577 -0.5378
18975TIP3    H178340   4.760   0.683   4.744 -0.7187  0.6765 -0.5812
18975TIP3    H278341   4.654   0.634   4.647  0.4200 -1.2825 -0.8839
18976TIP3   OH278342   4.551   5.111   6.058 -0.4683  0.5342  0.5511
18976TIP3    H178343   4.472   5.118   6.004 -0.4061  0.2253  0.4153
18976TIP3    H278344   4.549   5.188   6.114 -0.3038  1.0958 -0.2032
18977TIP3   OH278345   1.064   3.066  11.724  0.6582  0.1084 -0.1270
18977TIP3    H178346   0.971   3.078  11.746  0.7046  1.9206 -0.7416
18977TIP3    H278347   1.104   3.033  11.805 -0.4076 -0.1209  0.3253
18978TIP3   OH278348   0.230   0.518  16.298  0.7011 -0.1459 -0.2544
18978TIP3    H178349   0.193   0.461  16.365  1.5659 -0.5995 -0.1547
18978TIP3    H278350   0.198   0.606  16.320  0.6703 -0.3478  0.5240
18979TIP3   OH278351   5.434   4.523  14.579  0.2652  0.0452  0.3638
18979TIP3    H178352   5.407   4.590  14.517  1.3838  0.8693  0.7193
18979TIP3    H278353   5.527   4.508  14.559  0.9169  0.9822  2.3582
18980TIP3   OH278354   2.977   4.510  12.078  0.0989 -0.0920  0.0200
18980TIP3    H178355   2.996   4.439  12.017 -1.0196 -0.2416 -0.1739
18980TIP3    H278356   3.046   4.575  12.061  1.8169 -1.5531  0.9795
18981TIP3   OH278357   3.561   3.291   2.437 -0.1284 -0.5819  0.2820
18981TIP3    H178358   3.614   3.211   2.439 -0.7567 -1.0501 -0.5993
18981TIP3    H278359   3.590   3.337   2.358  0.0958 -0.0274  0.6813
18982TIP3   OH278360   2.288   5.343  12.140  0.2312  0.1686 -0.8653
18982TIP3    H178361   2.378   5.318  12.158  0.2051 -0.4563 -1.5357
18982TIP3    H278362   2.292   5.393  12.059  0.1800  1.7250  0.0516
18983TIP3   OH278363   0.790   5.988   1.053  0.0978  0.9030 -0.3723
18983TIP3    H178364   0.872   6.007   1.008 -0.1644  1.1334 -0.7588
18983TIP3    H278365   0.771   5.897   1.033  0.1262  0.9252 -0.4958
18984TIP3   OH278366   2.858   0.277  11.121  0.0122 -0.3546  0.2815
18984TIP3    H178367   2.780   0.248  11.075 -0.6510 -0.3755  1.3849
18984TIP3    H278368   2.903   0.196  11.146 -1.1176 -0.4794  2.1348
18985TIP3   OH278369   3.551   0.147   1.685 -0.2178 -0.2145 -0.2215
18985TIP3    H178370   3.477   0.201   1.657 -1.5127 -0.8328  1.8206
18985TIP3    H278371   3.582   0.188   1.766  2.3720  0.5921 -1.5097
18986TIP3   OH278372   0.180   4.307  11.935  0.2369 -0.5086 -0.5571
18986TIP3    H178373   0.189   4.345  12.023 -2.9556  1.3775 -0.8976
18986TIP3    H278374   0.242   4.356  11.881  1.1795 -0.6793  0.3452
18987TIP3   OH278375   0.296   3.705   4.189 -0.0725  0.3043 -0.3763
18987TIP3    H178376   0.284   3.611   4.175 -0.4819  0.3844 -0.5986
18987TIP3    H278377   0.322   3.739   4.103  1.6822  0.1607  0.0630
18988TIP3   OH278378   4.825   4.812  14.947  0.7600 -0.2687  0.1509
18988TIP3    H178379   4.878   4.734  14.962  1.2727 -0.3010 -1.6260
18988TIP3    H278380   4.749   4.781  14.899  0.8499  0.2677 -0.3609
18989TIP3   OH278381   0.338   5.788  13.568 -0.1448 -0.1531  0.4513
18989TIP3    H178382   0.291   5.837  13.501  0.6820 -0.5920 -0.4699
18989TIP3    H278383   0.278   5.717  13.593  0.1677 -0.9690 -1.0275
18990TIP3   OH278384   6.528   5.550  11.934 -0.0600 -0.1667  0.0900
18990TIP3    H178385   6.598   5.614  11.942  0.4668 -0.5060 -1.4477
18990TIP3    H278386   6.565   5.479  11.881 -1.3616 -0.6481 -0.2253
18991TIP3   OH278387   2.806   0.677  13.255 -0.0370  0.8579  0.3952
18991TIP3    H178388   2.879   0.696  13.313 -0.3527  0.1430  1.0418
18991TIP3    H278389   2.846   0.655  13.171  0.4816  0.5332  0.7295
18992TIP3   OH278390   1.941   5.910  13.755 -0.2103 -0.1595  0.2577
18992TIP3    H178391   1.929   5.916  13.849 -0.8507 -1.3832  0.2746
18992TIP3    H278392   2.033   5.932  13.741 -0.1292  0.1024  1.1547
18993TIP3   OH278393   4.137   4.021   1.003  0.2747  0.2951  0.2721
18993TIP3    H178394   4.084   4.001   1.080  0.5413  1.4559  0.7835
18993TIP3    H278395   4.214   4.066   1.038  1.1552 -0.5286 -0.5443
18994TIP3   OH278396   4.432   0.809   2.138 -0.3045 -0.5198  0.2273
18994TIP3    H178397   4.499   0.792   2.072 -0.1801  2.8164 -0.6859
18994TIP3    H278398   4.475   0.788   2.221  0.2376 -2.7819 -0.5513
18995TIP3   OH278399   5.304   0.001  11.764  0.2909  0.6878 -0.7430
18995TIP3    H178400   5.316   0.059  11.689  1.9210  3.3619  1.4122
18995TIP3    H278401   5.316  -0.087  11.728 -0.1295  1.7617 -3.7837
18996TIP3   OH278402   4.190   6.328   2.735  0.2156 -0.1089 -0.0385
18996TIP3    H178403   4.213   6.418   2.758 -0.9989  0.5837 -1.3414
18996TIP3    H278404   4.094   6.327   2.735  0.1948 -1.7687  1.2097
18997TIP3   OH278405   2.834   5.106   3.137 -0.0275  0.1288 -0.0360
18997TIP3    H178406   2.819   5.014   3.156 -1.8956  0.4139  0.0649
18997TIP3    H278407   2.920   5.108   3.094  0.0233 -1.6469 -0.0905
18998TIP3   OH278408   3.615   4.563   3.054 -0.4328  0.1996 -0.2626
18998TIP3    H178409   3.689   4.619   3.077  0.4033 -0.5478 -1.0551
18998TIP3    H278410   3.558   4.567   3.131  0.4874  0.6750  0.4293
18999TIP3   OH278411   4.403   1.159  14.940  0.0720  0.4991  0.5971
18999TIP3    H178412   4.419   1.128  14.851 -0.9210  0.3172  0.4766
18999TIP3    H278413   4.491   1.173  14.976  0.4884  0.3200 -0.3141
19000TIP3   OH278414   1.296   0.743   4.269  0.0721  0.6083 -0.7192
19000TIP3    H178415   1.235   0.802   4.315  0.1066  2.1248 -2.4885
19000TIP3    H278416   1.264   0.742   4.179  1.1517 -0.6901 -1.1123
19001TIP3   OH278417   6.148   1.193   3.184  0.2047 -0.2857 -0.1951
19001TIP3    H178418   6.075   1.134   3.162  0.4870 -0.9180  0.5059
19001TIP3    H278419   6.173   1.167   3.272  2.1902 -1.0455 -0.9175
19002TIP3   OH278420   4.264   2.400   4.421 -0.2172  0.2287 -0.2316
19002TIP3    H178421   4.276   2.491   4.449 -0.6470  0.4036 -0.5874
19002TIP3    H278422   4.193   2.405   4.357  0.7131 -0.1474 -1.3274
19003TIP3   OH278423   4.727   0.947   3.247  0.0909 -0.7098 -0.1690
19003TIP3    H178424   4.698   0.973   3.335 -1.8307  0.4855 -1.0839
19003TIP3    H278425   4.701   1.020   3.191 -0.1688 -2.1224 -1.9818
19004TIP3   OH278426   6.560   5.649  16.363  0.6151  0.0933 -0.3227
19004TIP3    H178427   6.558   5.725  16.422  1.0866  0.2589 -0.5053
19004TIP3    H278428   6.653   5.631  16.352  0.5454  0.2744 -1.2742
19005TIP3   OH278429   1.237   4.315   2.497 -0.6133 -0.0877  0.3695
19005TIP3    H178430   1.264   4.366   2.574 -1.2093  0.3730  0.2746
19005TIP3    H278431   1.142   4.315   2.500 -0.6976  0.9622 -1.0236
19006TIP3   OH278432   1.155   0.718   2.069 -0.1165  0.6182  0.3553
19006TIP3    H178433   1.069   0.759   2.058 -0.7455  0.3427  3.4727
19006TIP3    H278434   1.140   0.625   2.050 -0.8709  0.3497  2.0722
19007TIP3   OH278435   5.254   3.646  13.524 -0.0259  0.0201 -0.3614
19007TIP3    H178436   5.199   3.652  13.601 -0.2456  2.0171 -0.6102
19007TIP3    H278437   5.203   3.596  13.461  0.1130 -1.5278  0.7172
19008TIP3   OH278438   5.366   5.584   6.041 -0.1790 -0.2967 -0.4620
19008TIP3    H178439   5.276   5.565   6.066 -0.1587 -0.6001 -0.6137
19008TIP3    H278440   5.401   5.500   6.011  0.6566 -0.5541  1.1342
19009TIP3   OH278441   2.559   3.492   3.020 -0.5168 -0.1028  0.2174
19009TIP3    H178442   2.486   3.479   3.081  0.7118  0.2675  1.8264
19009TIP3    H278443   2.606   3.567   3.056 -0.1200  0.5531 -1.5916
19010TIP3   OH278444   4.140   4.878   3.672  0.3307 -0.3868  0.5969
19010TIP3    H178445   4.199   4.879   3.748  0.4002  0.5505  0.5387
19010TIP3    H278446   4.147   4.966   3.635 -1.2857 -0.1920  0.7109
19011TIP3   OH278447   2.112   6.296  12.332 -0.0859  0.2079  0.7923
19011TIP3    H178448   2.146   6.375  12.375  0.9175 -1.3726  3.0968
19011TIP3    H278449   2.087   6.238  12.403 -1.4057 -1.3491 -0.8383
19012TIP3   OH278450   4.603   2.544  16.226 -0.6881 -0.0348 -0.0995
19012TIP3    H178451   4.603   2.529  16.131  3.2663  0.0688 -0.2938
19012TIP3    H278452   4.604   2.457  16.264 -0.1801 -0.1139 -0.2806
19013TIP3   OH278453   2.283   4.762  12.103 -0.1698 -0.4732  0.0220
19013TIP3    H178454   2.206   4.811  12.076 -0.2823  1.7394  3.6790
19013TIP3    H278455   2.357   4.813  12.070 -0.2855  0.0769  0.6107
19014TIP3   OH278456   2.323   5.799  13.538 -0.0427 -0.1602 -0.0336
19014TIP3    H178457   2.307   5.777  13.629 -0.4139  2.2613  0.5414
19014TIP3    H278458   2.408   5.842  13.538  0.1564 -0.5284 -0.9061
19015TIP3   OH278459   1.006   6.358  13.241  1.0943 -0.3780  0.3108
19015TIP3    H178460   1.054   6.310  13.173 -2.0478 -1.5790 -1.2308
19015TIP3    H278461   0.951   6.420  13.193 -0.5622 -0.6270  1.7837
19016TIP3   OH278462   0.535   5.622  12.140  0.4434  0.2368 -0.3183
19016TIP3    H178463   0.526   5.562  12.066  0.4140 -1.2579  0.8337
19016TIP3    H278464   0.614   5.672  12.120  0.2651  0.0810 -1.4967
19017TIP3   OH278465   3.399   0.950  11.942 -0.3696  0.3791  0.1388
19017TIP3    H178466   3.432   1.028  11.898 -2.6793  0.0538 -2.4563
19017TIP3    H278467   3.477   0.907  11.976  1.3147  2.0759 -1.3332
19018TIP3   OH278468   3.598   3.539  13.786  0.2441 -0.0013  0.3821
19018TIP3    H178469   3.559   3.468  13.737  1.2548 -0.9201  0.8539
19018TIP3    H278470   3.563   3.530  13.875 -0.3502  0.6749  0.2239
19019TIP3   OH278471   0.251   3.346   0.603  0.1956 -0.8526 -0.5651
19019TIP3    H178472   0.309   3.422   0.602  1.1937 -1.5837 -1.9759
19019TIP3    H278473   0.294   3.283   0.661  0.0735 -0.8587 -0.4800
19020TIP3   OH278474   5.215   3.834   6.388 -0.1047 -0.2119 -0.4466
19020TIP3    H178475   5.239   3.918   6.426  2.2079  0.1197 -2.4105
19020TIP3    H278476   5.191   3.780   6.463 -0.4707  1.8074  0.9699
19021TIP3   OH278477   4.309   1.358  13.936 -0.4260  0.0977 -0.2515
19021TIP3    H178478   4.355   1.349  13.853 -0.6528 -2.5585 -0.1821
19021TIP3    H278479   4.278   1.448  13.937 -0.5503  0.1781 -3.1077
19022TIP3   OH278480   5.477   5.146  16.524 -0.1502 -0.0156  0.6221
19022TIP3    H178481   5.426   5.096  16.588 -1.0441 -0.3319 -0.2998
19022TIP3    H278482   5.470   5.237  16.553 -1.6113  0.0027  0.2967
19023TIP3   OH278483   1.315   1.582  15.083  0.4281  0.3222  0.2004
19023TIP3    H178484   1.306   1.579  14.988  0.1764 -1.0941  0.2530
19023TIP3    H278485   1.394   1.532  15.102  0.0498 -0.0762  0.7848
19024TIP3   OH278486   1.893   5.574  12.797 -0.1484 -0.0872 -0.4182
19024TIP3    H178487   1.917   5.483  12.811  1.8169  0.5620  0.7593
19024TIP3    H278488   1.797   5.572  12.787 -0.3656 -2.0608  1.2930
19025TIP3   OH278489   1.464   0.195  16.616  0.2149 -0.4881  0.1620
19025TIP3    H178490   1.446   0.177  16.523  3.9837  0.4048 -0.9396
19025TIP3    H278491   1.515   0.276  16.615  0.9893 -0.8332  2.9365
19026TIP3   OH278492   0.427   4.375  16.618 -0.5850  0.2623 -0.2158
19026TIP3    H178493   0.406   4.458  16.575 -0.3188 -0.4085 -1.7085
19026TIP3    H278494   0.462   4.400  16.704 -0.8757  1.6675 -0.4879
19027TIP3   OH278495   3.401   1.980   3.523  0.0841  0.4673  0.1725
19027TIP3    H178496   3.374   1.891   3.501  0.0869  0.8780 -1.6123
19027TIP3    H278497   3.394   1.984   3.619  1.8692 -2.0091  0.5042
19028TIP3   OH278498   0.402   6.272  12.286 -0.0789  0.0116  0.1203
19028TIP3    H178499   0.388   6.178  12.273  3.2154 -0.4942 -0.6936
19028TIP3    H278500   0.398   6.309  12.198  1.3876  0.0988  0.0546
19029TIP3   OH278501   1.424   5.553   1.533 -0.0775  0.2609 -0.7843
19029TIP3    H178502   1.338   5.595   1.524 -0.4363 -0.3274 -0.2102
19029TIP3    H278503   1.442   5.516   1.447  0.8859  2.7397 -1.7278
19030TIP3   OH278504   4.545   3.995   4.130 -0.2353 -0.2249  0.3796
19030TIP3    H178505   4.488   3.946   4.190 -0.2187 -1.7280 -0.7843
19030TIP3    H278506   4.629   3.951   4.135  0.9118  1.9446  2.0360
19031TIP3   OH278507   0.703   0.300  13.895 -0.0372 -0.0354  0.2161
19031TIP3    H178508   0.626   0.248  13.917  0.7879  0.0695  4.0670
19031TIP3    H278509   0.772   0.235  13.878 -0.6983 -0.1185 -2.6295
19032TIP3   OH278510   5.206   0.215   5.696 -0.3307 -0.3704  0.1522
19032TIP3    H178511   5.113   0.206   5.676 -0.3946  0.5308  0.0249
19032TIP3    H278512   5.209   0.252   5.784 -0.1050  0.4707 -0.2032
19033TIP3   OH278513   3.132   0.256   0.657  0.0533  0.3512  0.4705
19033TIP3    H178514   3.053   0.280   0.609 -0.8899 -1.8569  0.7886
19033TIP3    H278515   3.118   0.292   0.745 -0.2399  0.5967  0.3266
19034TIP3   OH278516   5.554   1.554   4.212 -0.6159  0.0845  0.0201
19034TIP3    H178517   5.480   1.585   4.265 -0.9362 -0.2913 -0.2048
19034TIP3    H278518   5.629   1.559   4.271 -0.0262  4.0264 -0.7458
19035TIP3   OH278519   5.662   4.689  12.923 -0.9677  0.0835  0.3827
19035TIP3    H178520   5.676   4.608  12.973 -1.3959 -0.4530 -0.3500
19035TIP3    H278521   5.747   4.707  12.884 -0.4643  0.8407  1.7611
19036TIP3   OH278522   4.272   0.218  15.794 -0.4135 -0.5478 -0.0050
19036TIP3    H178523   4.186   0.251  15.768  0.4725  1.8169 -0.2128
19036TIP3    H278524   4.258   0.179  15.881 -1.3247  1.8163  0.9880
19037TIP3   OH278525   0.283   3.572   4.898 -0.0240  0.2190 -0.2782
19037TIP3    H178526   0.310   3.652   4.852 -1.4609 -0.0604 -1.6954
19037TIP3    H278527   0.246   3.603   4.980  0.9223  0.8780 -0.0835
19038TIP3   OH278528   5.064   0.429  15.473 -0.6535 -0.5293  0.0234
19038TIP3    H178529   5.012   0.482  15.413 -0.5061  1.4814  1.5672
19038TIP3    H278530   5.134   0.487  15.502  0.2989 -2.0056  0.7888
19039TIP3   OH278531   1.404   4.045   3.576  0.2059 -0.2883 -0.5741
19039TIP3    H178532   1.355   4.055   3.495 -1.2318 -2.4136 -0.0618
19039TIP3    H278533   1.482   3.996   3.551  0.3651  0.1014 -0.8505
19040TIP3   OH278534   1.737   5.831  11.450  0.4678 -0.0024 -0.2406
19040TIP3    H178535   1.752   5.878  11.533  0.9036 -1.2187  0.3986
19040TIP3    H278536   1.648   5.796  11.458  1.0385 -1.3836  0.3928
19041TIP3   OH278537   4.127   0.520  16.462  0.3493  0.2294 -0.2441
19041TIP3    H178538   4.035   0.529  16.487 -0.2530  2.0944 -2.6888
19041TIP3    H278539   4.130   0.439  16.411 -0.7450  1.6590 -2.7954
19042TIP3   OH278540   0.654   4.342  15.734 -0.0247 -0.4727  0.2816
19042TIP3    H178541   0.667   4.345  15.829 -0.4289 -0.3835  0.3366
19042TIP3    H278542   0.576   4.287  15.723 -0.0479 -0.3844  0.0074
19043TIP3   OH278543   1.776   0.738  12.922  0.0627  0.3287  0.5834
19043TIP3    H178544   1.703   0.678  12.940 -0.1409  0.6998  1.0103
19043TIP3    H278545   1.764   0.810  12.984 -0.0986  1.1732 -0.4008
19044TIP3   OH278546   2.518   6.317   1.301  0.2270 -0.5535  0.0533
19044TIP3    H178547   2.552   6.232   1.275  1.2685  0.3329 -1.6269
19044TIP3    H278548   2.546   6.327   1.392 -0.2442 -2.1507  0.3934
19045TIP3   OH278549   4.971   4.872   3.256 -0.5745  0.2779  0.0130
19045TIP3    H178550   4.881   4.844   3.238 -1.0326  2.2677 -0.9778
19045TIP3    H278551   5.022   4.791   3.253 -2.3506 -0.9425  0.9212
19046TIP3   OH278552   0.643   5.049   0.837  0.3087  0.3974 -0.5293
19046TIP3    H178553   0.665   5.074   0.747  1.2405  0.6845 -0.2307
19046TIP3    H278554   0.716   4.993   0.865 -0.9155 -1.3215 -0.6107
19047TIP3   OH278555   2.570   6.145   2.124  0.1511  0.4401 -0.3470
19047TIP3    H178556   2.594   6.200   2.199  0.1998 -0.4653  0.3214
19047TIP3    H278557   2.629   6.069   2.130 -1.0408 -0.5140 -0.2347
19048TIP3   OH278558   3.696   3.977   2.464  0.2281  0.7408  0.1690
19048TIP3    H178559   3.666   4.064   2.490  0.8978  0.9410  0.2822
19048TIP3    H278560   3.733   3.940   2.544 -1.3420 -0.2188  0.4881
19049TIP3   OH278561   3.015   5.288  11.595 -0.0405  0.0222 -0.4098
19049TIP3    H178562   2.967   5.214  11.632  1.1339  0.9078  3.4104
19049TIP3    H278563   3.105   5.258  11.589  0.3093  0.8486  0.4446
19050TIP3   OH278564   3.581   0.557   5.923 -0.1069  0.1749 -0.0665
19050TIP3    H178565   3.553   0.560   5.831  1.7021 -0.2735 -0.6912
19050TIP3    H278566   3.547   0.637   5.961 -3.9146 -1.2189 -0.1271
19051TIP3   OH278567   6.285   6.316  16.810 -0.0957 -0.4089 -0.0848
19051TIP3    H178568   6.279   6.389  16.748 -0.9573  0.3696  0.8827
19051TIP3    H278569   6.242   6.243  16.766 -0.8850  0.1898 -0.3263
19052TIP3   OH278570   5.022   4.916  11.989  0.4371  0.0923  0.0862
19052TIP3    H178571   4.979   4.887  12.070  0.6046 -1.6306 -0.4061
19052TIP3    H278572   5.112   4.935  12.015  1.0349 -2.2909  0.0341
19053TIP3   OH278573   0.688   1.182   1.325 -0.1009  0.4433  0.6823
19053TIP3    H178574   0.723   1.261   1.282 -1.8030  0.8844  0.0237
19053TIP3    H278575   0.733   1.179   1.410 -0.4560  2.4913  0.9874
19054TIP3   OH278576   5.735   1.371  13.657 -0.3982  0.3900  0.1367
19054TIP3    H178577   5.737   1.405  13.747 -0.8484 -1.0800  0.7355
19054TIP3    H278578   5.721   1.277  13.668 -0.5209  0.1984 -1.4875
19055TIP3   OH278579   4.346   6.452  16.595  0.0019 -0.4846 -0.8982
19055TIP3    H178580   4.378   6.489  16.678 -2.9066  2.2363 -0.7703
19055TIP3    H278581   4.368   6.519  16.530 -1.7833 -0.3626 -1.4267
19056TIP3   OH278582   0.187   4.155   3.722  0.1319  0.4517  0.2901
19056TIP3    H178583   0.185   4.197   3.636 -3.6118 -0.5544 -0.3256
19056TIP3    H278584   0.137   4.214   3.778 -0.6495 -0.6071  0.7519
19057TIP3   OH278585   1.362   6.482  15.804  0.0258 -0.0376 -0.0544
19057TIP3    H178586   1.329   6.417  15.866  1.9125 -1.6518 -0.6383
19057TIP3    H278587   1.430   6.528  15.852  0.9405 -0.7479 -0.6423
19058TIP3   OH278588   5.778   5.686  15.070 -0.3566  0.2067  0.0814
19058TIP3    H178589   5.791   5.771  15.028 -4.1617  0.7232 -0.4134
19058TIP3    H278590   5.763   5.626  14.997 -1.4757 -0.0566  0.5090
19059TIP3   OH278591   6.218   0.101   4.506 -0.4194 -0.2080  0.0264
19059TIP3    H178592   6.267   0.180   4.480 -0.0009 -0.1738  0.8725
19059TIP3    H278593   6.202   0.113   4.600 -1.3270 -0.6205 -0.0691
19060TIP3   OH278594   0.041   5.779   3.397 -0.2740  0.2220 -0.2562
19060TIP3    H178595   0.015   5.701   3.349 -0.8255  0.4704 -0.3756
19060TIP3    H278596  -0.039   5.832   3.401 -0.2392  0.2007  0.9450
19061TIP3   OH278597   3.371   3.879   0.793 -0.2229 -0.1659  0.2235
19061TIP3    H178598   3.304   3.941   0.820  0.1476 -0.3609  1.6443
19061TIP3    H278599   3.452   3.930   0.793 -0.4279  0.3030 -2.3379
19062TIP3   OH278600   5.692   1.203   2.903 -0.0127  0.1818  0.0086
19062TIP3    H178601   5.694   1.109   2.885  2.6817 -0.2236  1.7569
19062TIP3    H278602   5.641   1.212   2.983 -0.5448  0.2471 -0.3387
19063TIP3   OH278603   0.586   1.175   4.214  0.1470 -0.4166  0.4904
19063TIP3    H178604   0.494   1.199   4.202  0.6967  2.0404  0.7637
19063TIP3    H278605   0.595   1.092   4.167 -1.5130  0.7874 -2.2085
19064TIP3   OH278606   4.168   0.098   2.638 -0.2135 -0.0079 -0.2121
19064TIP3    H178607   4.152   0.005   2.622 -1.8891 -0.0955  1.5706
19064TIP3    H278608   4.084   0.140   2.622 -0.5343  0.6195  2.5146
19065TIP3   OH278609   2.718   4.815   6.646 -0.0452 -0.4653  0.5328
19065TIP3    H178610   2.802   4.861   6.641  0.2540 -1.0208 -3.9881
19065TIP3    H278611   2.741   4.724   6.664  0.2633 -0.4454  0.2506
19066TIP3   OH278612   0.483   4.321  16.921  0.1820  0.4832  0.2617
19066TIP3    H178613   0.406   4.341  16.972 -0.5840 -0.7720 -0.3530
19066TIP3    H278614   0.468   4.233  16.887  1.4943  0.5422 -0.5772
19067TIP3   OH278615   3.723   2.169  12.424  0.3507  0.2064 -0.0577
19067TIP3    H178616   3.660   2.241  12.420  0.8464  0.6265 -0.5428
19067TIP3    H278617   3.807   2.213  12.441  0.3228 -0.4466  1.9548
19068TIP3   OH278618   1.676   6.287  17.142  0.1900 -0.0403 -0.1664
19068TIP3    H178619   1.700   6.199  17.113 -0.4450 -0.3166  0.1014
19068TIP3    H278620   1.600   6.272  17.200 -0.4919  0.7597 -0.8297
19069TIP3   OH278621   6.174   4.688   2.838 -0.5269 -0.7382  0.1643
19069TIP3    H178622   6.159   4.782   2.837 -1.7573 -0.9200  0.7367
19069TIP3    H278623   6.267   4.679   2.860 -0.4599  0.3293  0.3594
19070TIP3   OH278624   4.703   2.799   2.370 -0.0893 -0.1257  0.0919
19070TIP3    H178625   4.614   2.831   2.386  0.2517  0.0370  1.8014
19070TIP3    H278626   4.760   2.868   2.405  0.6929 -0.7949  0.1564
19071TIP3   OH278627   5.824   4.461   0.204  0.4583 -0.3951  0.3952
19071TIP3    H178628   5.814   4.447   0.298  0.6861 -0.1567  0.4567
19071TIP3    H278629   5.819   4.373   0.166  1.2596 -0.5960  0.7187
19072TIP3   OH278630   3.052   0.104  14.271  0.1469  0.0572  0.1169
19072TIP3    H178631   3.092   0.177  14.224  0.3542 -0.3916 -0.4209
19072TIP3    H278632   2.957   0.120  14.265  0.1518 -0.1853 -0.7951
19073TIP3   OH278633   2.979   1.469  11.253  0.2194 -0.2484  0.0240
19073TIP3    H178634   2.903   1.467  11.194 -0.4639  0.1746  0.8699
19073TIP3    H278635   3.051   1.438  11.199 -0.2069  0.9588 -1.3087
19074TIP3   OH278636   5.636   0.611  12.725  0.5395 -0.0245 -0.2781
19074TIP3    H178637   5.708   0.566  12.770  1.0188 -0.9393 -1.8620
19074TIP3    H278638   5.679   0.677  12.670  0.0371  0.5316 -0.0104
19075TIP3   OH278639   3.539   5.902   4.985 -0.0029  0.5187  0.3878
19075TIP3    H178640   3.547   5.995   5.005 -1.5648  0.8472 -0.3780
19075TIP3    H278641   3.531   5.899   4.889  0.7517 -0.4760  0.3370
19076TIP3   OH278642   3.954   1.676   1.929  0.5195  0.0888  0.4460
19076TIP3    H178643   3.920   1.656   1.842  1.8054 -1.2806  0.2246
19076TIP3    H278644   3.902   1.751   1.958  1.1568  1.6501 -2.1422
19077TIP3   OH278645   5.207   5.758   0.886 -0.6907 -0.6270 -0.7884
19077TIP3    H178646   5.156   5.783   0.963  1.3614  0.4726  0.2946
19077TIP3    H278647   5.192   5.829   0.823  2.6319  2.0029  1.0998
19078TIP3   OH278648   4.414   3.855  11.473 -0.1896 -0.3056  0.2825
19078TIP3    H178649   4.331   3.888  11.506  0.2638 -0.8610  2.0939
19078TIP3    H278650   4.458   3.818  11.550  0.6151 -2.3737 -1.0695
19079TIP3   OH278651   6.481   5.012   5.903 -0.1632 -0.5967  0.2060
19079TIP3    H178652   6.485   5.076   5.974 -0.8298 -0.1733 -0.1388
19079TIP3    H278653   6.419   5.048   5.840  2.2342  0.2689 -1.8220
19080TIP3   OH278654   4.817   5.227   2.761 -0.0961 -0.2820 -0.2388
19080TIP3    H178655   4.852   5.165   2.697 -0.1755 -1.4725  0.8369
19080TIP3    H278656   4.895   5.263   2.804 -0.0955 -0.7165  0.1252
19081TIP3   OH278657   6.246   3.658   4.031 -1.2245  0.2015  0.3816
19081TIP3    H178658   6.156   3.657   4.064 -1.0053 -0.2595  0.9831
19081TIP3    H278659   6.255   3.742   3.987 -2.0685  0.0953 -0.0084
19082TIP3   OH278660   0.694   6.568  13.537  0.1154  0.3823 -0.1289
19082TIP3    H178661   0.785   6.599  13.537  0.5988 -0.9036 -1.3933
19082TIP3    H278662   0.692   6.502  13.607  0.0785  0.5892  0.0671
19083TIP3   OH278663   1.650   0.390   2.450  0.4946  0.5839 -0.3767
19083TIP3    H178664   1.610   0.445   2.383 -1.4717  2.6003  2.1807
19083TIP3    H278665   1.599   0.309   2.448 -1.1878  1.5740  0.1759
19084TIP3   OH278666   1.680   1.658   2.875  0.1990  0.1549  0.4139
19084TIP3    H178667   1.771   1.627   2.874  0.3648  0.6291 -1.3338
19084TIP3    H278668   1.629   1.583   2.844  0.0438  0.0970  0.7964
19085TIP3   OH278669   0.529   4.312  14.110  0.0099  0.3472  0.4441
19085TIP3    H178670   0.590   4.380  14.139 -1.6257  2.5478 -0.9729
19085TIP3    H278671   0.584   4.248  14.066  1.4322  1.6096  0.3203
19086TIP3   OH278672   4.157   4.436   3.194  0.4936  0.1285  0.2076
19086TIP3    H178673   4.069   4.463   3.220 -0.1009 -0.8578 -0.7338
19086TIP3    H278674   4.161   4.343   3.215  1.6643  0.3666  1.1319
19087TIP3   OH278675   0.008   6.111  11.384 -0.6519  0.3957  0.1203
19087TIP3    H178676   0.005   6.157  11.300  0.4811  0.7626  0.2678
19087TIP3    H278677   0.065   6.164  11.439 -1.0954 -0.0297  1.0170
19088TIP3   OH278678   1.182   3.172   1.592 -0.2487  0.8608  0.0030
19088TIP3    H178679   1.219   3.253   1.556 -2.3117  0.3846 -3.6228
19088TIP3    H278680   1.147   3.125   1.516 -1.0840 -2.4714  2.2121
19089TIP3   OH278681   6.361   0.992  13.466  0.0738 -0.6537  0.7458
19089TIP3    H178682   6.325   1.020  13.550  0.4593 -1.8607  1.3252
19089TIP3    H278683   6.443   0.948  13.488 -0.8730 -2.9550 -0.0233
19090TIP3   OH278684   1.567   0.528   1.857  0.3988 -0.2264 -0.1222
19090TIP3    H178685   1.540   0.589   1.925  0.0472  1.0312 -1.3298
19090TIP3    H278686   1.661   0.517   1.870  0.7978  1.8454 -0.7925
19091TIP3   OH278687   5.535   4.793   6.500  0.4224  0.4536  0.1876
19091TIP3    H178688   5.484   4.808   6.579 -2.1219 -3.2158 -0.5215
19091TIP3    H278689   5.624   4.779   6.531 -0.5677 -1.2484  2.5454
19092TIP3   OH278690   5.376   4.166  14.574  0.0538  0.2876 -0.0058
19092TIP3    H178691   5.353   4.258  14.561  3.1301  1.2159  0.4459
19092TIP3    H278692   5.401   4.135  14.487 -0.4823  0.0089 -0.0651
19093TIP3   OH278693   5.358   0.512  15.079  0.0151 -0.3624 -0.7621
19093TIP3    H178694   5.396   0.565  15.149  0.7664 -1.6385 -0.1765
19093TIP3    H278695   5.415   0.529  15.004  0.9641 -1.2114 -0.2557
19094TIP3   OH278696   1.478   0.379   0.217 -0.0713  0.2819 -0.3132
19094TIP3    H178697   1.415   0.370   0.145  0.1411  1.3991 -0.6666
19094TIP3    H278698   1.562   0.356   0.178 -0.1900 -0.8780  0.0705
19095TIP3   OH278699   2.451   1.185   5.636 -0.0345 -0.0658  0.0254
19095TIP3    H178700   2.478   1.276   5.649 -0.1208 -0.0686  0.2427
19095TIP3    H278701   2.518   1.133   5.681  0.6272 -0.1707 -1.0536
19096TIP3   OH278702   2.006   2.291   0.901 -0.1265 -0.4605 -0.3727
19096TIP3    H178703   2.030   2.244   0.980  0.9603  2.2252  1.0409
19096TIP3    H278704   2.064   2.256   0.833  1.8398 -0.0661  1.0161
19097TIP3   OH278705   4.477   1.825   1.271  0.4875 -0.1297  0.1253
19097TIP3    H178706   4.555   1.775   1.295  0.4592 -0.0993  0.2852
19097TIP3    H278707   4.449   1.788   1.187 -0.1685 -1.1334  0.7506
19098TIP3   OH278708   4.354   5.926  13.425  1.0707 -0.1865 -0.5686
19098TIP3    H178709   4.357   5.911  13.520 -0.3360 -2.8598 -0.8591
19098TIP3    H278710   4.443   5.905  13.395  0.8935 -1.7340 -0.0910
19099TIP3   OH278711   5.704   1.384  11.168 -0.5059 -0.3403 -0.3137
19099TIP3    H178712   5.617   1.346  11.177  0.1854 -1.5684  1.9176
19099TIP3    H278713   5.689   1.478  11.161 -1.9842 -0.1346  3.4430
19100TIP3   OH278714   6.039   6.074   4.041  0.0288  0.1086  0.4331
19100TIP3    H178715   6.094   6.099   3.967  2.4610 -1.0017  1.7198
19100TIP3    H278716   6.037   6.153   4.096 -1.8502  0.9613 -0.7617
19101TIP3   OH278717   3.321   2.421   3.830 -0.1890  0.3472 -0.0056
19101TIP3    H178718   3.273   2.404   3.749 -0.1457 -0.8041  0.1928
19101TIP3    H278719   3.412   2.431   3.803 -0.0407 -0.9058 -0.0238
19102TIP3   OH278720   1.842   2.000  14.477  0.0098  0.5458 -0.3062
19102TIP3    H178721   1.818   2.092  14.467 -1.9421  0.1270  0.0685
19102TIP3    H278722   1.894   1.997  14.558  0.2703  1.3309 -0.4330
19103TIP3   OH278723   2.990   5.841   3.588  0.1784 -0.5921  0.3273
19103TIP3    H178724   3.069   5.787   3.598 -0.0525 -1.1601 -0.7649
19103TIP3    H278725   2.917   5.779   3.595 -0.1043 -0.3722 -0.5877
19104TIP3   OH278726   6.411   4.819  13.633 -0.3956  0.4407  0.0628
19104TIP3    H178727   6.499   4.792  13.659 -0.3164 -0.9281 -1.4359
19104TIP3    H278728   6.410   4.913  13.649  2.1506  0.9312 -1.9221
19105TIP3   OH278729   6.460   1.211  15.196 -0.0696  0.1190 -0.1255
19105TIP3    H178730   6.514   1.158  15.136 -1.0014  2.1281 -2.9924
19105TIP3    H278731   6.370   1.194  15.168 -0.5528  0.9121  0.9139
19106TIP3   OH278732   4.485   3.669   4.824  0.2028  0.2703 -0.2951
19106TIP3    H178733   4.571   3.687   4.786 -0.2430  0.3170 -1.3280
19106TIP3    H278734   4.485   3.574   4.840  1.2137  0.5559  1.7417
19107TIP3   OH278735   3.151   4.306  14.757  0.9433 -0.2955 -0.3805
19107TIP3    H178736   3.104   4.361  14.694  0.1235  0.2178  0.6480
19107TIP3    H278737   3.185   4.233  14.705 -0.7639 -0.5403 -1.2264
19108TIP3   OH278738   3.716   0.924  11.439 -0.0781 -0.1859  0.7751
19108TIP3    H178739   3.687   0.888  11.523 -0.9993 -0.3607  0.3962
19108TIP3    H278740   3.811   0.917  11.441 -0.1772 -1.7984  1.0903
19109TIP3   OH278741   0.060   1.089   5.239  0.6574  0.3762 -0.7519
19109TIP3    H178742  -0.011   1.074   5.302  0.2545  0.1092 -1.2594
19109TIP3    H278743   0.026   1.157   5.181  0.6163 -0.1069 -1.2971
19110TIP3   OH278744   1.358   3.846  14.333  0.3742 -1.1302 -0.0440
19110TIP3    H178745   1.298   3.816  14.265 -1.1839 -0.7282  1.0917
19110TIP3    H278746   1.438   3.872  14.286 -1.1758  0.5660 -1.8998
19111TIP3   OH278747   6.780   4.112   2.922  0.0639 -0.5563 -0.4163
19111TIP3    H178748   6.785   4.189   2.865 -1.5044  1.3319  1.7957
19111TIP3    H278749   6.716   4.055   2.881 -1.4702  1.0196 -0.3234
19112TIP3   OH278750   1.463   4.783   5.806  0.1520 -0.6910 -0.1033
19112TIP3    H178751   1.475   4.856   5.745  2.0983 -1.0299 -0.1996
19112TIP3    H278752   1.501   4.708   5.760 -0.7133 -1.5085  0.4960
19113TIP3   OH278753   4.805   4.214  13.891 -0.2413 -0.6703  0.2859
19113TIP3    H178754   4.892   4.253  13.885 -0.8066  0.5573 -0.4876
19113TIP3    H278755   4.748   4.286  13.917 -1.0463 -1.4275  0.6708
19114TIP3   OH278756   2.564   2.822   3.319 -0.6957  0.0513  0.2413
19114TIP3    H178757   2.490   2.822   3.259 -0.2197  0.0111 -0.3560
19114TIP3    H278758   2.636   2.860   3.268 -0.1598 -0.4410  0.6259
19115TIP3   OH278759   6.283   5.440  10.603 -0.0524  0.6369  0.5045
19115TIP3    H178760   6.232   5.359  10.592  2.0615 -1.0216  2.0339
19115TIP3    H278761   6.247   5.479  10.683 -1.4790  1.6307 -0.5542
19116TIP3   OH278762   5.566   1.742  13.343 -0.0546  0.3107  0.3233
19116TIP3    H178763   5.517   1.815  13.306  0.3747  1.0693  1.2108
19116TIP3    H278764   5.650   1.781  13.369  0.8822 -0.8611 -0.7758
19117TIP3   OH278765   6.562   6.025   6.519 -0.1069  0.4042 -0.2224
19117TIP3    H178766   6.607   6.086   6.461  3.7970 -0.3779  1.6148
19117TIP3    H278767   6.557   5.944   6.468 -2.7468  1.3381 -1.6458
19118TIP3   OH278768   0.365   3.495   1.739 -0.4353  0.2475  0.6239
19118TIP3    H178769   0.388   3.583   1.768 -2.8868  0.3976  2.4018
19118TIP3    H278770   0.338   3.506   1.648 -0.6348  1.3427  0.8067
19119TIP3   OH278771   6.107   5.100   1.603  0.1947  0.3794 -0.3084
19119TIP3    H178772   6.059   5.050   1.669  1.0158  1.0354  0.8095
19119TIP3    H278773   6.043   5.162   1.568 -1.0936 -1.8588 -2.3048
19120TIP3   OH278774   0.118   1.157  11.539  0.4354 -0.5246 -0.4474
19120TIP3    H178775   0.062   1.112  11.476 -2.0210  0.0492  1.2139
19120TIP3    H278776   0.133   1.093  11.608  0.5070 -0.1529 -0.1155
19121TIP3   OH278777   1.235   5.345   5.102  0.1908  0.7633 -0.1623
19121TIP3    H178778   1.276   5.431   5.103 -2.2280  2.0083  1.0106
19121TIP3    H278779   1.203   5.334   5.012  0.1862  1.2530 -0.2205
19122TIP3   OH278780   2.901   1.760   5.056 -0.1017 -0.0493  0.1602
19122TIP3    H178781   2.980   1.755   5.002 -1.1579 -0.4506 -1.4194
19122TIP3    H278782   2.921   1.826   5.122  1.6030 -0.2623 -0.0943
19123TIP3   OH278783   3.734   6.616   2.813  0.1229 -0.3998 -0.6951
19123TIP3    H178784   3.643   6.586   2.806  0.1202 -0.1089 -2.2449
19123TIP3    H278785   3.767   6.574   2.893 -1.1530 -1.0931 -0.5065
19124TIP3   OH278786   5.478   4.416   3.233  0.0361 -0.1555 -0.0428
19124TIP3    H178787   5.525   4.406   3.151 -0.7366 -2.8046 -0.2521
19124TIP3    H278788   5.526   4.484   3.280  1.8893 -0.2331 -1.6975
19125TIP3   OH278789   5.615   4.680  16.586 -0.6388 -0.1482  0.0297
19125TIP3    H178790   5.600   4.753  16.525 -3.0586 -1.4033 -1.0062
19125TIP3    H278791   5.696   4.639  16.555 -0.2978  0.9164 -0.5533
19126TIP3   OH278792   1.121   4.227   2.764  0.0312  0.0183  0.2619
19126TIP3    H178793   1.184   4.287   2.805  0.9989  0.2497 -1.4508
19126TIP3    H278794   1.153   4.140   2.787 -0.0507  0.1418  0.8603
19127TIP3   OH278795   3.890   1.928   6.056 -0.1645  0.1698 -0.2765
19127TIP3    H178796   3.975   1.913   6.015  0.4016  1.5994  0.3078
19127TIP3    H278797   3.911   1.964   6.142 -1.2828 -2.9426  1.4931
19128TIP3   OH278798   6.531   4.568   4.838 -0.0873 -0.0430 -0.5756
19128TIP3    H178799   6.592   4.535   4.772  1.7497  1.7154  0.1270
19128TIP3    H278800   6.586   4.593   4.912 -1.5492  2.1911 -0.1189
19129TIP3   OH278801   4.338   3.956  15.871 -0.2231 -0.3112 -0.2620
19129TIP3    H178802   4.268   4.023  15.872 -1.8313 -1.9198  0.0869
19129TIP3    H278803   4.408   3.995  15.924 -0.9734  1.2266 -0.3182
19130TIP3   OH278804   4.175   2.246   0.596 -0.0479 -0.1744 -0.4323
19130TIP3    H178805   4.156   2.162   0.639 -0.7155 -0.2053 -0.7713
19130TIP3    H278806   4.142   2.312   0.657  0.1169 -0.1717 -0.3456
19131TIP3   OH278807   3.070   5.500   6.838 -0.1447  0.2777  0.2366
19131TIP3    H178808   3.035   5.526   6.924 -1.9416  1.1339 -0.6929
19131TIP3    H278809   3.121   5.575   6.809 -1.5168  0.9782 -0.4459
19132TIP3   OH278810   1.314   3.485  16.208 -0.3203 -0.0201 -0.2529
19132TIP3    H178811   1.405   3.494  16.181 -0.5344  1.0324 -0.6801
19132TIP3    H278812   1.308   3.396  16.242  0.5063 -0.6074 -1.5584
19133TIP3   OH278813   0.733   5.736  11.794 -0.4353  0.1702 -0.1633
19133TIP3    H178814   0.644   5.772  11.788 -0.0227  1.3946  0.6592
19133TIP3    H278815   0.781   5.780  11.724 -0.2297  0.3028  0.0606
19134TIP3   OH278816   2.412   6.507  13.031  0.2314  0.1100  0.4000
19134TIP3    H178817   2.449   6.555  12.956  0.9887 -0.9006  0.1110
19134TIP3    H278818   2.321   6.537  13.035 -0.0096 -0.2610 -1.3266
19135TIP3   OH278819   0.829   3.890   2.145 -0.5004 -0.6632  0.2438
19135TIP3    H178820   0.754   3.842   2.108 -2.4247 -0.6118  3.6325
19135TIP3    H278821   0.830   3.973   2.097 -2.2633 -0.9124 -0.3182
19136TIP3   OH278822   2.663   4.384   1.589  0.2006  0.0326  0.2916
19136TIP3    H178823   2.659   4.323   1.663 -2.0599  1.9868  1.9083
19136TIP3    H278824   2.723   4.453   1.619 -1.0949  1.0739  0.5477
19137TIP3   OH278825   6.575   1.743  15.189 -0.3075  0.6734 -0.6516
19137TIP3    H178826   6.569   1.676  15.122  1.6100  0.2855 -0.4876
19137TIP3    H278827   6.534   1.820  15.149 -0.1822  0.1474 -1.8425
19138TIP3   OH278828   3.195   1.310   3.626  0.1939  0.5255 -0.0225
19138TIP3    H178829   3.242   1.348   3.700 -1.0189 -1.2049  1.7302
19138TIP3    H278830   3.103   1.327   3.645 -0.1712 -0.4343 -0.8522
19139TIP3   OH278831   5.777   4.096   0.779  0.5173 -0.3503 -0.1048
19139TIP3    H178832   5.704   4.136   0.826 -0.4588 -2.3788  0.2415
19139TIP3    H278833   5.854   4.114   0.833  0.2558  1.5281 -0.3050
19140TIP3   OH278834   3.854   1.223  12.952 -0.8441  0.1843  0.1428
19140TIP3    H178835   3.811   1.247  13.034 -1.6201  0.0575 -0.2225
19140TIP3    H278836   3.792   1.165  12.908 -0.6504  0.6385 -0.7629
19141TIP3   OH278837   2.213   3.564  14.461  0.3862  0.3312  0.3399
19141TIP3    H178838   2.208   3.613  14.542 -0.3033  0.6810  0.0906
19141TIP3    H278839   2.182   3.476  14.484  3.1376 -0.5454  1.1713
19142TIP3   OH278840   3.595   1.598   0.043  0.3874  0.0988  0.0567
19142TIP3    H178841   3.644   1.626  -0.034  3.0425 -0.4349  1.4224
19142TIP3    H278842   3.608   1.668   0.107 -1.3112  0.2856  0.2369
19143TIP3   OH278843   1.169   4.307   1.550 -0.9251 -0.0135  0.3479
19143TIP3    H178844   1.089   4.302   1.499 -2.2522  2.1176  2.0124
19143TIP3    H278845   1.231   4.352   1.493 -0.4743 -2.6076 -1.3442
19144TIP3   OH278846   3.331   1.066   5.238  0.2196  0.0206 -0.1037
19144TIP3    H178847   3.399   1.024   5.291 -0.5166 -0.5501  0.4099
19144TIP3    H278848   3.344   1.032   5.150  0.2487 -0.5381  0.1119
19145TIP3   OH278849   4.881   6.371   6.217  0.2223 -0.3564  0.5126
19145TIP3    H178850   4.858   6.452   6.263 -1.2713 -0.6864  0.4095
19145TIP3    H278851   4.968   6.349   6.250 -0.1022  0.3144  1.9251
19146TIP3   OH278852   4.081   1.265   0.555  0.1107  0.2462  0.3843
19146TIP3    H178853   4.103   1.358   0.552 -0.2034  0.3443  0.9847
19146TIP3    H278854   4.100   1.238   0.646  1.8749 -0.6971 -0.2168
19147TIP3   OH278855   0.799   2.518  14.372  0.0232 -0.1156  0.9619
19147TIP3    H178856   0.869   2.538  14.310 -0.2482 -1.5587  0.1413
19147TIP3    H278857   0.839   2.525  14.458  1.4635 -1.8794  0.4787
19148TIP3   OH278858   4.050   2.677  15.930 -0.3162 -0.4055  0.1112
19148TIP3    H178859   3.967   2.659  15.886 -0.1643 -1.3311  0.1704
19148TIP3    H278860   4.087   2.590  15.946 -0.7983 -0.1921  2.8702
19149TIP3   OH278861   2.900   3.970  16.852  0.4291  0.7909  0.2252
19149TIP3    H178862   2.987   4.005  16.873  0.7125  0.7727 -0.8396
19149TIP3    H278863   2.887   3.992  16.759  0.3487 -1.3135 -0.3309
19150TIP3   OH278864   2.017   6.237   3.020 -0.2952 -0.6500 -0.4968
19150TIP3    H178865   2.009   6.274   2.932  0.7526  1.3717  0.2028
19150TIP3    H278866   2.025   6.143   3.005 -1.6426 -0.5357 -2.4545
19151TIP3   OH278867   0.970   3.979  16.779  0.4510  0.3340 -0.2713
19151TIP3    H178868   1.049   3.927  16.789  0.2007  0.1347  0.7927
19151TIP3    H278869   0.900   3.924  16.813  0.1981  1.3746  0.9624
19152TIP3   OH278870   4.783   4.710  12.430 -0.0197  0.2787  0.0829
19152TIP3    H178871   4.705   4.690  12.481 -0.7473  1.5778 -0.4746
19152TIP3    H278872   4.820   4.787  12.473 -0.6243  1.3764 -1.2955
19153TIP3   OH278873   4.863   0.402   0.854 -0.3964  0.0127  0.2958
19153TIP3    H178874   4.897   0.480   0.899 -0.9474  0.5981 -0.2709
19153TIP3    H278875   4.776   0.429   0.823  0.1018 -0.2413 -1.4272
19154TIP3   OH278876   5.798   1.764   2.971 -0.1026  0.1838 -0.3459
19154TIP3    H178877   5.755   1.848   2.985  1.1017  0.6932  0.5192
19154TIP3    H278878   5.734   1.711   2.923 -2.0736  0.5195  1.7683
19155TIP3   OH278879   1.306   2.046   0.884  0.1724 -0.3218 -0.5444
19155TIP3    H178880   1.371   2.117   0.883  1.1055 -1.1519 -0.8373
19155TIP3    H278881   1.326   1.997   0.964 -0.8270  0.0607 -0.0542
19156TIP3   OH278882   6.127   3.034   1.363  0.2613 -0.1057 -0.3059
19156TIP3    H178883   6.033   3.053   1.361 -0.1459 -1.9001 -2.4124
19156TIP3    H278884   6.134   2.951   1.409  0.7836 -0.1002 -0.3694
19157TIP3   OH278885   6.343   5.243   1.220 -0.9747 -0.2193 -0.0589
19157TIP3    H178886   6.355   5.166   1.275 -0.4461  0.5915  1.0062
19157TIP3    H278887   6.261   5.283   1.251 -0.8558  0.0502 -0.0846
19158TIP3   OH278888   6.616   3.978   1.207 -0.2862  0.1022 -0.6276
19158TIP3    H178889   6.614   3.995   1.301 -0.2775 -3.1183  0.0936
19158TIP3    H278890   6.633   4.063   1.167  0.9630  1.3873  2.3418
19159TIP3   OH278891   1.538   0.308  15.369 -0.1885  0.2887 -0.2124
19159TIP3    H178892   1.575   0.238  15.315  1.2698  2.7468 -2.7072
19159TIP3    H278893   1.588   0.303  15.451  0.5279 -0.9852 -0.6874
19160TIP3   OH278894   0.467   0.702  14.334 -0.0152  0.2276  1.2432
19160TIP3    H178895   0.415   0.639  14.384 -1.1905  1.0937  1.1414
19160TIP3    H278896   0.556   0.669  14.340 -0.4873 -0.9946  1.8874
19161TIP3   OH278897   2.083   0.665  11.658 -0.1189 -0.5510  0.0835
19161TIP3    H178898   1.993   0.690  11.638 -0.2710 -1.5020 -0.5186
19161TIP3    H278899   2.133   0.694  11.583  0.3003  1.0467  0.9445
19162TIP3   OH278900   6.559   4.470   0.192 -0.0634 -0.0641  0.5219
19162TIP3    H178901   6.574   4.426   0.108 -0.0249  0.7442  0.0938
19162TIP3    H278902   6.633   4.443   0.246  0.8524  0.7366 -0.2779
19163TIP3   OH278903   0.113   5.947  13.487 -0.1483  0.0117  0.4874
19163TIP3    H178904   0.147   5.968  13.400 -0.7477 -2.1408 -0.3512
19163TIP3    H278905   0.022   5.921  13.471 -0.4829  0.2356  1.8714
19164TIP3   OH278906   4.758   2.832  13.262  0.2114 -0.2967 -0.2854
19164TIP3    H178907   4.669   2.821  13.296  0.6808 -0.3748  0.9981
19164TIP3    H278908   4.772   2.757  13.205  0.4379 -1.9454  1.7880
19165TIP3   OH278909   2.533   1.113   1.734  0.6306 -0.3922 -0.0102
19165TIP3    H178910   2.612   1.144   1.778  0.8235 -0.9823  0.0690
19165TIP3    H278911   2.522   1.172   1.659 -0.1075  1.0988  1.1980
19166TIP3   OH278912   3.254   5.242   0.307 -0.1201  0.0686 -0.3422
19166TIP3    H178913   3.327   5.186   0.280  0.2895  0.3252  0.2088
19166TIP3    H278914   3.206   5.191   0.372 -0.3074 -0.0166 -0.5469
19167TIP3   OH278915   3.327   6.560  11.824 -0.0565 -0.2174 -0.4725
19167TIP3    H178916   3.341   6.572  11.730 -3.0176 -0.7674 -1.0886
19167TIP3    H278917   3.303   6.468  11.833  1.5709 -0.5521  1.1043
19168TIP3   OH278918   3.746   2.160   2.554 -0.1707 -0.6461  0.3378
19168TIP3    H178919   3.830   2.206   2.561  0.1499 -1.0004 -0.8187
19168TIP3    H278920   3.723   2.138   2.644 -0.0546  1.2421  0.8604
19169TIP3   OH278921   1.176   3.773   4.483  0.0954  0.5377  0.2635
19169TIP3    H178922   1.220   3.760   4.399 -1.2046 -2.3804 -0.1095
19169TIP3    H278923   1.095   3.819   4.460  0.9627  2.1635  0.3558
19170TIP3   OH278924   5.090   5.230  16.373  0.3001  1.0102 -0.6409
19170TIP3    H178925   5.176   5.266  16.351  2.0521 -0.1762  3.4757
19170TIP3    H278926   5.075   5.257  16.463 -1.6040 -2.4897  0.2418
19171TIP3   OH278927   6.555   5.207   3.041  0.2445 -0.1268 -0.0805
19171TIP3    H178928   6.612   5.261   2.986 -1.4881  1.5250 -0.3600
19171TIP3    H278929   6.592   5.215   3.129  0.7658  0.4587 -0.3454
19172TIP3   OH278930   3.144   5.704  13.463  0.4614  0.2451  0.2846
19172TIP3    H178931   3.191   5.725  13.382  1.4448  2.1515  1.2909
19172TIP3    H278932   3.191   5.752  13.531 -0.9623 -0.4895  1.8513
19173TIP3   OH278933   1.089   2.616  15.447 -0.2032 -0.1913 -0.4518
19173TIP3    H178934   1.005   2.660  15.459 -0.5249 -0.6961 -0.7749
19173TIP3    H278935   1.155   2.684  15.462 -0.6318 -0.0415  0.8741
19174TIP3   OH278936   4.140   5.505  12.849  0.0804 -0.5222  0.0868
19174TIP3    H178937   4.147   5.441  12.920 -0.8906 -1.6675 -0.8193
19174TIP3    H278938   4.227   5.507  12.809  0.3552 -0.6091  0.6719
19175TIP3   OH278939   4.125   2.254  10.830 -0.1378  0.4206 -0.5316
19175TIP3    H178940   4.054   2.318  10.835 -0.9805 -0.5825  1.6485
19175TIP3    H278941   4.191   2.285  10.891  0.4231  0.3105 -1.0696
19176TIP3   OH278942   5.585   1.268   2.525  0.3428  0.1513  0.1107
19176TIP3    H178943   5.516   1.204   2.542  1.9646 -1.2516  2.0301
19176TIP3    H278944   5.635   1.232   2.452  0.3798 -0.0329  0.2264
19177TIP3   OH278945   4.156   1.247   3.503  0.0328  0.0304  0.1002
19177TIP3    H178946   4.168   1.172   3.562  0.3032 -0.6833 -0.8457
19177TIP3    H278947   4.149   1.322   3.562  0.4369 -0.6465  1.0469
19178TIP3   OH278948   5.673   5.563   4.103 -0.4404  0.2429 -0.3095
19178TIP3    H178949   5.724   5.580   4.183 -0.5669  0.9693 -0.3768
19178TIP3    H278950   5.587   5.600   4.122 -0.8975 -0.7854 -0.2775
19179TIP3   OH278951   0.329   0.873  15.469  0.5624  0.2598  0.5128
19179TIP3    H178952   0.350   0.865  15.376 -2.5418 -0.5379 -0.2440
19179TIP3    H278953   0.282   0.957  15.476 -1.1844 -0.6943  0.8518
19180TIP3   OH278954   0.613   3.322   3.370 -0.1034  0.1110 -0.5169
19180TIP3    H178955   0.550   3.270   3.320  0.3220  0.0033 -0.9586
19180TIP3    H278956   0.685   3.261   3.388  0.7612  0.7282 -1.7273
19181TIP3   OH278957   2.119   2.382  16.336 -0.0933 -0.4383  0.3149
19181TIP3    H178958   2.157   2.393  16.249 -1.1154  3.7150  0.1606
19181TIP3    H278959   2.026   2.364  16.319 -0.5571  1.5966  0.3981
19182TIP3   OH278960   1.257   6.366   4.892  0.0144 -0.0623  0.5338
19182TIP3    H178961   1.275   6.394   4.981 -0.2224 -0.6794  0.7795
19182TIP3    H278962   1.162   6.361   4.887 -0.0653  1.4646 -0.2297
19183TIP3   OH278963   4.131   4.224   6.483 -0.4115 -0.1794 -0.4742
19183TIP3    H178964   4.133   4.296   6.420  1.2001 -0.1777 -0.4506
19183TIP3    H278965   4.038   4.201   6.490 -0.7439  0.6286 -1.9151
19184TIP3   OH278966   1.030   6.695   3.192  0.3025  0.0698 -0.3223
19184TIP3    H178967   1.089   6.735   3.127  0.4631 -1.1192 -0.9255
19184TIP3    H278968   1.076   6.618   3.223  0.3987  0.8299  1.5514
19185TIP3   OH278969   0.584   3.308   2.116  0.0430  0.3348 -0.1083
19185TIP3    H178970   0.494   3.327   2.091 -0.0294 -0.1646 -0.2275
19185TIP3    H278971   0.580   3.296   2.211 -0.3060 -1.2504 -0.2951
19186TIP3   OH278972   1.999   1.488  14.558 -0.2322  0.2104 -0.4784
19186TIP3    H178973   2.075   1.522  14.607 -2.6120  3.2748  1.4755
19186TIP3    H278974   1.997   1.540  14.478 -0.0316 -0.2656 -0.8031
19187TIP3   OH278975   2.969   2.068   0.192  0.3436  0.2999 -0.3149
19187TIP3    H178976   2.915   1.997   0.157  2.1138 -1.6082  0.6057
19187TIP3    H278977   2.994   2.119   0.115 -1.2651  0.1592 -0.9593
19188TIP3   OH278978   2.559   2.644  16.948 -0.1287 -0.8264 -0.1348
19188TIP3    H178979   2.593   2.733  16.957  1.5838 -1.3388 -1.1085
19188TIP3    H278980   2.513   2.628  17.030  1.1932  0.2671  0.8763
19189TIP3   OH278981   1.217   0.285  14.118  0.0538  0.1454 -0.4122
19189TIP3    H178982   1.251   0.356  14.172  0.8829 -0.7115  0.2081
19189TIP3    H278983   1.128   0.314  14.095 -0.1027  0.7954  0.9050
19190TIP3   OH278984   1.782   5.739   1.953  0.3918 -0.3624 -0.0202
19190TIP3    H178985   1.775   5.827   1.988  3.1969 -0.4692  1.0408
19190TIP3    H278986   1.695   5.701   1.966 -0.5672  1.8636  0.4897
19191TIP3   OH278987   0.430   1.320   2.484 -0.2776 -0.5557 -0.2289
19191TIP3    H178988   0.485   1.376   2.430  1.1521 -1.3495  0.3432
19191TIP3    H278989   0.464   1.232   2.469 -0.3795 -0.8832  1.3355
19192TIP3   OH278990   0.758   2.240  13.249 -0.2073  0.5767 -0.3473
19192TIP3    H178991   0.750   2.282  13.163  0.7740 -1.1292 -1.3320
19192TIP3    H278992   0.788   2.151  13.229 -1.6451 -0.4341  1.6622
19193TIP3   OH278993   1.423   1.169  13.060  0.2831  0.6708  0.0214
19193TIP3    H178994   1.495   1.115  13.028 -0.2073  0.1790 -0.2745
19193TIP3    H278995   1.360   1.171  12.987  0.9237  2.8685 -0.5703
19194TIP3   OH278996   5.532   1.472   1.244 -0.1178 -0.1650  0.2181
19194TIP3    H178997   5.448   1.517   1.254 -0.4755 -0.4828 -1.2299
19194TIP3    H278998   5.510   1.380   1.232  0.6500 -1.0832  4.2924
19195TIP3   OH278999   2.367   5.862  16.349  0.1191  0.1372  0.0420
19195TIP3    H179000   2.411   5.778  16.364  1.1327  0.4231 -1.2284
19195TIP3    H279001   2.359   5.869  16.254  0.2383  1.5797  0.1145
19196TIP3   OH279002   0.685   2.000  12.146 -0.2779  0.0784 -0.3456
19196TIP3    H179003   0.618   1.932  12.143  0.7738 -1.3983  3.4526
19196TIP3    H279004   0.768   1.952  12.153  0.4797  1.5634  2.6355
19197TIP3   OH279005   1.225   5.571   3.307 -0.6290  0.3314 -0.0804
19197TIP3    H179006   1.168   5.648   3.314  0.6193  1.1931  1.7641
19197TIP3    H279007   1.286   5.581   3.381  0.2118 -1.9219 -0.4067
19198TIP3   OH279008   0.421   4.897   3.012  0.1472  0.1712 -0.7028
19198TIP3    H179009   0.465   4.842   3.076 -2.0573  0.3700  1.1132
19198TIP3    H279010   0.347   4.844   2.981  0.4841  0.5355 -2.2354
19199TIP3   OH279011   5.653   4.259   4.067  0.0378  0.2666 -0.2304
19199TIP3    H179012   5.672   4.305   3.986  1.7886  0.8252  0.4498
19199TIP3    H279013   5.577   4.304   4.104  0.3099  1.1284 -0.7110
19200TIP3   OH279014   0.931   1.696  14.374  0.5895  0.0122 -0.0974
19200TIP3    H179015   0.952   1.607  14.402  0.4450  0.0348  0.0794
19200TIP3    H279016   0.873   1.684  14.299 -0.4949 -0.0368  0.7299
19201TIP3   OH279017   3.177   6.579   3.891 -0.1799 -0.3217  0.0407
19201TIP3    H179018   3.124   6.572   3.971 -0.9171  0.0805 -0.4056
19201TIP3    H279019   3.114   6.576   3.820  0.4364 -0.2391 -0.5206
19202TIP3   OH279020   6.123   2.805  11.415 -0.3224 -0.0685  0.7347
19202TIP3    H179021   6.091   2.842  11.332 -2.2390  0.6953  1.7332
19202TIP3    H279022   6.161   2.880  11.461 -2.4764  0.3642  1.9622
19203TIP3   OH279023   6.408   2.475  16.405 -0.3640  0.2882 -0.4106
19203TIP3    H179024   6.320   2.504  16.383 -0.4775  0.2857  0.0256
19203TIP3    H279025   6.405   2.379  16.395 -0.4777  0.2656 -0.1801
19204TIP3   OH279026   0.693   5.091  11.590  0.1920  0.4711 -0.0311
19204TIP3    H179027   0.787   5.074  11.601  0.0779  0.6953  1.4648
19204TIP3    H279028   0.687   5.187  11.585 -0.0117  0.4855  0.4770
19205TIP3   OH279029   3.498   1.421   5.005 -0.0806  0.2058 -0.0787
19205TIP3    H179030   3.427   1.392   5.063 -0.2109 -1.7259 -1.0955
19205TIP3    H279031   3.481   1.514   4.991 -1.4733  0.1590  0.9981
19206TIP3   OH279032   5.282   3.554  13.196  0.2359  0.3624  0.2391
19206TIP3    H179033   5.312   3.486  13.256 -1.9079  1.3582  2.6336
19206TIP3    H279034   5.248   3.506  13.121  1.8899 -1.0072  0.3150
19207TIP3   OH279035   6.781   0.408  17.160 -0.0150  0.1043 -0.4786
19207TIP3    H179036   6.826   0.350  17.222  0.6068  0.7280 -0.3360
19207TIP3    H279037   6.751   0.349  17.091 -0.4316 -0.5620  0.2396
19208TIP3   OH279038   2.187   2.882  13.814 -0.1769  0.3641  0.2868
19208TIP3    H179039   2.244   2.958  13.802 -0.5470  0.9575  2.0124
19208TIP3    H279040   2.246   2.811  13.838 -0.0854  0.8921  1.7193
19209TIP3   OH279041   6.281   3.614  10.931  0.6820 -0.0997 -0.4132
19209TIP3    H179042   6.225   3.621  10.854  2.9698  0.0825 -2.1713
19209TIP3    H279043   6.310   3.704  10.948  0.3861 -0.1731  0.5501
19210TIP3   OH279044   4.109   5.338   0.064  0.2619 -0.3635 -0.4241
19210TIP3    H179045   4.082   5.253   0.099 -0.8021 -0.5075 -1.5183
19210TIP3    H279046   4.136   5.319  -0.026 -0.4155  0.5131 -0.8264
19211TIP3   OH279047   1.155   1.549   0.630 -0.3836  0.4239 -0.5129
19211TIP3    H179048   1.226   1.500   0.588 -1.0429  0.1108 -1.2803
19211TIP3    H279049   1.194   1.580   0.712  0.4253 -0.3385 -0.5817
19212TIP3   OH279050   3.370   2.306  14.375 -0.2192  0.3075 -0.0289
19212TIP3    H179051   3.385   2.262  14.459 -0.5979 -0.2332 -0.2435
19212TIP3    H279052   3.387   2.239  14.309 -0.4667  0.5767 -0.3702
19213TIP3   OH279053   6.071   3.566   1.221  0.0868  1.3738  0.0427
19213TIP3    H179054   6.070   3.489   1.278 -0.4031  2.2781  1.3139
19213TIP3    H279055   6.139   3.548   1.156 -0.4425 -0.3814 -0.0717
19214TIP3   OH279056   0.806   5.787  12.063 -0.3540  0.1436 -0.5586
19214TIP3    H179057   0.900   5.803  12.070 -0.2078 -0.5693 -0.7831
19214TIP3    H279058   0.797   5.734  11.984 -0.7859 -0.9785  0.2289
19215TIP3   OH279059   5.862   1.553  12.577  0.1391 -0.2940  0.1227
19215TIP3    H179060   5.878   1.627  12.518 -0.8663  0.4945  0.7833
19215TIP3    H279061   5.782   1.512  12.543 -0.0117 -0.2995  0.4759
19216TIP3   OH279062   4.064   0.514  11.520 -0.5252 -0.0215  0.0329
19216TIP3    H179063   4.049   0.475  11.434  0.8786 -3.2896  1.1315
19216TIP3    H279064   3.981   0.501  11.567 -0.4683 -0.6082 -0.0204
19217TIP3   OH279065   0.539   5.320  13.675  0.1259  0.1142 -0.4607
19217TIP3    H179066   0.631   5.312  13.697  0.0548 -0.0925 -0.2270
19217TIP3    H279067   0.520   5.414  13.682  0.6151  0.3321 -1.7560
19218TIP3   OH279068   5.684   2.629  16.237  0.0210 -0.1942  0.4094
19218TIP3    H179069   5.695   2.724  16.232 -0.0762 -0.1658  0.7403
19218TIP3    H279070   5.636   2.606  16.157 -0.1619  0.0640  0.4447
19219TIP3   OH279071   4.571   0.842  15.735  0.3639  0.0273 -0.7450
19219TIP3    H179072   4.592   0.778  15.802 -3.1471 -0.7108 -0.1460
19219TIP3    H279073   4.566   0.926  15.782 -1.3004 -0.3614 -0.1559
19220TIP3   OH279074   4.162   1.927   1.261  0.6078 -0.2596 -0.0728
19220TIP3    H179075   4.114   1.861   1.212 -0.3350  0.7768 -0.6064
19220TIP3    H279076   4.134   2.010   1.222  2.0426  0.4369  0.3102
19221TIP3   OH279077   2.303   0.658  16.156  0.3048 -0.6799 -0.3239
19221TIP3    H179078   2.300   0.753  16.143  0.8512 -0.3930  1.2967
19221TIP3    H279079   2.380   0.629  16.106  2.0534  0.2668  1.6197
19222TIP3   OH279080   4.344   1.335  11.132 -0.4661  0.0469 -0.1488
19222TIP3    H179081   4.430   1.296  11.115  0.3704  2.1743 -1.0662
19222TIP3    H279082   4.286   1.259  11.144  1.0307 -1.4883 -1.9029
19223TIP3   OH279083   5.785   3.603  13.589 -1.3011 -0.5078 -0.0578
19223TIP3    H179084   5.820   3.691  13.593 -1.0029 -0.6078 -0.4300
19223TIP3    H279085   5.713   3.608  13.526 -0.8510 -0.6742 -0.5914
19224TIP3   OH279086   6.030   4.760   0.686 -0.2140  0.1447 -0.4416
19224TIP3    H179087   6.079   4.744   0.606  1.4341  0.8481  0.3840
19224TIP3    H279088   5.968   4.829   0.663 -0.6160 -0.5244 -1.4153
19225TIP3   OH279089   0.891   3.876  16.427  0.1966 -0.4746 -0.5015
19225TIP3    H179090   0.849   3.811  16.370  0.7615  0.0234 -1.5172
19225TIP3    H279091   0.975   3.836  16.451  0.0719 -0.5750 -0.2350
19226TIP3   OH279092   6.174   5.207  14.815  0.7983 -0.2569 -0.0120
19226TIP3    H179093   6.151   5.150  14.743 -0.2272 -0.3715  0.3982
19226TIP3    H279094   6.251   5.165  14.855 -0.4929 -1.8917  0.8666
19227TIP3   OH279095   6.396   6.448  11.997 -0.0151  0.4111 -0.6267
19227TIP3    H179096   6.321   6.388  11.994  1.6189 -2.1396  2.9288
19227TIP3    H279097   6.393   6.486  12.084  2.4986  0.6398 -0.5710
19228TIP3   OH279098   0.043   6.407   4.709  0.6884  0.4351 -0.2328
19228TIP3    H179099  -0.048   6.384   4.694  1.0515 -2.1037  0.9367
19228TIP3    H279100   0.044   6.503   4.709 -2.3035  0.5836  1.5638
19229TIP3   OH279101   3.817   1.136   2.319 -0.2409 -0.7504 -0.1598
19229TIP3    H179102   3.838   1.219   2.363  1.7513 -1.3665  0.1662
19229TIP3    H279103   3.740   1.156   2.266  0.4495  1.4536 -0.4641
19230TIP3   OH279104   1.845   5.606   6.015  0.1250  0.3703  0.1363
19230TIP3    H179105   1.906   5.552   5.965  0.6108 -1.5362  2.5856
19230TIP3    H279106   1.760   5.564   6.003 -0.1644  1.1464 -0.6913
19231TIP3   OH279107   0.831   2.144   3.260  0.2925  0.5881  0.2411
19231TIP3    H179108   0.886   2.066   3.259  1.1141  1.1610 -0.2060
19231TIP3    H279109   0.862   2.195   3.335 -1.6515 -0.4635  1.8547
19232TIP3   OH279110   5.874   6.081  15.139  0.5390  0.0078 -0.0272
19232TIP3    H179111   5.805   6.015  15.143 -0.6588  1.1946 -0.4101
19232TIP3    H279112   5.867   6.129  15.222  0.4796  0.5550 -0.3469
19233TIP3   OH279113   6.538   2.545  16.667  0.4841 -0.0334 -0.6189
19233TIP3    H179114   6.480   2.507  16.601 -1.8920  1.0221  0.7244
19233TIP3    H279115   6.490   2.536  16.749  2.2580  0.9011  0.5868
19234TIP3   OH279116   0.822   6.501   2.807 -0.2174  0.2531  0.7060
19234TIP3    H179117   0.757   6.431   2.804 -1.2729  1.2185  0.2625
19234TIP3    H279118   0.820   6.532   2.898 -0.0155 -0.0456  0.8125
19235TIP3   OH279119   3.808   4.736   1.231  0.7580 -0.4099  0.3228
19235TIP3    H179120   3.902   4.728   1.215  0.7323 -2.7538  0.9986
19235TIP3    H279121   3.783   4.653   1.270 -2.0973 -0.9830 -2.3002
19236TIP3   OH279122   2.658   1.926   1.195  0.0635  0.0893 -0.1980
19236TIP3    H179123   2.670   1.993   1.128 -1.6911  0.0972 -0.5625
19236TIP3    H279124   2.566   1.902   1.187  0.3103 -1.3034  0.9288
19237TIP3   OH279125   0.352   3.368   1.999  0.2446 -0.1413 -0.1408
19237TIP3    H179126   0.324   3.409   1.917 -0.1178 -1.2398 -0.5853
19237TIP3    H279127   0.295   3.292   2.008 -0.4740  0.5752  1.7242
19238TIP3   OH279128   2.106   3.958   3.828 -0.4639 -0.2370  0.8352
19238TIP3    H179129   2.114   4.043   3.872 -0.7588  0.0654  0.3153
19238TIP3    H279130   2.011   3.947   3.815 -0.3443 -0.0515 -0.2441
19239TIP3   OH279131   6.461   1.326  17.046 -0.3234 -0.5739  0.2118
19239TIP3    H179132   6.519   1.295  16.977 -0.3619 -0.8241  0.2924
19239TIP3    H279133   6.453   1.252  17.106 -1.9483 -1.0745 -0.5707
19240TIP3   OH279134   4.629   6.356  16.097  0.1276  0.3615 -0.4613
19240TIP3    H179135   4.644   6.412  16.174 -0.6966 -0.0049 -0.0126
19240TIP3    H279136   4.541   6.321  16.111  0.3442 -0.4626 -1.1050
19241TIP3   OH279137   1.327   3.928  15.745  0.4495  0.2958 -0.4118
19241TIP3    H179138   1.240   3.966  15.738  0.1602  0.0885  1.6560
19241TIP3    H279139   1.314   3.835  15.727  0.1913  0.2126  0.2049
19242TIP3   OH279140   0.893   6.507   4.585 -0.1805  0.4170  0.6983
19242TIP3    H179141   0.838   6.444   4.632 -0.2854 -0.4017 -0.4879
19242TIP3    H279142   0.831   6.567   4.543 -0.2255 -0.7967 -1.0406
19243TIP3   OH279143   2.095   3.328  11.912 -0.6385  0.1743  0.0917
19243TIP3    H179144   2.102   3.360  11.822 -1.6575  1.8854  0.5644
19243TIP3    H279145   2.183   3.337  11.948 -0.4332  0.4155 -0.4622
19244TIP3   OH279146   0.954   4.233   2.555  0.0656 -0.5871  0.4604
19244TIP3    H179147   0.907   4.160   2.513 -0.1623  0.1842 -0.6779
19244TIP3    H279148   0.994   4.194   2.633 -1.5241 -1.5219  0.8514
19245TIP3   OH279149   2.523   4.116   6.622 -0.3094 -0.9871 -0.1338
19245TIP3    H179150   2.601   4.093   6.571 -0.6455 -0.0750 -1.1233
19245TIP3    H279151   2.523   4.212   6.623 -0.7094 -0.9826  1.0033
19246TIP3   OH279152   0.775   1.523  16.398 -0.1512 -0.0167  0.2576
19246TIP3    H179153   0.720   1.574  16.457  1.7269  0.7059  1.4883
19246TIP3    H279154   0.836   1.587  16.361 -2.4953  0.0060 -4.2184
19247TIP3   OH279155   0.703   6.139  11.752 -0.2220 -0.0977 -0.0086
19247TIP3    H179156   0.680   6.076  11.820  0.6652 -0.2426  0.1664
19247TIP3    H279157   0.627   6.141  11.694 -0.2087 -1.4222 -0.0945
19248TIP3   OH279158   3.715   0.398   3.410 -0.1894 -0.0506 -0.4649
19248TIP3    H179159   3.791   0.447   3.379  0.0777 -0.7183 -0.8974
19248TIP3    H279160   3.639   0.449   3.381 -0.0148 -1.2652 -3.4310
19249TIP3   OH279161   2.818   5.373  12.137 -0.1742  0.4334  0.4269
19249TIP3    H179162   2.811   5.466  12.114 -0.7341  0.3196  0.1236
19249TIP3    H279163   2.791   5.327  12.058 -0.5021  0.0182  0.7765
19250TIP3   OH279164   4.821   3.584  13.231  0.2385 -0.0644 -0.2131
19250TIP3    H179165   4.784   3.652  13.288  2.2146  0.2042  0.8333
19250TIP3    H279166   4.847   3.632  13.152 -0.4323 -0.0243 -0.4145
19251TIP3   OH279167   5.210   2.211   2.706  0.1513  0.5204  0.2469
19251TIP3    H179168   5.273   2.273   2.744 -0.3405  0.6207  0.9258
19251TIP3    H279169   5.260   2.164   2.640  0.9803  0.5099  0.8575
19252TIP3   OH279170   3.111   5.138  14.854  0.0782 -0.9455 -0.3428
19252TIP3    H179171   3.121   5.124  14.760  1.1695  1.7629 -0.7303
19252TIP3    H279172   3.033   5.087  14.877 -0.0868 -1.8810 -2.6434
19253TIP3   OH279173   3.802   6.550   2.049  0.4969 -0.0768  0.2563
19253TIP3    H179174   3.759   6.465   2.062 -0.8532  0.7400  1.3817
19253TIP3    H279175   3.814   6.556   1.954 -0.5973 -0.9548  0.0313
19254TIP3   OH279176   6.345   4.481   3.103 -0.1424 -0.7047 -0.3354
19254TIP3    H179177   6.250   4.476   3.118 -0.0764 -3.0967 -0.3244
19254TIP3    H279178   6.360   4.570   3.072 -2.3534 -0.1783 -0.0321
19255TIP3   OH279179   3.863   4.924  15.046 -0.3387 -0.4862 -0.3521
19255TIP3    H179180   3.780   4.951  15.005  0.0981  0.2762 -0.7501
19255TIP3    H279181   3.839   4.847  15.098 -1.4156  0.0546 -0.0101
19256TIP3   OH279182   2.412   5.277   3.820  0.4901  0.0738 -0.3197
19256TIP3    H179183   2.435   5.305   3.908  0.1524  1.1726 -0.5521
19256TIP3    H279184   2.405   5.359   3.770 -0.2853 -0.4529 -1.1221
19257TIP3   OH279185   5.561   3.215  12.620  0.2128  0.3187 -0.0051
19257TIP3    H179186   5.539   3.127  12.652 -0.4152  0.2995 -0.4956
19257TIP3    H279187   5.631   3.200  12.556 -1.6344 -0.1036 -2.0202
19258TIP3   OH279188   1.800   1.506  12.718  0.5944 -0.1758  0.3383
19258TIP3    H179189   1.736   1.523  12.787 -0.5438 -2.5619 -0.0347
19258TIP3    H279190   1.834   1.419  12.737  1.0725 -0.4306 -1.4883
19259TIP3   OH279191   6.617   3.215  15.347  0.5189 -0.2087 -0.2826
19259TIP3    H179192   6.707   3.243  15.364  0.3043  0.4108 -0.1427
19259TIP3    H279193   6.600   3.241  15.257 -0.2741  1.7804  0.3873
19260TIP3   OH279194   4.698   0.478   2.407 -0.1756 -0.4266  0.4393
19260TIP3    H179195   4.696   0.461   2.313  0.2122 -0.7917  0.4931
19260TIP3    H279196   4.732   0.397   2.445 -1.3894 -0.6923  0.9975
19261TIP3   OH279197   4.062   3.406  16.905 -0.5645 -0.0153 -0.2248
19261TIP3    H179198   4.129   3.361  16.855 -1.1446  1.1085 -2.1509
19261TIP3    H279199   3.998   3.339  16.927 -1.0527 -0.3475 -2.3973
19262TIP3   OH279200   3.077   4.170   3.812 -0.3225  0.3176  0.1973
19262TIP3    H179201   3.000   4.114   3.822 -0.6449  0.7176  0.0069
19262TIP3    H279202   3.049   4.255   3.845  1.0307 -0.2869  3.1419
19263TIP3   OH279203   6.729   5.430   2.209  0.3236  0.4503 -0.2738
19263TIP3    H179204   6.774   5.384   2.280  0.2108  0.1879 -0.3725
19263TIP3    H279205   6.655   5.373   2.187  1.1803 -0.1893 -1.6069
19264TIP3   OH279206   6.481   4.719  15.701 -0.6756  0.7311 -0.0422
19264TIP3    H179207   6.551   4.671  15.745  0.1555  1.1333 -0.9088
19264TIP3    H279208   6.511   4.809  15.697 -0.9291  0.7853 -1.0231
19265TIP3   OH279209   3.139   5.597   3.563  0.3424 -0.4542 -0.4562
19265TIP3    H179210   3.221   5.617   3.517  0.5834 -0.5551 -0.0750
19265TIP3    H279211   3.166   5.571   3.651 -0.1539  0.4107 -0.0323
19266TIP3   OH279212   1.566   2.159  16.841 -0.1272  0.2902 -0.1447
19266TIP3    H179213   1.653   2.192  16.818 -0.3608  0.1845 -1.2684
19266TIP3    H279214   1.568   2.067  16.814  0.7538 -0.9502  3.5652
19267TIP3   OH279215   0.417   1.000  14.567  0.6028 -0.3713  0.0249
19267TIP3    H179216   0.380   1.026  14.652  1.6884  1.0987  0.0954
19267TIP3    H279217   0.356   1.037  14.503  0.6533 -0.0690  0.1499
19268TIP3   OH279218   2.565   2.701  16.428  0.2973  0.7379 -0.0844
19268TIP3    H179219   2.525   2.729  16.511 -0.8081 -0.3411 -0.2231
19268TIP3    H279220   2.492   2.667  16.376  1.4495 -2.3460  0.0739
19269TIP3   OH279221   1.709   4.271   6.615 -0.2708 -0.6415 -0.5232
19269TIP3    H179222   1.697   4.221   6.534  0.6267 -2.1541  0.2490
19269TIP3    H279223   1.639   4.337   6.611 -1.0847 -1.5095 -1.8965
19270TIP3   OH279224   2.045   6.394   2.786 -0.0781 -0.0305 -0.1361
19270TIP3    H179225   1.985   6.456   2.744  0.3115  0.4158 -0.0385
19270TIP3    H279226   2.123   6.446   2.805 -1.4503  0.8280  4.3837
19271TIP3   OH279227   3.463   2.591  15.852 -0.0592 -0.5283  0.3606
19271TIP3    H179228   3.440   2.674  15.809  1.5083 -0.4596 -0.4312
19271TIP3    H279229   3.524   2.549  15.792  0.9994 -1.1644  1.8144
19272TIP3   OH279230   5.177   6.190   2.538  0.1761  0.5906  0.4809
19272TIP3    H179231   5.130   6.140   2.471  2.1849  1.0379 -1.3384
19272TIP3    H279232   5.107   6.225   2.594 -1.6184  0.5206 -1.5837
19273TIP3   OH279233   0.529   5.326   1.374  0.4357 -0.1601  0.2687
19273TIP3    H179234   0.558   5.301   1.462  1.5847 -0.2717 -0.1240
19273TIP3    H279235   0.522   5.243   1.327 -1.1839 -0.1968  0.5242
19274TIP3   OH279236   0.974   3.075   6.447 -0.0813 -0.2754 -0.5411
19274TIP3    H179237   1.058   3.054   6.487 -0.8445 -0.0714  1.2538
19274TIP3    H279238   0.942   2.991   6.414  0.9167 -0.3086 -1.4805
19275TIP3   OH279239   0.986   2.680  16.727 -0.6102  0.4888  0.2912
19275TIP3    H179240   0.895   2.655  16.709 -1.2486  1.7289  1.5683
19275TIP3    H279241   1.017   2.615  16.790  0.1699 -1.2416 -1.7752
19276TIP3   OH279242   0.137   1.482  14.613 -0.1700  0.1168 -0.5591
19276TIP3    H179243   0.116   1.396  14.576 -0.7997 -0.4156  0.9511
19276TIP3    H279244   0.187   1.462  14.692 -0.4273  1.1434 -0.1303
19277TIP3   OH279245   4.567   2.983   4.383  0.3941 -0.7418  0.3629
19277TIP3    H179246   4.484   2.942   4.359  0.7290 -1.2399  0.0363
19277TIP3    H279247   4.584   3.046   4.314  0.3441 -0.7247  0.3666
19278TIP3   OH279248   6.336   3.463  17.068 -0.0742 -0.4178 -0.7189
19278TIP3    H179249   6.392   3.480  16.992  1.1913  0.0816  0.2948
19278TIP3    H279250   6.251   3.498  17.043  0.3153 -0.2569 -1.9014
19279TIP3   OH279251   5.196   6.255  16.501  0.2855 -0.0935 -0.2967
19279TIP3    H179252   5.149   6.239  16.420  0.8391  0.1342 -0.6659
19279TIP3    H279253   5.145   6.209  16.568 -1.0134  0.9419 -0.5287
19280TIP3   OH279254   5.312   1.862   0.549  0.0788  0.1200  0.0204
19280TIP3    H179255   5.251   1.920   0.502  1.3186 -0.2087 -2.1309
19280TIP3    H279256   5.389   1.916   0.565 -0.3752  0.2736  1.9384
19281TIP3   OH279257   3.931   2.168  17.138  0.3029 -0.0020 -0.6250
19281TIP3    H179258   3.924   2.073  17.142 -0.2814  0.0594  1.7997
19281TIP3    H279259   3.849   2.197  17.098  1.0691 -0.5231 -2.6683
19282TIP3   OH279260   4.130   1.461  12.331  1.0788 -0.4202 -0.4043
19282TIP3    H179261   4.174   1.541  12.361  1.4762 -0.5394 -0.6706
19282TIP3    H279262   4.037   1.484  12.332  0.9673 -0.6999  1.8253
19283TIP3   OH279263   5.171   4.353   3.049 -0.5329  0.0691 -0.5747
19283TIP3    H179264   5.161   4.305   2.967 -0.9720 -1.1443  0.1692
19283TIP3    H279265   5.241   4.416   3.031  0.2387 -1.0023 -1.4961
19284TIP3   OH279266   3.036   3.331   2.518  0.0655 -0.1426  0.2924
19284TIP3    H179267   3.127   3.334   2.491 -0.5082 -0.3824 -1.8881
19284TIP3    H279268   3.021   3.413   2.565  0.9850  0.6592 -0.7720
19285TIP3   OH279269   3.440   0.833  10.461 -0.4428 -0.6434  0.0611
19285TIP3    H179270   3.466   0.762  10.520  2.8196 -1.4703 -2.1004
19285TIP3    H279271   3.437   0.793  10.374  1.3095  1.7615 -1.2283
19286TIP3   OH279272   3.956   1.925   2.159  0.1071  0.3771 -0.2049
19286TIP3    H179273   3.997   1.844   2.131  1.0714  0.5412  0.6481
19286TIP3    H279274   3.871   1.925   2.117  0.5090 -0.5662 -1.0586
19287TIP3   OH279275   6.006   2.581   0.079 -0.0294 -0.4322 -0.7982
19287TIP3    H179276   5.954   2.654   0.112  0.5834  0.0836 -0.9452
19287TIP3    H279277   6.090   2.621   0.055 -0.2388 -0.8724 -2.4327
19288TIP3   OH279278   1.588   0.196   1.456  0.5624  0.2277 -0.4512
19288TIP3    H179279   1.550   0.254   1.522  1.3588 -0.6375  0.8083
19288TIP3    H279280   1.547   0.223   1.374 -1.1544  0.7363  0.5212
19289TIP3   OH279281   3.657   1.245   0.433 -0.6638 -0.2717 -0.6014
19289TIP3    H179282   3.580   1.200   0.466  0.7667 -1.7489  0.9209
19289TIP3    H279283   3.694   1.185   0.368  1.3956 -1.6252  1.6247
19290TIP3   OH279284   4.513   2.815  13.831  0.1453 -0.4012  0.0962
19290TIP3    H179285   4.459   2.893  13.837 -0.9229 -0.9095 -2.0881
19290TIP3    H279286   4.469   2.751  13.887 -0.7802 -0.3990 -0.6204
19291TIP3   OH279287   1.542   0.131   4.206 -0.0129 -0.5499 -0.0009
19291TIP3    H179288   1.605   0.101   4.271  1.2578 -0.5738 -1.1881
19291TIP3    H279289   1.523   0.222   4.231 -1.5878 -1.3382  1.8801
19292TIP3   OH279290   0.397   1.050   5.686  0.2170  0.0140 -0.1145
19292TIP3    H179291   0.379   1.144   5.688 -0.5082 -0.1291  0.6686
19292TIP3    H279292   0.456   1.039   5.612  0.2712  1.0805 -0.2509
19293TIP3   OH279293   2.688   5.856   0.834  0.0611 -0.5361 -0.1623
19293TIP3    H179294   2.754   5.787   0.844  0.9089  0.4160  1.1046
19293TIP3    H279295   2.705   5.916   0.906 -1.0481  0.6888 -0.8787
19294TIP3   OH279296   4.261   1.539  13.351 -0.1340  0.0960 -0.5455
19294TIP3    H179297   4.355   1.557  13.357 -0.2917  0.8607 -0.3122
19294TIP3    H279298   4.247   1.517  13.258  0.5794 -1.8960 -0.2326
19295TIP3   OH279299   0.578   0.483   0.782 -0.3723  0.0984  0.3886
19295TIP3    H179300   0.617   0.570   0.777 -0.9334  0.3259 -0.2282
19295TIP3    H279301   0.518   0.479   0.707  0.0649 -1.0272  0.0669
19296TIP3   OH279302   0.052   6.454   2.201 -0.4924  0.5125 -0.5886
19296TIP3    H179303  -0.001   6.402   2.261  1.9166 -1.2628  0.1658
19296TIP3    H279304   0.124   6.487   2.256  1.2346 -0.3044 -2.2306
19297TIP3   OH279305   2.676   6.539  12.165 -0.4176 -0.2262 -0.0229
19297TIP3    H179306   2.772   6.532  12.169 -0.3844 -0.1783 -0.7111
19297TIP3    H279307   2.648   6.461  12.117 -0.6117  0.4874 -1.0899
19298TIP3   OH279308   6.267   6.561   4.702  0.0020  0.3181  0.2386
19298TIP3    H179309   6.271   6.533   4.794 -2.2527  0.6231  0.4832
19298TIP3    H279310   6.269   6.656   4.706  1.9028  0.3233 -0.2002
19299TIP3   OH279311   6.350   0.839  10.912 -0.3063  0.7637  0.3154
19299TIP3    H179312   6.319   0.914  10.963 -0.0365  0.3192  1.1556
19299TIP3    H279313   6.270   0.796  10.883 -0.4632  1.4602 -0.3068
19300TIP3   OH279314   1.192   3.811  15.142  0.0288 -0.4963  0.5006
19300TIP3    H179315   1.210   3.756  15.066  1.6329 -1.6606  1.6271
19300TIP3    H279316   1.144   3.754  15.202 -2.4069  0.8126 -0.1103
19301TIP3   OH279317   6.760   0.048  10.781 -0.0008 -0.3249 -0.0213
19301TIP3    H179318   6.808  -0.035  10.788  0.2761 -0.1712 -0.1033
19301TIP3    H279319   6.668   0.022  10.780  0.0747 -0.6106  0.2995
19302TIP3   OH279320   6.592   3.195  15.627  0.3203  0.0067  0.2460
19302TIP3    H179321   6.611   3.187  15.533 -0.6271  0.3697  0.0102
19302TIP3    H279322   6.518   3.255  15.631 -1.0326 -1.6238  1.0596
19303TIP3   OH279323   5.650   4.344  11.824  0.3261  0.1280 -0.1532
19303TIP3    H179324   5.646   4.424  11.772 -1.9962  0.9512  1.1354
19303TIP3    H279325   5.625   4.274  11.763  2.2204  0.3359 -1.2456
19304TIP3   OH279326   2.238   5.189  13.477  0.4932  0.2764 -0.2785
19304TIP3    H179327   2.167   5.242  13.441 -1.1901 -2.2710 -0.9857
19304TIP3    H279328   2.306   5.192  13.410  0.4745  1.5364 -0.2714
19305TIP3   OH279329   2.066   6.557   3.380 -0.3409 -1.0857  0.1794
19305TIP3    H179330   2.161   6.548   3.386 -0.1484  0.4379 -0.3243
19305TIP3    H279331   2.047   6.645   3.413 -1.5493 -1.2429 -0.0327
19306TIP3   OH279332   1.483   4.408   0.851 -0.2687  0.3342 -0.3298
19306TIP3    H179333   1.457   4.332   0.903 -0.8954  0.4844 -0.4203
19306TIP3    H279334   1.440   4.395   0.766  2.3646 -0.9795 -1.5941
19307TIP3   OH279335   1.770   5.906  12.885  0.2086  0.3127  0.2320
19307TIP3    H179336   1.683   5.928  12.918  0.6754  1.3185  0.8133
19307TIP3    H279337   1.830   5.958  12.938  1.2451 -1.1218  0.5193
19308TIP3   OH279338   5.041   5.230   0.632 -0.1572  0.0511 -0.5700
19308TIP3    H179339   5.050   5.251   0.725 -2.4311  0.1064 -0.2935
19308TIP3    H279340   5.000   5.308   0.595 -2.0280 -1.0557 -0.9716
19309TIP3   OH279341   2.322   4.284   1.022 -0.0393  0.1426  0.4423
19309TIP3    H179342   2.361   4.221   1.083 -1.0978  0.1749  1.1865
19309TIP3    H279343   2.247   4.237   0.984  0.3064  0.3026 -0.4621
19310TIP3   OH279344   1.589   2.630  12.962 -0.3825  0.3808  0.4372
19310TIP3    H179345   1.563   2.677  12.883 -1.2091  1.1317  1.1248
19310TIP3    H279346   1.632   2.697  13.016  0.1078 -0.1064  0.6543
19311TIP3   OH279347   0.820   5.097  12.730  0.2723  0.1633 -0.0873
19311TIP3    H179348   0.735   5.101  12.687  0.2105 -2.2429 -0.2988
19311TIP3    H279349   0.883   5.093  12.658  0.4091 -0.3629  0.0595
19312TIP3   OH279350   6.035   6.651  15.491  0.0465  0.3425 -0.5353
19312TIP3    H179351   6.096   6.675  15.421  1.2559  0.0149  0.3737
19312TIP3    H279352   6.060   6.707  15.564  1.7591 -2.2790  1.0598
19313TIP3   OH279353   1.333   3.117  15.142 -0.3851  0.3147  0.4628
19313TIP3    H179354   1.297   3.183  15.200  0.3683  1.1825 -0.0372
19313TIP3    H279355   1.402   3.162  15.093  1.0435 -1.1615  1.0344
19314TIP3   OH279356   0.833   4.814  11.403 -0.0016  0.8956 -0.0641
19314TIP3    H179357   0.861   4.803  11.494 -0.8521  0.1900  0.1269
19314TIP3    H279358   0.741   4.785  11.402  0.6683 -1.4637 -1.6196
19315TIP3   OH279359   1.182   4.869   5.780  0.5610 -0.2026  0.2810
19315TIP3    H179360   1.251   4.823   5.827  1.1752  1.5567  1.1941
19315TIP3    H279361   1.103   4.854   5.832  0.5825 -0.8614  0.1315
19316TIP3   OH279362   3.662   6.012   2.483  0.5677 -0.0478  0.5141
19316TIP3    H179363   3.696   6.058   2.406  0.3509  0.2872  0.6186
19316TIP3    H279364   3.593   5.956   2.449 -0.0175  0.6334  0.5660
19317TIP3   OH279365   6.132   4.865  13.647 -0.2289  0.5935 -0.1571
19317TIP3    H179366   6.227   4.852  13.641 -0.1167 -0.2111  2.1170
19317TIP3    H279367   6.110   4.917  13.570  1.7570 -0.7012 -1.7316
19318TIP3   OH279368   4.097   1.732   5.080 -0.2696  0.2494 -0.7965
19318TIP3    H179369   4.082   1.754   5.172 -0.8183 -0.8101 -0.6128
19318TIP3    H279370   4.174   1.782   5.055 -0.6798  1.2819 -0.0321
19319TIP3   OH279371   3.448   4.308   4.379 -0.1018  0.2221 -0.0004
19319TIP3    H179372   3.523   4.354   4.418  0.4483 -1.3796  0.9157
19319TIP3    H279373   3.485   4.258   4.307 -0.8745  1.9423 -1.6882
19320TIP3   OH279374   5.705   1.648  11.723 -0.3347 -0.5894  0.3394
19320TIP3    H179375   5.739   1.729  11.761  2.2056 -1.2197 -0.4015
19320TIP3    H279376   5.783   1.600  11.694 -1.8504 -2.5441 -0.7791
19321TIP3   OH279377   2.627   2.293  13.733  0.2888  0.5937 -0.8863
19321TIP3    H179378   2.611   2.242  13.813  1.2914 -0.7841 -1.5474
19321TIP3    H279379   2.722   2.293  13.722  0.3507  2.6915 -0.8881
19322TIP3   OH279380   1.211   1.544   4.954  0.2391 -0.2450  0.8443
19322TIP3    H179381   1.170   1.459   4.938 -1.5646  0.6388  0.5606
19322TIP3    H279382   1.173   1.574   5.036  0.7886  0.3353  0.8914
19323TIP3   OH279383   0.981   6.276   3.537  0.1487  0.1405 -0.2768
19323TIP3    H179384   0.911   6.284   3.603  0.5333  0.1756  0.1301
19323TIP3    H279385   1.058   6.248   3.587  0.2871 -0.4585 -0.8102
19324TIP3   OH279386   0.498   4.744  16.767 -0.3634  0.0854  0.3411
19324TIP3    H179387   0.566   4.677  16.778 -0.3951 -0.4608 -2.1532
19324TIP3    H279388   0.528   4.796  16.692 -2.3240  0.2877 -0.3579
19325TIP3   OH279389   5.854   0.906  11.994 -0.4140 -0.8561 -0.2470
19325TIP3    H179390   5.808   0.969  11.938 -0.6201 -0.5076  0.3110
19325TIP3    H279391   5.938   0.948  12.013  0.1260 -1.4557 -1.1970
19326TIP3   OH279392   0.784   3.716   3.928  0.6951 -0.1840 -0.2179
19326TIP3    H179393   0.768   3.810   3.917  1.0839  0.1798  1.8593
19326TIP3    H279394   0.798   3.683   3.839  0.6331  1.7348 -0.9831
19327TIP3   OH279395   5.912   6.313  14.982 -0.1246  0.2274 -0.1630
19327TIP3    H179396   5.874   6.246  14.925  1.7124 -0.1442 -1.0197
19327TIP3    H279397   5.907   6.275  15.069 -0.5955 -0.3164 -0.4139
19328TIP3   OH279398   5.574   3.048   1.160  0.0382  0.1134 -0.3936
19328TIP3    H179399   5.665   3.039   1.133  0.2834 -0.6904  0.6373
19328TIP3    H279400   5.564   3.141   1.181  0.0727  0.5832 -2.3103
19329TIP3   OH279401   4.778   0.930  11.680  0.1174 -0.0308  0.0509
19329TIP3    H179402   4.793   0.862  11.613  2.0082  1.7615 -1.4984
19329TIP3    H279403   4.723   0.994  11.636  0.4331  0.6277  0.6005
19330TIP3   OH279404   2.654   4.523  16.633 -0.1157 -0.1098 -0.0143
19330TIP3    H179405   2.701   4.533  16.550 -1.3614 -1.7130 -0.9539
19330TIP3    H279406   2.644   4.428  16.644  0.5615  0.0141  2.3066
19331TIP3   OH279407   1.533   6.184   1.697  0.1135  0.2366 -0.1531
19331TIP3    H179408   1.542   6.257   1.758  1.3827  1.6092 -1.8678
19331TIP3    H279409   1.624   6.157   1.680 -0.3193 -1.5975  0.2212
19332TIP3   OH279410   4.099   3.926   6.259  0.7222 -0.7368 -0.3362
19332TIP3    H179411   4.048   4.002   6.230  2.5665  0.2937 -1.0517
19332TIP3    H279412   4.110   3.939   6.353 -0.0048 -0.7867 -0.2375
19333TIP3   OH279413   5.951   0.697  13.986 -0.3676 -0.3228  0.2165
19333TIP3    H179414   5.862   0.731  13.997 -1.8304 -3.6301 -0.3081
19333TIP3    H279415   5.949   0.611  14.028  2.8934 -0.1693  0.9211
19334TIP3   OH279416   6.382   5.941  13.536 -0.2773  0.1086  0.3818
19334TIP3    H179417   6.477   5.953  13.532 -0.2803 -0.0986 -0.5172
19334TIP3    H279418   6.351   5.963  13.448 -0.7232 -2.4896 -0.2001
19335TIP3   OH279419   1.505   5.201  13.080  0.1762 -0.2268  0.3463
19335TIP3    H179420   1.580   5.259  13.066  0.9848 -1.1689  0.5959
19335TIP3    H279421   1.478   5.218  13.171  1.2607 -1.1596  0.8685
19336TIP3   OH279422   6.680   1.775   1.039 -0.4135  0.0630  0.1095
19336TIP3    H179423   6.602   1.736   1.079 -1.3767  1.2981 -0.4779
19336TIP3    H279424   6.678   1.745   0.948  0.5416 -0.9499  0.4039
19337TIP3   OH279425   6.635   2.842   3.292 -0.3355  0.0932 -0.2072
19337TIP3    H179426   6.553   2.891   3.293 -0.2194  0.3135 -1.0240
19337TIP3    H279427   6.639   2.802   3.205 -0.8371 -2.0929  0.6923
19338TIP3   OH279428   6.271   0.921  15.038 -0.1933  0.0823  0.1606
19338TIP3    H179429   6.198   0.890  15.091 -0.1389  0.4961  0.4824
19338TIP3    H279430   6.349   0.903  15.091 -0.0282 -0.5843 -0.2827
19339TIP3   OH279431   0.841   1.107   0.979  0.1686 -0.2945  0.3170
19339TIP3    H179432   0.829   1.017   0.950  0.0321 -0.6677  1.4854
19339TIP3    H279433   0.757   1.149   0.965 -0.1043 -0.6638  0.8172
19340TIP3   OH279434   1.372   1.827   4.083 -0.5538 -0.0317 -0.1279
19340TIP3    H179435   1.350   1.748   4.133 -1.5541  0.9220  0.9802
19340TIP3    H279436   1.441   1.869   4.134  0.2656 -0.3515 -0.9249
19341TIP3   OH279437   3.604   4.717  14.241  0.2908 -0.3216  0.3421
19341TIP3    H179438   3.641   4.665  14.170  2.5806 -0.2053  1.3347
19341TIP3    H279439   3.633   4.807  14.223 -2.3282  0.4179 -0.5401
19342TIP3   OH279440   5.766   2.762  12.927 -0.0470  0.3834 -0.2004
19342TIP3    H179441   5.699   2.699  12.900 -0.2022  0.5665 -0.2451
19342TIP3    H279442   5.773   2.750  13.022  0.3657 -0.1301 -0.2948
19343TIP3   OH279443   6.731   4.123  11.760 -0.2288  0.0878  0.4792
19343TIP3    H179444   6.774   4.205  11.738  1.6869 -1.5207 -2.6055
19343TIP3    H279445   6.647   4.126  11.713 -0.2061  0.3159  0.4520
19344TIP3   OH279446   1.390   5.816   1.541 -0.1336 -0.4283 -0.5696
19344TIP3    H179447   1.420   5.844   1.454 -0.8510  1.6777 -0.1911
19344TIP3    H279448   1.438   5.735   1.557  0.7620 -0.3504 -2.5137
19345TIP3   OH279449   6.562   2.255  13.755  0.5550 -0.1522  0.1139
19345TIP3    H179450   6.605   2.339  13.742  0.6899 -0.3357 -0.6717
19345TIP3    H279451   6.625   2.204  13.806  0.5020  0.1918  0.5288
19346TIP3   OH279452   0.301   5.912  14.121  0.3528  0.1842 -0.5482
19346TIP3    H179453   0.344   5.917  14.036  1.7935  0.0699  0.1428
19346TIP3    H279454   0.338   5.833  14.162  1.7331  1.6725  1.2245
19347TIP3   OH279455   1.781   4.967   4.019 -0.1232 -0.2913  0.1281
19347TIP3    H179456   1.741   5.024   4.085 -0.7191  0.3198 -0.7486
19347TIP3    H279457   1.846   5.022   3.975  0.2753 -0.6998  0.1944
19348TIP3   OH279458   2.042   4.020  15.696  0.0698 -0.1554 -0.1034
19348TIP3    H179459   1.960   4.018  15.647  0.4237  0.3487 -0.7363
19348TIP3    H279460   2.025   4.079  15.769  0.0966  0.5611 -0.6690
19349TIP3   OH279461   2.065   3.793   1.077 -0.5137 -0.3654 -0.4374
19349TIP3    H179462   2.018   3.870   1.047  1.3460  0.1841 -2.1318
19349TIP3    H279463   2.110   3.760   0.999  1.3729 -1.2135  0.9238
19350TIP3   OH279464   3.790   6.787  11.408 -0.2559 -0.0573  0.7639
19350TIP3    H179465   3.813   6.808  11.318 -1.3973 -3.4236 -0.4557
19350TIP3    H279466   3.710   6.836  11.425 -1.4741 -1.3116 -1.0364
19351TIP3   OH279467   4.749   2.595  12.600  0.6858  0.1591  0.6957
19351TIP3    H179468   4.719   2.610  12.511  0.1558  1.2026  1.0294
19351TIP3    H279469   4.676   2.551  12.643  0.7993 -0.0106  0.7165
19352TIP3   OH279470   2.506   5.292   3.009  0.1629  0.2131  0.3133
19352TIP3    H179471   2.462   5.244   3.080 -0.1345  0.0760  0.0399
19352TIP3    H279472   2.599   5.268   3.018 -0.2696 -2.7036 -1.4924
19353TIP3   OH279473   2.278   0.104  12.701  0.2259 -0.1385 -0.0198
19353TIP3    H179474   2.192   0.107  12.743  0.4295 -1.5814  0.5530
19353TIP3    H279475   2.294   0.011  12.687  1.3327  0.1726 -0.8953
19354TIP3   OH279476   4.102   0.146   3.714 -0.1246  0.3255  0.3012
19354TIP3    H179477   4.040   0.148   3.787  1.4921  0.0989  1.7491
19354TIP3    H279478   4.115   0.053   3.696  0.5424  0.3216  0.7240
19355TIP3   OH279479   4.214   3.138  11.546 -0.3233  0.1013  0.3038
19355TIP3    H179480   4.271   3.213  11.531 -1.8796  1.4221  0.7134
19355TIP3    H279481   4.132   3.161  11.502 -0.6425 -1.6516 -0.1098
19356TIP3   OH279482   2.734   2.245   3.354  0.0669 -0.6054  0.2389
19356TIP3    H179483   2.795   2.181   3.318  0.3928 -0.9754  1.3962
19356TIP3    H279484   2.754   2.327   3.309  1.1687 -0.8129  0.3421
19357TIP3   OH279485   5.152   5.202   4.686 -0.5308 -0.1805  0.6434
19357TIP3    H179486   5.217   5.155   4.739 -1.1789 -1.4073  0.3996
19357TIP3    H279487   5.197   5.281   4.657  0.8742 -1.0256  0.4275
19358TIP3   OH279488   2.037   2.837   1.030 -0.0038 -0.1884 -0.3734
19358TIP3    H179489   2.128   2.867   1.031 -0.2942  0.7239 -0.4968
19358TIP3    H279490   2.009   2.843   1.122  0.0120 -0.2978 -0.3620
19359TIP3   OH279491   1.726   3.511   1.685  0.1217 -0.0537 -0.0080
19359TIP3    H179492   1.662   3.501   1.614 -1.1978  0.2184  1.0871
19359TIP3    H279493   1.777   3.587   1.661  0.5304 -0.7069 -1.2680
19360TIP3   OH279494   0.770   1.362  12.513  0.5326 -0.1919 -0.0506
19360TIP3    H179495   0.781   1.369  12.608  1.7957 -2.4818  0.0544
19360TIP3    H279496   0.734   1.274  12.499  0.9381 -0.1327 -1.7180
19361TIP3   OH279497   4.230   2.094   1.833 -0.0223  0.0744  0.2488
19361TIP3    H179498   4.314   2.125   1.867 -0.4755 -1.4603  3.0228
19361TIP3    H279499   4.164   2.135   1.888 -0.9301 -1.0272  0.0259
19362TIP3   OH279500   1.708   4.233  12.908 -0.1784  0.3008  0.5959
19362TIP3    H179501   1.715   4.146  12.947  1.2242 -0.0900 -0.4237
19362TIP3    H279502   1.754   4.291  12.969  1.1509 -0.1379  0.0401
19363TIP3   OH279503   3.198   5.665  14.597  0.2591  0.6596  0.1731
19363TIP3    H179504   3.115   5.620  14.585  0.3610  0.5031  0.0472
19363TIP3    H279505   3.198   5.734  14.531  0.8073 -0.1829 -0.7467
19364TIP3   OH279506   2.014   6.018  12.697  0.0869  0.1420 -0.2379
19364TIP3    H179507   1.935   6.014  12.750 -0.0762 -3.4374 -0.5117
19364TIP3    H279508   2.085   5.995  12.758  0.1047 -2.2987 -1.0703
19365TIP3   OH279509   2.405   5.900  11.675  0.2311  0.0689  0.5262
19365TIP3    H179510   2.368   5.811  11.676 -0.3921  0.3067 -0.2665
19365TIP3    H279511   2.345   5.952  11.727  1.2396 -0.1914  2.0120
19366TIP3   OH279512   4.644   5.693   4.122 -0.4681 -0.2045 -0.0900
19366TIP3    H179513   4.631   5.712   4.215  2.0388  0.6964  0.1722
19366TIP3    H279514   4.622   5.601   4.112 -1.0880 -0.2273  1.3409
19367TIP3   OH279515   2.285   1.363   2.892 -0.2752  0.1389  0.5814
19367TIP3    H179516   2.351   1.431   2.885  0.9659 -1.0740  0.0924
19367TIP3    H279517   2.291   1.315   2.809 -0.7783 -0.8657  1.1085
19368TIP3   OH279518   5.357   0.113   2.745  0.1706 -0.0811 -0.4331
19368TIP3    H179519   5.362   0.164   2.825  2.8825 -0.9001  0.0100
19368TIP3    H279520   5.268   0.128   2.712 -0.5388  1.3880  1.9477
19369TIP3   OH279521   1.161   4.892  15.495 -0.3583 -0.3145 -0.2525
19369TIP3    H179522   1.142   4.982  15.523  0.7831 -0.3184  0.5996
19369TIP3    H279523   1.234   4.865  15.550  1.1575 -0.7794 -2.3593
19370TIP3   OH279524   6.341   2.698   4.597  0.2884  0.4772  0.4305
19370TIP3    H179525   6.384   2.761   4.655  0.2900 -1.9014  3.2743
19370TIP3    H279526   6.411   2.663   4.542  0.9843  0.3846  1.3602
19371TIP3   OH279527   2.326   3.727   1.586 -0.2491 -0.4237  0.0866
19371TIP3    H179528   2.280   3.774   1.655 -0.3247  0.7416 -0.7238
19371TIP3    H279529   2.375   3.795   1.539  0.7722 -1.3579 -0.2571
19372TIP3   OH279530   6.651   6.057  13.728 -0.3530 -0.3240  0.7016
19372TIP3    H179531   6.678   6.123  13.791  1.2032  0.0440 -0.3136
19372TIP3    H279532   6.617   5.985  13.782  1.0482 -0.0747  1.9699
19373TIP3   OH279533   4.532   2.818   0.052 -0.1166  0.1106  0.2902
19373TIP3    H179534   4.566   2.776   0.131 -0.4627  2.9531  2.0907
19373TIP3    H279535   4.441   2.788   0.047  0.3214 -1.2294  0.1033
19374TIP3   OH279536   5.535   3.530  12.400 -0.0785 -1.2676  1.0533
19374TIP3    H179537   5.470   3.561  12.462  0.7025  0.0222  1.2674
19374TIP3    H279538   5.486   3.473  12.340 -1.9154  1.3293 -0.1253
19375TIP3   OH279539   1.185   2.350   2.931  0.3506 -0.4101 -0.8056
19375TIP3    H179540   1.124   2.277   2.925 -0.6533  0.3364  0.0164
19375TIP3    H279541   1.230   2.337   3.014  0.3804 -0.2435 -0.7957
19376TIP3   OH279542   2.768   2.504  12.937 -0.0330  0.0062  0.7818
19376TIP3    H179543   2.800   2.577  12.991  2.3386  0.4786 -1.0678
19376TIP3    H279544   2.714   2.546  12.870 -0.9375 -0.2825  1.3229
19377TIP3   OH279545   6.070   4.105   5.700 -0.0021 -0.1954 -0.0779
19377TIP3    H179546   6.165   4.090   5.698 -0.0862 -0.6519 -0.6917
19377TIP3    H279547   6.061   4.199   5.715  0.5645  0.1098 -1.5107
19378TIP3   OH279548   4.009   4.600  16.051 -0.7432  0.5853 -0.1468
19378TIP3    H179549   3.933   4.636  16.097 -0.6459 -1.3654  1.7570
19378TIP3    H279550   3.986   4.605  15.958 -1.8318  2.8842  0.1791
19379TIP3   OH279551   1.936   0.364  12.770 -0.1128  0.3798  0.5136
19379TIP3    H179552   2.024   0.398  12.755  0.6371 -0.9168  1.7156
19379TIP3    H279553   1.880   0.418  12.715  1.6103  0.1360 -1.6517
19380TIP3   OH279554   0.201   0.142   5.168 -0.3351 -0.4362  0.9156
19380TIP3    H179555   0.261   0.115   5.238 -2.0583 -0.3007  2.5114
19380TIP3    H279556   0.133   0.075   5.168 -0.6386 -0.1515 -0.3172
19381TIP3   OH279557   5.909   0.798  13.202  0.1012  0.1881  0.0911
19381TIP3    H179558   5.915   0.745  13.123 -2.3128 -0.3278  0.1757
19381TIP3    H279559   5.886   0.885  13.171  0.9931  0.4498  0.1386
19382TIP3   OH279560   5.149   1.426  15.673 -0.8818  0.6754  0.3795
19382TIP3    H179561   5.168   1.519  15.661 -1.1779  0.6441 -0.3592
19382TIP3    H279562   5.214   1.396  15.737  0.2354  1.0316 -0.5540
19383TIP3   OH279563   3.239   4.909  15.236 -0.1140 -0.1736  0.2214
19383TIP3    H179564   3.289   4.944  15.310  0.9053  1.2648 -1.0907
19383TIP3    H279565   3.250   4.815  15.242  0.8735 -0.0129  1.2522
19384TIP3   OH279566   0.680   2.503   1.167  0.3294 -0.0636 -0.1221
19384TIP3    H179567   0.657   2.576   1.109  1.5738  0.2773 -0.2135
19384TIP3    H279568   0.700   2.431   1.107  0.0249 -0.2039 -0.0579
19385TIP3   OH279569   2.730   0.335  15.581  0.5175 -0.0612 -0.3160
19385TIP3    H179570   2.819   0.325  15.614  0.4386  0.0352 -0.0769
19385TIP3    H279571   2.680   0.266  15.626 -0.1737  1.7316  1.8237
19386TIP3   OH279572   0.558   2.982  16.297  0.4714 -0.3742  0.0191
19386TIP3    H179573   0.630   2.925  16.324  0.9704  0.4805  0.5486
19386TIP3    H279574   0.583   3.069  16.329  0.8903  0.6593 -2.8316
19387TIP3   OH279575   1.522   0.244  12.033 -0.2254  0.3731  0.3372
19387TIP3    H179576   1.554   0.167  11.986 -0.9555  0.9379 -1.1446
19387TIP3    H279577   1.427   0.239  12.026 -0.2815  1.3891  0.2360
19388TIP3   OH279578   0.753   2.525  12.215  0.4493 -0.0381  0.3887
19388TIP3    H179579   0.802   2.535  12.296  0.3091 -1.0871  0.6112
19388TIP3    H279580   0.663   2.508  12.242 -0.0169  1.5893 -0.0166
19389TIP3   OH279581   1.155   5.134  14.927 -0.2012 -0.1890  0.0955
19389TIP3    H179582   1.127   5.128  15.018 -0.8192 -1.3681 -0.1662
19389TIP3    H279583   1.130   5.223  14.901  1.3192  0.7238  1.4888
19390TIP3   OH279584   5.785   6.538   0.215 -0.2125 -0.1069  0.1999
19390TIP3    H179585   5.738   6.584   0.284  0.7081  3.0339 -1.0830
19390TIP3    H279586   5.877   6.552   0.235  0.0674 -0.0147 -1.0645
19391TIP3   OH279587   4.426   1.049  13.985  0.3599  0.5342  0.1781
19391TIP3    H179588   4.512   1.081  14.012 -0.6185  1.9480  1.9142
19391TIP3    H279589   4.444   0.976  13.926  2.7278  1.3829 -0.2539
19392TIP3   OH279590   5.709   2.379  11.400  0.1170 -0.1181 -0.6350
19392TIP3    H179591   5.699   2.455  11.457  0.9028 -0.9073  0.6215
19392TIP3    H279592   5.801   2.353  11.411  0.5454  0.1818 -2.9375
19393TIP3   OH279593   2.836   0.910   3.370 -0.9548 -0.0983 -0.2853
19393TIP3    H179594   2.814   0.880   3.282 -0.9314 -1.6679  0.2167
19393TIP3    H279595   2.902   0.848   3.401  0.3038  1.4333  0.2236
19394TIP3   OH279596   1.174   1.190  16.973  0.3151  0.0127  0.4838
19394TIP3    H179597   1.193   1.221  17.061 -0.3477  0.5255  0.4588
19394TIP3    H279598   1.079   1.179  16.972  0.2704  0.3867 -0.2781
19395TIP3   OH279599   4.324   2.189  12.555  0.4285 -0.3852  0.2564
19395TIP3    H179600   4.274   2.112  12.529 -0.6895  0.2198  0.5782
19395TIP3    H279601   4.307   2.198  12.649 -0.0192  0.6482  0.0920
19396TIP3   OH279602   3.584   5.954   3.663 -0.4862  0.1362 -0.1181
19396TIP3    H179603   3.532   5.900   3.723  1.2011 -0.2442  1.0956
19396TIP3    H279604   3.525   5.975   3.592 -1.5784 -2.3829 -0.0697
19397TIP3   OH279605   6.128   4.697   1.248 -0.3376  0.5040  0.0552
19397TIP3    H179606   6.059   4.631   1.246 -0.1985  0.3785 -1.5306
19397TIP3    H279607   6.080   4.781   1.248 -0.5199  0.4204 -1.2033
19398TIP3   OH279608   6.235   3.322  11.847 -0.4718 -0.1068 -0.4608
19398TIP3    H179609   6.252   3.345  11.756 -1.4407  3.7514  0.1521
19398TIP3    H279610   6.316   3.346  11.893 -1.3438  1.8976  0.1469
19399TIP3   OH279611   0.061   2.955  12.914 -0.1675 -0.0168 -1.8686
19399TIP3    H179612   0.118   2.941  12.839  2.1579 -0.3774 -0.1539
19399TIP3    H279613   0.043   3.049  12.913  1.5061  0.3363 -1.8125
19400TIP3   OH279614   2.279   6.027  11.101  0.2940  0.2554 -0.0985
19400TIP3    H179615   2.335   5.952  11.079  0.3004  0.4588 -0.7945
19400TIP3    H279616   2.289   6.087  11.027 -0.0431  0.7563  0.2571
19401TIP3   OH279617   6.583   5.017  14.256 -0.0911 -0.4810 -0.0901
19401TIP3    H179618   6.581   5.109  14.231 -4.3658 -0.2634  0.3671
19401TIP3    H279619   6.569   4.970  14.174 -1.8769 -0.4403  0.1612
19402TIP3   OH279620   6.462   1.096  17.189 -0.0752  0.0311  0.5926
19402TIP3    H179621   6.386   1.039  17.181  0.6124 -0.6926 -1.3464
19402TIP3    H279622   6.474   1.108  17.283 -2.0099 -0.5869  0.9580
19403TIP3   OH279623   5.110   5.112  12.917  0.2597 -0.2115 -0.4746
19403TIP3    H179624   5.082   5.100  13.008  1.1952 -0.5453 -0.2297
19403TIP3    H279625   5.126   5.024  12.884  0.1966 -0.0745 -0.8860
19404TIP3   OH279626   5.173   0.374  10.286 -0.1831  0.2812 -0.1310
19404TIP3    H179627   5.186   0.351  10.378  0.6800 -1.2790 -0.5997
19404TIP3    H279628   5.256   0.411  10.258 -0.5322  1.0068 -0.2298
19405TIP3   OH279629   6.406   5.628  10.412 -0.6795  0.4173 -0.0967
19405TIP3    H179630   6.354   5.578  10.475  1.1658 -0.2151  1.0072
19405TIP3    H279631   6.470   5.675  10.466 -1.4466  2.9039 -1.2268
19406TIP3   OH279632   3.693   3.338   6.529 -0.1495  0.0591  0.2448
19406TIP3    H179633   3.744   3.268   6.487  0.2296  0.4819 -0.0068
19406TIP3    H279634   3.610   3.297   6.550  0.0251 -0.4401 -0.0149
19407TIP3   OH279635   1.887   5.420   5.111 -0.3214 -0.3393 -0.0456
19407TIP3    H179636   1.876   5.463   5.026 -0.7432 -0.5999 -0.1263
19407TIP3    H279637   1.963   5.362   5.099  0.5825  0.7656  0.2264
19408TIP3   OH279638   2.784   0.452  14.580 -0.0697 -0.2943 -0.1739
19408TIP3    H179639   2.851   0.520  14.578  0.5355 -0.8693  0.2857
19408TIP3    H279640   2.738   0.466  14.663  1.1356 -1.4530  0.7221
19409TIP3   OH279641   5.453   2.600   4.682 -0.0687  0.3792 -0.4766
19409TIP3    H179642   5.523   2.550   4.640 -0.3759 -0.1886 -0.3310
19409TIP3    H279643   5.385   2.534   4.701  0.1232  0.5849  1.0190
19410TIP3   OH279644   6.664   3.015  13.414  0.4175  0.0712  0.5190
19410TIP3    H179645   6.604   3.083  13.382  1.2763  1.3393  1.4535
19410TIP3    H279646   6.638   3.001  13.505  1.1365  0.1973  0.7536
19411TIP3   OH279647   6.075   1.372   4.870  0.2005  0.0006  0.7464
19411TIP3    H179648   6.008   1.338   4.929 -0.3064 -1.2702 -0.5028
19411TIP3    H279649   6.078   1.466   4.888 -2.8274  0.3276 -0.0337
19412TIP3   OH279650   6.563   4.914   2.066  0.2747 -0.2583  0.4758
19412TIP3    H179651   6.621   4.984   2.036  0.4972 -0.7745 -0.3487
19412TIP3    H279652   6.591   4.838   2.016 -0.0878 -0.8933  1.2279
19413TIP3   OH279653   3.037   0.001   0.265  0.4262  0.1143  0.3022
19413TIP3    H179654   2.974  -0.030   0.200  1.0586  0.9081 -0.7195
19413TIP3    H279655   2.999  -0.024   0.349  0.3486 -2.3729 -0.4063
19414TIP3   OH279656   4.652   2.991   1.859 -0.7259 -0.0794  0.4715
19414TIP3    H179657   4.661   2.940   1.939  0.0655 -0.2295  0.2933
19414TIP3    H279658   4.566   3.031   1.866 -0.3473  0.5475  1.7638
19415TIP3   OH279659   1.390   2.260   0.593 -0.0007  0.2176 -0.1118
19415TIP3    H179660   1.450   2.232   0.662  0.3689  0.7999 -0.1905
19415TIP3    H279661   1.441   2.321   0.540  0.2035 -1.2820 -1.7612
19416TIP3   OH279662   3.264   3.080   4.546 -0.1540  0.2333 -0.0738
19416TIP3    H179663   3.212   3.084   4.466 -0.0538 -0.1009 -0.1541
19416TIP3    H279664   3.302   2.992   4.547 -0.0577  0.2758  0.2791
19417TIP3   OH279665   6.633   2.316  14.701 -0.2687 -0.3691 -0.1988
19417TIP3    H179666   6.605   2.279  14.617  1.6074 -2.0424 -0.1738
19417TIP3    H279667   6.729   2.312  14.698 -0.0690  1.9420  1.0212
19418TIP3   OH279668   3.931   1.152   3.364  0.2804 -0.7774 -0.2539
19418TIP3    H179669   3.890   1.238   3.373 -2.3437 -1.8454 -1.1217
19418TIP3    H279670   4.017   1.163   3.405 -0.0851  2.1323 -0.0031
19419TIP3   OH279671   4.867   3.815   0.014  0.3520 -0.3637 -0.2228
19419TIP3    H179672   4.882   3.838  -0.077  2.2143  2.0093  0.5744
19419TIP3    H279673   4.774   3.833   0.029  0.5012  1.3425 -1.1402
19420TIP3   OH279674   2.310   4.807  14.249  0.1949  0.3319  0.1614
19420TIP3    H179675   2.388   4.797  14.195 -0.1983  0.6575 -0.4747
19420TIP3    H279676   2.336   4.773  14.335  1.2569  1.1164  0.1666
19421TIP3   OH279677   1.125   0.949  14.152 -0.4311 -0.1971  0.5468
19421TIP3    H179678   1.187   0.887  14.191  2.1673  1.0137 -1.3539
19421TIP3    H279679   1.179   1.010  14.102 -3.1942  0.8025 -1.5317
19422TIP3   OH279680   1.153   4.190  15.797 -0.3922  0.1202  0.2973
19422TIP3    H179681   1.094   4.121  15.825  0.3939  0.1131  2.0432
19422TIP3    H279682   1.106   4.271  15.815 -1.5660  0.1410 -2.3078
19423TIP3   OH279683   3.982   5.069   0.107  0.1514 -0.0096  0.0670
19423TIP3    H179684   3.997   5.033   0.020 -1.4203  3.3804 -1.8136
19423TIP3    H279685   3.903   5.026   0.138  0.1815 -0.5778 -0.6177
19424TIP3   OH279686   5.189   6.605  13.642  0.1685 -0.6434  0.0871
19424TIP3    H179687   5.136   6.631  13.567  0.4882 -2.4001 -0.8048
19424TIP3    H279688   5.166   6.667  13.711 -0.8076  0.4540 -1.1809
19425TIP3   OH279689   1.818   1.897  16.212  0.1028 -0.7393  0.1217
19425TIP3    H179690   1.792   1.816  16.167 -2.3310 -0.0798  0.2278
19425TIP3    H279691   1.785   1.887  16.301 -0.3339  0.4128  0.1039
19426TIP3   OH279692   5.543   3.217  11.296  0.1451 -0.3612  0.1158
19426TIP3    H179693   5.606   3.231  11.366 -0.5768  0.5626  0.6018
19426TIP3    H279694   5.596   3.189  11.221  1.1073  0.1955  0.5762
19427TIP3   OH279695   6.270   0.969  13.959 -0.0121  0.0586  0.4493
19427TIP3    H179696   6.365   0.981  13.969 -0.3438  2.5725  1.2897
19427TIP3    H279697   6.233   1.003  14.040 -1.6797 -0.8761  0.1259
19428TIP3   OH279698   6.565   1.986  14.149 -0.4176 -0.1314  0.1950
19428TIP3    H179699   6.470   1.992  14.162 -1.0626 -1.8120 -2.8741
19428TIP3    H279700   6.595   1.936  14.226 -2.6130 -2.5730 -0.3738
19429TIP3   OH279701   3.427   0.147   2.766  0.5872 -0.3174 -0.3999
19429TIP3    H179702   3.513   0.189   2.766  1.4863 -1.9557  2.1223
19429TIP3    H279703   3.414   0.121   2.675  2.6444  0.2170 -0.9068
19430TIP3   OH279704   4.024   6.146  14.244  0.0143  0.4501  0.8981
19430TIP3    H179705   4.078   6.206  14.193  1.0651  0.5760  2.1174
19430TIP3    H279706   3.938   6.188  14.248 -0.0339  0.5379 -0.5571
19431TIP3   OH279707   0.172   4.788   2.955 -0.2107  0.0789 -0.2043
19431TIP3    H179708   0.221   4.713   2.920  1.4039  2.3188 -3.2745
19431TIP3    H279709   0.104   4.805   2.889 -1.8390  0.2081  1.4255
19432TIP3   OH279710   5.830   4.168   2.335  0.1900 -0.5975 -0.6447
19432TIP3    H179711   5.878   4.240   2.376 -0.3084 -1.0075  0.7117
19432TIP3    H279712   5.759   4.212   2.287 -0.2856 -0.1698  0.4083
19433TIP3   OH279713   1.156   4.201  11.150 -0.3470 -0.0650  0.7663
19433TIP3    H179714   1.208   4.195  11.070 -0.5504 -0.7134  0.6745
19433TIP3    H279715   1.068   4.221  11.119 -0.0277  1.8113  0.9660
19434TIP3   OH279716   1.408   5.345  11.416  0.5095 -0.2148  0.2810
19434TIP3    H179717   1.380   5.407  11.349  1.2950  0.6546  0.7274
19434TIP3    H279718   1.355   5.266  11.401 -1.3350  0.9492  0.4124
19435TIP3   OH279719   5.812   1.296   1.381  0.6483 -1.3051 -0.0788
19435TIP3    H179720   5.760   1.233   1.432 -0.0169 -0.4145  0.3840
19435TIP3    H279721   5.755   1.318   1.306  0.5708 -0.7342  0.1405
19436TIP3   OH279722   1.105   6.721  13.737 -0.1953 -0.4333 -0.4137
19436TIP3    H179723   1.101   6.671  13.818  0.9016  1.4404  0.8751
19436TIP3    H279724   1.130   6.809  13.764 -3.8243  1.4154 -2.3504
19437TIP3   OH279725   3.753   6.062  12.337 -0.5754  0.2860 -0.0349
19437TIP3    H179726   3.800   6.028  12.261  0.1012  2.1199 -0.4661
19437TIP3    H279727   3.664   6.030  12.326  0.1824 -2.0525  0.0443
19438TIP3   OH279728   5.046   3.125  12.884  0.2119  0.0608 -0.1218
19438TIP3    H179729   5.005   3.105  12.968  1.8239  0.0364  0.7096
19438TIP3    H279730   4.976   3.163  12.831 -0.6196  1.0725  1.6132
19439TIP3   OH279731   4.634   0.467   1.171  0.4948  0.0699 -0.5881
19439TIP3    H179732   4.713   0.417   1.191  1.1212  1.1882 -0.1331
19439TIP3    H279733   4.663   0.558   1.175 -0.9410  0.5216  0.0704
19440TIP3   OH279734   5.269   6.083  14.253 -0.4636 -0.3231 -0.6069
19440TIP3    H179735   5.311   6.065  14.337  1.8859 -2.0326 -2.0042
19440TIP3    H279736   5.209   6.009  14.240 -0.6991 -0.1499 -0.5056
19441TIP3   OH279737   4.127   0.107  16.008  0.0442 -0.1092 -0.0630
19441TIP3    H179738   4.060   0.112  16.076  0.0009  0.9911 -0.1677
19441TIP3    H279739   4.125   0.016  15.979 -4.0153  0.5800 -2.6742
19442TIP3   OH279740   5.014   4.076   2.649  0.1900 -0.2533  0.2778
19442TIP3    H179741   4.988   4.079   2.557  1.0997 -0.9203 -0.0168
19442TIP3    H279742   4.941   4.033   2.693 -1.1524  1.8496  0.2312
19443TIP3   OH279743   4.223   3.072  15.465  0.0457  0.4074  0.0181
19443TIP3    H179744   4.130   3.088  15.478  0.3213  1.2945  1.0007
19443TIP3    H279745   4.263   3.094  15.549  1.0972 -0.3426 -0.2714
19444TIP3   OH279746   0.571   5.158  10.989  0.0074 -0.0776 -0.3053
19444TIP3    H179747   0.521   5.178  10.910  2.0735 -1.8498 -2.2137
19444TIP3    H279748   0.611   5.241  11.015 -1.6275  0.7635 -0.3864
19445TIP3   OH279749   1.696   4.822  14.947  0.0488 -0.2903 -0.1078
19445TIP3    H179750   1.602   4.840  14.942  0.2170  0.3855 -0.9976
19445TIP3    H279751   1.737   4.902  14.917  0.9039 -0.8526 -0.4683
19446TIP3   OH279752   0.639   2.376   1.731 -0.0326 -0.6097  0.1730
19446TIP3    H179753   0.709   2.385   1.795 -0.3356  0.0192  0.4248
19446TIP3    H279754   0.683   2.348   1.650  0.7917  1.6576 -0.2241
19447TIP3   OH279755   0.008   6.303  14.705  0.2442  0.1231 -0.2319
19447TIP3    H179756   0.037   6.305  14.797  2.3110  3.0334 -0.8109
19447TIP3    H279757   0.085   6.272  14.657 -0.4658 -0.2944 -1.1219
19448TIP3   OH279758   3.404   6.451   1.248 -0.0151  0.3564 -0.2214
19448TIP3    H179759   3.419   6.356   1.242 -0.6416  0.1239  1.4533
19448TIP3    H279760   3.322   6.466   1.201 -0.6933 -0.1775  0.7576
19449TIP3   OH279761   5.259   6.392  15.115  0.2053  0.3092 -0.5572
19449TIP3    H179762   5.247   6.447  15.192  0.5239 -0.7072  0.2328
19449TIP3    H279763   5.326   6.437  15.064  0.7969  0.4342  0.3073
19450TIP3   OH279764   3.232   5.183  15.439  0.7969  0.0246 -0.0448
19450TIP3    H179765   3.263   5.263  15.481 -0.0539  0.5032 -0.3203
19450TIP3    H279766   3.235   5.202  15.345 -0.0581 -0.0280 -0.0838
19451TIP3   OH279767   5.702   0.067   0.070 -0.1930  0.5154 -0.0484
19451TIP3    H179768   5.789   0.083   0.033 -0.4531  0.9473 -0.4792
19451TIP3    H279769   5.695  -0.029   0.074  0.6734  0.4627  0.8814
19452TIP3   OH279770   3.944   0.265  14.206  0.1733  0.2097 -0.1963
19452TIP3    H179771   4.007   0.258  14.278  1.2172 -0.0136 -1.1182
19452TIP3    H279772   3.864   0.296  14.249  0.1776 -1.7584  1.3807
19453TIP3   OH279773   5.171   5.286  14.873  0.5083 -0.3348 -0.5118
19453TIP3    H179774   5.101   5.321  14.818 -0.3089  0.1609  0.8082
19453TIP3    H279775   5.232   5.360  14.883 -0.5110  0.3286  1.1174
19454TIP3   OH279776   6.261   0.676  16.495  0.1963 -0.0664  0.1023
19454TIP3    H179777   6.206   0.609  16.537 -0.3690  1.6225  2.2198
19454TIP3    H279778   6.348   0.635  16.489 -0.6475 -1.8419 -0.9334
19455TIP3   OH279779   3.999   4.859  11.273  0.2805  0.2230  0.8150
19455TIP3    H179780   4.068   4.795  11.255  0.1245  0.3583 -0.3493
19455TIP3    H279781   4.039   4.944  11.253 -1.0025  0.1642 -2.8625
19456TIP3   OH279782   0.943   4.480  13.878  0.1144  0.4518 -0.6174
19456TIP3    H179783   0.916   4.432  13.956 -0.4861  0.0439 -1.0656
19456TIP3    H279784   0.906   4.568  13.890  1.5675  0.9605  0.3967
19457TIP3   OH279785   2.637   3.415  14.193 -0.2715 -0.1863  0.4040
19457TIP3    H179786   2.704   3.483  14.182 -0.7843  0.1194 -0.9576
19457TIP3    H279787   2.633   3.401  14.288 -0.9818  2.5299  0.8565
19458TIP3   OH279788   4.093   3.095   1.863 -0.0790 -0.1140 -0.4061
19458TIP3    H179789   4.152   3.165   1.837  0.8810 -1.6318 -2.7047
19458TIP3    H279790   4.019   3.102   1.803 -0.8780  0.0302  0.5733
19459TIP3   OH279791   2.136   0.171  15.515 -0.2501  0.0239  0.6165
19459TIP3    H179792   2.159   0.201  15.603  1.1392 -1.6316  0.8764
19459TIP3    H279793   2.054   0.123  15.528 -0.2231  0.0669  0.9627
19460TIP3   OH279794   5.009   6.756  10.960  0.5449 -0.3691  0.0445
19460TIP3    H179795   5.025   6.832  11.015 -2.1905 -1.0201  1.9607
19460TIP3    H279796   5.047   6.682  11.008 -0.0951 -0.6918  0.0650
19461TIP3   OH279797   2.019   4.249  16.319  0.0353  0.3929 -0.7343
19461TIP3    H179798   1.980   4.207  16.395  2.9872  1.5380  1.6337
19461TIP3    H279799   1.954   4.314  16.292 -1.2430 -0.2819  0.5772
19462TIP3   OH279800   4.021   5.559   4.024  0.8328  0.3566 -0.2674
19462TIP3    H179801   3.935   5.599   4.025  1.6752  2.2811 -0.4205
19462TIP3    H279802   4.073   5.611   4.085  1.9599 -0.6205 -0.3500
19463TIP3   OH279803   6.622   6.267  14.121 -0.3289 -0.3882  0.1878
19463TIP3    H179804   6.688   6.234  14.183 -1.0902 -1.7888  0.2944
19463TIP3    H279805   6.654   6.353  14.096  1.6631 -1.1052  0.0712
19464TIP3   OH279806   2.206   4.825  10.823 -0.6707  0.3977  0.3617
19464TIP3    H179807   2.267   4.867  10.883 -0.0289 -0.2424  0.1712
19464TIP3    H279808   2.257   4.810  10.743 -1.5154  1.2559 -0.3615
19465TIP3   OH279809   6.349   2.875   2.561 -0.2365  0.1915 -0.3030
19465TIP3    H179810   6.286   2.910   2.623 -1.1197 -0.5042 -0.7823
19465TIP3    H279811   6.353   2.940   2.491  1.0020  1.1325  0.5999
19466TIP3   OH279812   6.498   1.332   3.991 -1.0212  0.7252 -0.2314
19466TIP3    H179813   6.516   1.242   4.018 -1.1454  1.0455  0.9759
19466TIP3    H279814   6.443   1.323   3.913  0.8497 -0.2398 -1.5230
19467TIP3   OH279815   2.256   2.015  16.607 -0.3579  0.4349  0.1510
19467TIP3    H179816   2.170   2.000  16.567  0.2165 -0.9321 -0.6333
19467TIP3    H279817   2.316   1.963  16.553  1.0433  1.7784  0.3744
19468TIP3   OH279818   2.198   6.034  13.740  0.0842  0.1644  0.2376
19468TIP3    H179819   2.254   5.958  13.758 -2.0538 -1.4055  0.7169
19468TIP3    H279820   2.218   6.096  13.810 -1.5401 -2.0420  2.8641
19469TIP3   OH279821   4.535   6.620  14.683  0.0097  0.0892 -0.5704
19469TIP3    H179822   4.576   6.541  14.717 -0.2362  0.5096  0.7996
19469TIP3    H279823   4.489   6.592  14.605  0.8145 -0.8945 -0.7156
19470TIP3   OH279824   3.278   5.780  13.751 -0.2605 -0.5320  0.4159
19470TIP3    H179825   3.306   5.689  13.761  0.6238 -0.0304  3.8004
19470TIP3    H279826   3.356   5.827  13.723  0.1372 -0.4047  1.6718
19471TIP3   OH279827   6.037   2.884   4.861 -0.2609 -0.0066 -0.3587
19471TIP3    H179828   6.114   2.845   4.901 -0.8829 -0.9691 -0.0791
19471TIP3    H279829   5.966   2.824   4.881 -0.9765  0.5547 -1.1401
19472TIP3   OH279830   1.106   4.812   5.528  0.3258 -0.1758 -0.0909
19472TIP3    H179831   1.152   4.845   5.605  0.6010 -0.1551 -0.2622
19472TIP3    H279832   1.013   4.829   5.545  0.1836 -1.8381  1.0818
19473TIP3   OH279833   1.868   5.567   5.670 -0.0453 -0.0797  0.0407
19473TIP3    H179834   1.867   5.653   5.628 -2.7409 -0.1863 -0.2850
19473TIP3    H279835   1.880   5.506   5.597 -2.8884 -0.1544 -0.5008
19474TIP3   OH279836   0.708   4.113  11.217 -0.5216  0.3425  0.1671
19474TIP3    H179837   0.770   4.134  11.147 -1.1216  0.7280 -0.2496
19474TIP3    H279838   0.764   4.094  11.293  0.1035  0.8709 -0.1517
19475TIP3   OH279839   0.684   6.506  13.054 -0.4646 -0.0644 -0.1217
19475TIP3    H179840   0.638   6.471  13.130  0.8441 -0.6594  0.4130
19475TIP3    H279841   0.741   6.574  13.089  1.6412 -1.6855 -0.2205
19476TIP3   OH279842   0.772   6.668   0.502  0.6549  0.0105  0.0909
19476TIP3    H179843   0.683   6.701   0.490  1.2398  1.3273 -0.9241
19476TIP3    H279844   0.797   6.697   0.589  0.8472  1.5701 -0.4599
19477TIP3   OH279845   3.334   0.913  11.176 -0.1367  0.4613 -0.2093
19477TIP3    H179846   3.246   0.878  11.162 -0.9480  2.1751  0.2976
19477TIP3    H279847   3.388   0.836  11.195 -1.1012 -0.8433 -2.3763
19478TIP3   OH279848   4.715   5.857  13.783  0.2788 -0.8852  0.0238
19478TIP3    H179849   4.806   5.838  13.759  1.2433  2.4886  0.5254
19478TIP3    H279850   4.715   5.854  13.878  0.3943  1.0369  0.1055
19479TIP3   OH279851   1.154   0.767   1.528 -0.1885 -0.1220  0.3001
19479TIP3    H179852   1.151   0.787   1.435  0.9555 -1.6871 -0.1215
19479TIP3    H279853   1.139   0.851   1.571 -0.9908  0.5872 -1.2708
19480TIP3   OH279854   0.430   0.980  16.975  0.7839 -0.0954 -0.2817
19480TIP3    H179855   0.523   1.003  16.972  0.5223  1.2775  0.8762
19480TIP3    H279856   0.423   0.921  17.049  1.0353 -2.0029 -1.6974
19481TIP3   OH279857   1.370   0.895  15.347  0.9161 -0.2486 -0.2946
19481TIP3    H179858   1.310   0.827  15.376  0.2539  0.7846  0.8730
19481TIP3    H279859   1.447   0.848  15.317 -0.6614 -1.6660 -2.4368
19482TIP3   OH279860   3.052   5.355  13.284 -0.0097  0.6250 -0.1442
19482TIP3    H179861   2.975   5.299  13.287  0.1747  0.3847  0.1867
19482TIP3    H279862   3.120   5.305  13.328  0.2433  0.9780 -0.1266
19483TIP3   OH279863   2.393   5.276  14.708  0.1688 -0.5983  0.3163
19483TIP3    H179864   2.362   5.240  14.625 -0.4879 -0.4649  0.4949
19483TIP3    H279865   2.441   5.355  14.684  0.6793 -0.9977  0.0069
19484TIP3   OH279866   4.308   6.442   6.395 -0.1568 -0.3872 -0.2049
19484TIP3    H179867   4.315   6.354   6.431  1.1426 -0.9613 -1.7007
19484TIP3    H279868   4.362   6.496   6.453 -2.2850 -0.1826  1.6881
19485TIP3   OH279869   0.303   2.041   3.603 -0.1987  0.5535  0.9559
19485TIP3    H179870   0.341   1.978   3.665 -1.5714 -0.3248  0.9454
19485TIP3    H279871   0.225   2.075   3.647 -0.2803  1.1512  0.3691
19486TIP3   OH279872   1.004   1.508   3.708  0.1781  0.0176 -0.3249
19486TIP3    H179873   1.059   1.515   3.787 -0.0806  0.0376 -0.1455
19486TIP3    H279874   1.067   1.506   3.636  0.6104 -3.1963  0.0066
19487TIP3   OH279875   6.200   0.347  11.226  0.5426 -0.0321 -0.2461
19487TIP3    H179876   6.167   0.433  11.254 -0.1053 -0.2324 -0.3788
19487TIP3    H279877   6.165   0.286  11.291 -0.4025 -0.4105 -1.0981
19488TIP3   OH279878   5.558   4.662   3.963  0.0166 -0.0959 -0.4877
19488TIP3    H179879   5.639   4.613   3.946  0.3413  0.8059 -1.7440
19488TIP3    H279880   5.587   4.752   3.978 -0.7028  0.1053 -0.2676
19489TIP3   OH279881   6.091   1.926   3.796 -0.1175 -0.3375 -0.5480
19489TIP3    H179882   6.120   2.013   3.770 -0.9753 -0.3414 -1.5849
19489TIP3    H279883   6.171   1.878   3.816  0.6258 -0.3098 -3.1587
19490TIP3   OH279884   4.534   2.679   5.096 -0.4279  0.5647  0.8796
19490TIP3    H179885   4.443   2.709   5.094 -0.8190 -0.6082  0.4729
19490TIP3    H279886   4.530   2.588   5.067  1.0429  0.9004 -0.5032
19491TIP3   OH279887   3.826   4.386  12.099 -0.4801 -0.6247 -0.1975
19491TIP3    H179888   3.826   4.369  12.193  0.2824  0.8482  0.1074
19491TIP3    H279889   3.741   4.426  12.081 -1.2176 -2.2237 -0.4364
19492TIP3   OH279890   4.051   2.311   3.034  0.1052 -0.1735  0.0959
19492TIP3    H179891   4.050   2.235   2.976 -2.0395  0.1260 -0.3600
19492TIP3    H279892   4.092   2.380   2.982 -0.4298 -0.3120 -0.5267
19493TIP3   OH279893   5.604   5.837   1.185 -0.2813  0.4728  0.2878
19493TIP3    H179894   5.621   5.859   1.094  0.0941 -1.4942 -0.1704
19493TIP3    H279895   5.532   5.895   1.211 -0.5496  0.9066 -1.3235
19494TIP3   OH279896   2.192   0.636  15.834  0.0568 -0.3011  0.1097
19494TIP3    H179897   2.190   0.645  15.739 -0.6472  1.5578  0.2411
19494TIP3    H279898   2.269   0.685  15.861 -2.1923  3.3015  0.7044
19495TIP3   OH279899   4.247   6.733   0.743  0.0670  0.1018 -0.1575
19495TIP3    H179900   4.294   6.808   0.705  1.5341 -0.5606  0.2729
19495TIP3    H279901   4.316   6.679   0.781 -1.1435 -0.4028  1.4299
19496TIP3   OH279902   5.755   3.910  13.602 -0.8495  0.3698 -0.4229
19496TIP3    H179903   5.691   3.933  13.535 -0.4711  3.3198  0.0995
19496TIP3    H279904   5.783   3.994  13.639  0.7857 -1.0059  1.7357
19497TIP3   OH279905   1.865   4.372  12.533 -0.3782 -0.0620  0.5514
19497TIP3    H179906   1.886   4.278  12.526 -0.7340 -0.0736 -0.5239
19497TIP3    H279907   1.833   4.396  12.447 -0.6166  0.9860  0.9148
19498TIP3   OH279908   2.687   6.398  11.074  0.1736 -0.4612 -0.3777
19498TIP3    H179909   2.695   6.353  11.158  0.3327 -0.7459 -0.5444
19498TIP3    H279910   2.775   6.430  11.056  0.1293 -0.3594 -0.4163
19499TIP3   OH279911   4.323   1.405  12.795 -0.2639  0.1390  0.0673
19499TIP3    H179912   4.400   1.378  12.846  0.4432  0.3327 -0.8721
19499TIP3    H279913   4.249   1.369  12.844  0.3906  0.2144  1.1639
19500TIP3   OH279914   3.767   1.633   3.220 -0.1496  0.1854 -0.2362
19500TIP3    H179915   3.735   1.576   3.149  0.1280 -0.3412  0.0561
19500TIP3    H279916   3.849   1.669   3.186  0.4190 -0.7208  0.1262
19501TIP3   OH279917   5.672   4.202  12.847 -0.0040  0.7089  0.0752
19501TIP3    H179918   5.613   4.135  12.881  0.3999  0.0666 -0.4499
19501TIP3    H279919   5.656   4.279  12.902  2.7501 -1.0747  3.7776
19502TIP3   OH279920   6.306   1.407  14.086  0.6093  0.5211 -0.0536
19502TIP3    H179921   6.391   1.437  14.056  0.5695 -1.4660 -2.5321
19502TIP3    H279922   6.321   1.377  14.175  2.1518  1.4419  0.0386
19503TIP3   OH279923   0.502   3.829   4.487  0.1905  0.0042 -0.1602
19503TIP3    H179924   0.542   3.892   4.548  1.8243 -0.5349 -0.6240
19503TIP3    H279925   0.494   3.749   4.538 -0.3664  0.1226 -0.0563
19504TIP3   OH279926   0.411   4.206  15.909 -0.5961 -0.1358  1.1772
19504TIP3    H179927   0.417   4.267  15.983 -1.9967  1.0373  0.3943
19504TIP3    H279928   0.317   4.193  15.896 -0.3401 -1.7924  0.7401
19505TIP3   OH279929   6.404   1.232   3.079  0.0509 -0.0813 -0.5932
19505TIP3    H179930   6.405   1.317   3.123  1.2071 -0.4849  0.1980
19505TIP3    H279931   6.329   1.186   3.116 -0.3653  0.4577 -0.7595
19506TIP3   OH279932   1.629   5.264  11.251  0.2629 -0.2690  0.1819
19506TIP3    H179933   1.562   5.297  11.311  1.0549 -0.4551  1.2050
19506TIP3    H279934   1.699   5.232  11.309  0.1909 -2.3512 -0.7959
19507TIP3   OH279935   1.961   1.823  15.372 -0.3628 -0.0965  0.0948
19507TIP3    H179936   1.890   1.871  15.331  0.1879  0.2119 -0.5234
19507TIP3    H279937   1.935   1.731  15.368  0.4599 -0.2886 -2.6270
19508TIP3   OH279938   3.647   0.728   4.269 -0.1070  0.1683  0.0402
19508TIP3    H179939   3.716   0.775   4.221  3.7434 -1.2489  3.6540
19508TIP3    H279940   3.639   0.644   4.223 -0.7899  0.9747 -1.3970
19509TIP3   OH279941   1.415   3.541   5.037  0.2396  0.0999 -0.2336
19509TIP3    H179942   1.475   3.613   5.015  0.1420 -0.1028 -1.1850
19509TIP3    H279943   1.350   3.581   5.095  0.2988  0.7440 -0.6012
19510TIP3   OH279944   0.227   6.040   3.165  0.3728  0.0983 -0.2841
19510TIP3    H179945   0.170   5.975   3.125 -0.5235  0.1061  0.9309
19510TIP3    H279946   0.268   6.085   3.091 -0.5002 -0.5177 -1.1669
19511TIP3   OH279947   0.446   2.912   4.740 -0.1128  0.0494 -0.5884
19511TIP3    H179948   0.454   2.939   4.831 -0.0706 -0.5427 -0.4097
19511TIP3    H279949   0.535   2.889   4.714 -0.0277  0.7560 -0.9605
19512TIP3   OH279950   4.973   3.909   3.070  0.1184 -0.2020 -0.1862
19512TIP3    H179951   5.036   3.849   3.110 -0.3723 -0.7890 -0.2828
19512TIP3    H279952   4.994   3.994   3.109  1.5338 -0.2100 -0.8659
19513TIP3   OH279953   1.381   4.820   5.119 -0.0140  0.0627 -0.4562
19513TIP3    H179954   1.348   4.907   5.141  0.1456  0.0393 -0.1203
19513TIP3    H279955   1.306   4.774   5.082 -0.3984 -0.0458  0.4507
19514TIP3   OH279956   2.922   5.173  13.836 -1.3154 -0.8285  0.3691
19514TIP3    H179957   2.933   5.252  13.783 -0.8142 -0.8299  0.4684
19514TIP3    H279958   3.001   5.122  13.820 -0.0027  0.2479  2.9630
19515TIP3   OH279959   0.792   4.132   2.968  0.3434  0.2783 -0.4656
19515TIP3    H179960   0.724   4.064   2.969  0.2349  0.3870  0.3291
19515TIP3    H279961   0.747   4.211   2.938 -0.4982  0.9380  2.2845
19516TIP3   OH279962   4.401   2.719  14.054 -0.4886  0.0030 -0.7225
19516TIP3    H179963   4.434   2.799  14.094 -0.0683 -0.9564  0.9413
19516TIP3    H279964   4.322   2.698  14.104  0.3475 -1.5173  0.0187
19517TIP3   OH279965   0.197   2.792  11.111 -0.1278  0.4819  0.0163
19517TIP3    H179966   0.290   2.802  11.088 -0.0966  1.2307  0.4150
19517TIP3    H279967   0.161   2.881  11.102 -0.7718  0.2251  0.0167
19518TIP3   OH279968   0.537   0.120  13.992  1.1094 -0.6316 -0.0604
19518TIP3    H179969   0.571   0.088  14.075  1.2685 -0.0149  0.1165
19518TIP3    H279970   0.442   0.128  14.006  1.0629 -1.0473 -0.1181
19519TIP3   OH279971   3.965   4.207   2.153  0.2538 -0.4018  0.0162
19519TIP3    H179972   3.938   4.299   2.150 -0.0983 -0.4359  1.5228
19519TIP3    H279973   4.042   4.206   2.210 -0.4551 -1.1811  1.0068
19520TIP3   OH279974   0.105   2.707  14.399  0.0639  0.0183 -0.0771
19520TIP3    H179975   0.174   2.648  14.367  0.9815  0.6851  0.6425
19520TIP3    H279976   0.142   2.794  14.391 -1.8355  0.7090 -2.5543
19521TIP3   OH279977   4.213   4.642  17.061  0.0672 -0.3276 -0.3696
19521TIP3    H179978   4.141   4.671  17.005  0.6927  1.0793 -0.5113
19521TIP3    H279979   4.280   4.709  17.049 -0.1160  0.5683  2.7544
19522TIP3   OH279980   5.047   5.126  11.016 -0.8710  0.4685 -0.4381
19522TIP3    H179981   5.120   5.149  10.959 -1.1535  1.4865 -0.4110
19522TIP3    H279982   4.970   5.160  10.971 -1.2661 -0.0543 -0.1674
19523TIP3   OH279983   6.730   5.217  17.168 -0.3435 -0.4059 -0.4411
19523TIP3    H179984   6.738   5.254  17.080 -1.3552 -0.7939 -0.7055
19523TIP3    H279985   6.819   5.224  17.204 -0.2404  1.1319 -0.9138
19524TIP3   OH279986   5.386   2.592  16.522  0.4654 -0.5688  0.1626
19524TIP3    H179987   5.427   2.554  16.445 -0.1566  0.0596 -0.5074
19524TIP3    H279988   5.403   2.686  16.514  1.4389 -0.6194  1.4439
19525TIP3   OH279989   0.375   5.425   1.723  0.0314  0.5502 -0.7245
19525TIP3    H179990   0.286   5.406   1.694 -0.1522 -0.6831  0.5448
19525TIP3    H279991   0.425   5.347   1.699 -0.1176 -0.5110  2.0665
19526TIP3   OH279992   1.361   5.079   5.749 -0.0261  0.4118  0.4721
19526TIP3    H179993   1.277   5.038   5.769 -0.8421  1.8334  0.1517
19526TIP3    H279994   1.389   5.120   5.831  0.6189 -0.4567  0.7049
19527TIP3   OH279995   2.063   4.501  13.832  0.0030 -0.4758 -0.1080
19527TIP3    H179996   2.019   4.434  13.885  1.3755 -0.8534  0.5800
19527TIP3    H279997   2.006   4.511  13.755 -0.0123 -2.7675 -0.4546
19528TIP3   OH279998   2.468   5.901  15.257 -0.3244 -0.5131 -0.2430
19528TIP3    H179999   2.480   5.995  15.241  0.5578 -0.5851 -0.0831
19528TIP3    H280000   2.456   5.894  15.352 -2.6865 -0.3637 -0.4719
19529TIP3   OH280001   4.507   5.357   3.852 -0.6530  0.4611  0.1452
19529TIP3    H180002   4.580   5.362   3.914 -0.4655  1.8899 -0.1715
19529TIP3    H280003   4.442   5.304   3.897  0.3893 -0.4678  0.6214
19530TIP3   OH280004   6.108   3.489   1.820  0.7048  0.7299 -0.4800
19530TIP3    H180005   6.073   3.572   1.854  1.3661  1.4879 -1.5684
19530TIP3    H280006   6.030   3.436   1.803  0.2449  1.2647 -0.1249
19531TIP3   OH280007   5.923   1.347   2.453 -0.1933 -0.4671  0.2847
19531TIP3    H180008   6.009   1.365   2.416  0.1894 -0.2357  1.2373
19531TIP3    H280009   5.861   1.395   2.398  0.1282 -1.7158 -1.2301
19532TIP3   OH280010   0.547   0.727   3.403  0.0464  0.3762 -0.1604
19532TIP3    H180011   0.489   0.728   3.327 -1.5923  0.7637  1.0438
19532TIP3    H280012   0.498   0.682   3.471  1.5588 -0.1448  0.6364
19533TIP3   OH280013   6.026   1.969   4.082 -0.3670  0.3279 -0.1049
19533TIP3    H180014   6.040   1.953   3.989 -2.4374  2.6245 -0.9255
19533TIP3    H280015   5.943   1.926   4.102  2.0425 -3.9275  1.9289
19534TIP3   OH280016   2.671   5.125   3.349 -0.1228 -0.0877 -0.2327
19534TIP3    H180017   2.737   5.157   3.288  0.7877  0.9063  1.1870
19534TIP3    H280018   2.719   5.071   3.411 -0.7204  0.2024  0.5116
19535TIP3   OH280019   4.189   3.942  15.626 -0.5871 -0.8530 -0.3359
19535TIP3    H180020   4.228   3.881  15.564  0.2549 -0.6030 -0.0766
19535TIP3    H280021   4.224   3.915  15.711  0.8997  0.7784 -0.3639
19536TIP3   OH280022   6.125   5.310   3.597 -0.1543 -0.5534  0.6287
19536TIP3    H180023   6.174   5.360   3.532  2.3759 -0.1958  2.6560
19536TIP3    H280024   6.038   5.351   3.599  0.1000  0.1936 -1.5787
19537TIP3   OH280025   0.888   3.543  14.923  0.1229  0.1117 -0.1371
19537TIP3    H180026   0.943   3.489  14.979  2.4190  0.5964 -1.7559
19537TIP3    H280027   0.897   3.504  14.836 -0.1950  1.5879 -0.8715
19538TIP3   OH280028   2.205   0.360   0.851  0.0461 -0.3069 -0.5280
19538TIP3    H180029   2.188   0.310   0.771 -0.7174 -3.2374  1.3089
19538TIP3    H280030   2.136   0.426   0.854  0.4654  0.3046 -2.5298
19539TIP3   OH280031   6.620   0.385  12.713 -0.5344  1.1431  0.1727
19539TIP3    H180032   6.687   0.411  12.650 -0.0463  1.6695  0.8903
19539TIP3    H280033   6.539   0.424  12.679 -0.6258 -0.0390 -1.0451
19540TIP3   OH280034   3.962   6.234  15.736  0.1076 -0.6857 -0.1510
19540TIP3    H180035   4.056   6.232  15.754  0.0199  2.0741  1.0489
19540TIP3    H280036   3.922   6.189  15.810  0.4363 -1.2646 -0.3198
19541TIP3   OH280037   6.642   0.344  13.191  0.0106 -0.3983 -0.2021
19541TIP3    H180038   6.683   0.267  13.151  2.2216  0.4288  0.2880
19541TIP3    H280039   6.688   0.418  13.151  0.0609  0.5529  1.5346
19542TIP3   OH280040   6.445   1.497   0.114 -0.0070  0.2147  0.7012
19542TIP3    H180041   6.538   1.474   0.108 -0.0008  0.2857  0.5246
19542TIP3    H280042   6.436   1.575   0.060  0.1040  1.0701  1.8898
19543TIP3   OH280043   2.246   1.092  13.539 -0.1253 -0.1112  0.2320
19543TIP3    H180044   2.288   1.101  13.453 -0.1669 -0.5090  0.1698
19543TIP3    H280045   2.157   1.126  13.526 -0.2513 -0.5239  0.0237
19544TIP3   OH280046   2.744   3.337  16.094 -0.5242 -0.2144 -0.0955
19544TIP3    H180047   2.762   3.373  16.007 -1.5969  3.2539  0.9348
19544TIP3    H280048   2.813   3.273  16.108  0.6078  0.2249 -2.8602
19545TIP3   OH280049   1.809   4.527   4.168 -0.1435 -0.6884  0.5508
19545TIP3    H180050   1.870   4.455   4.149  1.3477  0.7051 -0.1365
19545TIP3    H280051   1.774   4.506   4.254  1.2186 -1.5982  0.9154
19546TIP3   OH280052   4.481   6.654   2.472 -0.2862 -0.0474 -0.4152
19546TIP3    H180053   4.562   6.663   2.423 -0.2276  1.3002 -0.0878
19546TIP3    H280054   4.425   6.599   2.416  0.0923  0.7328 -1.5862
19547TIP3   OH280055   6.190   2.138  16.378 -0.5893  0.2023  0.2061
19547TIP3    H180056   6.108   2.128  16.426 -1.0641 -1.1924 -0.8276
19547TIP3    H280057   6.169   2.200  16.308 -0.2546  1.2197  0.9882
19548TIP3   OH280058   0.143   4.302  11.116  0.1026 -0.0986  0.1828
19548TIP3    H180059   0.095   4.351  11.182 -0.4324  1.7516 -1.4749
19548TIP3    H280060   0.224   4.352  11.103  0.3062 -0.5628 -0.3857
19549TIP3   OH280061   3.454   0.779   3.900 -0.0383  0.4679  0.2146
19549TIP3    H180062   3.439   0.846   3.833  4.1229  2.0955  0.6166
19549TIP3    H280063   3.500   0.709   3.854  0.2426  0.2440  0.8359
19550TIP3   OH280064   1.368   5.055  15.359  0.5007 -0.1345 -0.0714
19550TIP3    H180065   1.377   4.964  15.388 -1.0384  0.1611  1.4186
19550TIP3    H280066   1.387   5.051  15.265  1.7883 -1.7519  0.2033
19551TIP3   OH280067   3.427   0.407  13.792  0.1887  0.1358 -0.2456
19551TIP3    H180068   3.507   0.444  13.829 -0.0045 -0.0549  0.3737
19551TIP3    H280069   3.360   0.426  13.857 -0.3092  0.4498 -0.8444
19552TIP3   OH280070   4.988   0.024  12.755 -0.1393  0.1761 -0.3825
19552TIP3    H180071   4.896   0.050  12.748 -0.0046  0.3012 -2.0380
19552TIP3    H280072   5.034   0.107  12.768 -0.3420 -0.0123  2.1242
19553TIP3   OH280073   5.474   5.215   2.066  0.6760 -0.2336 -0.1300
19553TIP3    H180074   5.548   5.275   2.056 -1.3538  2.3174 -0.9778
19553TIP3    H280075   5.472   5.194   2.159 -0.1364  3.3610  0.7891
19554TIP3   OH280076   0.604   2.101  11.380 -0.3438  0.3895  0.1021
19554TIP3    H180077   0.563   2.015  11.379 -1.2160  0.7612 -2.6112
19554TIP3    H280078   0.682   2.091  11.326 -0.5021  1.3168 -0.3182
19555TIP3   OH280079   2.115   4.590   2.397 -0.1138 -0.0891  0.4055
19555TIP3    H180080   2.151   4.647   2.465 -2.0691  3.3280 -1.1030
19555TIP3    H280081   2.028   4.566   2.429 -0.6160  0.6408 -0.3521
19556TIP3   OH280082   2.562   0.875  16.725 -0.0187  0.3011  0.2687
19556TIP3    H180083   2.514   0.793  16.715 -0.5316  0.6867 -0.5225
19556TIP3    H280084   2.497   0.943  16.707  0.7446  0.8447 -0.5002
19557TIP3   OH280085   3.815   2.850  10.425 -0.3963  0.2491 -0.1917
19557TIP3    H180086   3.726   2.822  10.446  0.0087 -0.8719  0.1147
19557TIP3    H280087   3.822   2.838  10.330 -0.3825 -0.2941 -0.1284
19558TIP3   OH280088   0.253   1.961  12.406  0.1806  0.0288 -0.3436
19558TIP3    H180089   0.172   1.955  12.456  1.1645  1.8901  1.6560
19558TIP3    H280090   0.306   1.887  12.437  0.2233  0.3220  0.2920
19559TIP3   OH280091   1.914   2.041   5.695  0.4398 -0.1608 -0.6270
19559TIP3    H180092   1.978   2.079   5.755  0.8486 -2.9431  0.8813
19559TIP3    H280093   1.965   2.013   5.619  0.9733 -1.6633  0.2324
19560TIP3   OH280094   2.684   2.484  11.107  0.0218 -0.2511 -0.0443
19560TIP3    H180095   2.662   2.448  11.021 -1.1867  0.6671 -0.1559
19560TIP3    H280096   2.773   2.455  11.123 -0.0327 -1.1607 -1.2257
19561TIP3   OH280097   2.073   4.379   3.993  0.1074 -0.3747  0.1502
19561TIP3    H180098   2.158   4.367   4.035 -0.2079  0.9009  1.1959
19561TIP3    H280099   2.011   4.334   4.050  0.0751 -1.4385 -0.6930
19562TIP3   OH280100   2.274   0.119   2.001  0.4477  0.4834 -0.3732
19562TIP3    H180101   2.259   0.110   1.907  1.5210 -0.8266 -0.4461
19562TIP3    H280102   2.314   0.036   2.027  0.0366  0.7620  1.2795
19563TIP3   OH280103   2.170   5.464   3.800 -0.2666 -0.1540  0.3229
19563TIP3    H180104   2.239   5.498   3.744 -1.1137  2.3630  0.6946
19563TIP3    H280105   2.111   5.418   3.740 -0.3037  1.0591 -0.5909
19564TIP3   OH280106   6.567   6.302   2.148 -0.1848 -0.6264 -0.7168
19564TIP3    H180107   6.624   6.302   2.071  1.0244  1.2096  0.1303
19564TIP3    H280108   6.623   6.276   2.220 -0.1016  1.9967  0.2771
19565TIP3   OH280109   3.428   3.859  14.339  0.1196 -0.0148 -0.3103
19565TIP3    H180110   3.411   3.953  14.332 -0.9294 -0.1274  0.4630
19565TIP3    H280111   3.435   3.843  14.433  1.5799 -0.5097 -0.4874
19566TIP3   OH280112   2.179   3.853   6.592 -0.0251 -0.0181 -0.0193
19566TIP3    H180113   2.150   3.936   6.630  0.3842 -0.4326  1.2664
19566TIP3    H280114   2.099   3.801   6.581 -0.0379 -0.3396  1.4436
19567TIP3   OH280115   4.838   1.609   1.913 -0.0045 -0.3906 -0.1516
19567TIP3    H180116   4.827   1.514   1.920  0.9372 -0.5402 -0.5909
19567TIP3    H280117   4.929   1.621   1.888 -0.3572  0.5841 -1.0639
19568TIP3   OH280118   0.762   6.618  13.896  0.0334  0.1594 -0.1093
19568TIP3    H180119   0.724   6.628  13.984 -0.9911  2.1516 -0.7219
19568TIP3    H280120   0.848   6.659  13.903  1.1523 -2.1422  0.6250
19569TIP3   OH280121   3.121   4.422  11.842  0.1760 -0.2092  0.2793
19569TIP3    H180122   3.155   4.364  11.774  0.4519  0.4994 -0.1889
19569TIP3    H280123   3.140   4.510  11.811 -0.2489  0.1397  0.9845
19570TIP3   OH280124   1.079   6.295  16.235 -0.0724  0.5932 -0.6438
19570TIP3    H180125   1.088   6.214  16.285 -2.0929  2.0683  2.4321
19570TIP3    H280126   0.987   6.297  16.210  0.2487  1.3472 -1.8251
19571TIP3   OH280127   1.438   0.548  16.697 -0.9531  0.2463  0.0976
19571TIP3    H180128   1.493   0.626  16.705  0.0832 -0.5199  0.6353
19571TIP3    H280129   1.476   0.485  16.758 -1.8695 -0.6338 -0.2089
19572TIP3   OH280130   3.345   4.346  13.083  0.3399  0.1966  0.2373
19572TIP3    H180131   3.415   4.410  13.090  0.0720  0.4068  1.0294
19572TIP3    H280132   3.279   4.388  13.028  0.2699  0.5071  0.5572
19573TIP3   OH280133   4.478   4.942  11.932 -0.1604  0.5639  0.4627
19573TIP3    H180134   4.457   4.912  11.843  0.1022 -0.2182  0.6567
19573TIP3    H280135   4.534   4.873  11.968  0.8736  1.5250  0.7559
19574TIP3   OH280136   0.864   2.955   4.946  0.0673  0.3206  0.5145
19574TIP3    H180137   0.956   2.956   4.921  0.3446 -0.0719  1.4775
19574TIP3    H280138   0.863   2.986   5.036 -0.9654  2.2286 -0.0901
19575TIP3   OH280139   6.709   6.003  16.294 -0.0254  0.3122  0.2143
19575TIP3    H180140   6.693   6.083  16.343 -1.3690 -0.3240  0.8824
19575TIP3    H280141   6.783   5.961  16.338  0.0737  0.7261  0.4433
19576TIP3   OH280142   0.248   4.435  12.163  0.2082  0.1017 -0.2713
19576TIP3    H180143   0.318   4.468  12.106 -1.9317  1.8119 -2.0988
19576TIP3    H280144   0.198   4.513  12.187 -0.1847 -0.8575  2.3462
19577TIP3   OH280145   1.401   4.169   1.276  0.0176  0.7545  0.0228
19577TIP3    H180146   1.387   4.120   1.357 -0.3732  0.6622 -0.0977
19577TIP3    H280147   1.496   4.180   1.270 -0.0354  2.3751  1.4408
19578TIP3   OH280148   4.974   0.152  14.347  0.1230 -0.1918  0.1814
19578TIP3    H180149   5.004   0.078  14.294  0.9806 -0.5367  1.1267
19578TIP3    H280150   4.953   0.220  14.283  1.5409 -0.4526 -0.5999
19579TIP3   OH280151   1.177   6.680   0.470  0.2711 -0.1521 -0.1423
19579TIP3    H180152   1.104   6.619   0.474  0.4598 -0.3416  0.4766
19579TIP3    H280153   1.148   6.756   0.521  0.5114 -0.2359  0.1206
19580TIP3   OH280154   2.647   4.080   6.305 -0.1297  0.0289 -0.3684
19580TIP3    H180155   2.584   4.148   6.282 -0.8292 -0.6530 -0.4930
19580TIP3    H280156   2.686   4.054   6.221  1.7895  1.8211 -0.1118
19581TIP3   OH280157   2.085   5.051  16.673 -0.0875 -0.0967  0.0783
19581TIP3    H180158   2.068   5.097  16.591  0.2304  1.0075  0.6258
19581TIP3    H280159   2.045   4.964  16.660 -1.0859  0.4752 -0.7972
19582TIP3   OH280160   1.714   0.802   1.635 -0.0148  0.0098  0.3320
19582TIP3    H180161   1.629   0.795   1.592 -0.6746 -0.3637  1.6596
19582TIP3    H280162   1.737   0.712   1.657  0.8094  0.0907 -0.1582
19583TIP3   OH280163   4.097   1.946  16.487  0.1523  0.2478 -0.3723
19583TIP3    H180164   4.164   1.926  16.553  0.7069  0.5301 -0.8383
19583TIP3    H280165   4.146   1.957  16.405 -0.4027  1.0424 -0.6120
19584TIP3   OH280166   1.231   5.313   1.037  0.6291  0.0322  0.0458
19584TIP3    H180167   1.286   5.313   1.116  1.5115 -0.4742 -0.5580
19584TIP3    H280168   1.285   5.272   0.970  0.6150  2.1299 -1.3285
19585TIP3   OH280169   5.795   0.427   1.737 -0.3209 -0.2206 -0.1089
19585TIP3    H180170   5.861   0.484   1.777 -0.9843  0.2561  0.3154
19585TIP3    H280171   5.820   0.423   1.644  0.5882 -0.4476  0.1326
19586TIP3   OH280172   6.465   2.735  15.813 -0.2910  0.0406  0.1840
19586TIP3    H180173   6.443   2.654  15.858  1.6900 -0.2441  0.7770
19586TIP3    H280174   6.494   2.708  15.726  1.0189 -0.0128  0.6065
19587TIP3   OH280175   5.112   5.084  12.389  0.0449 -0.0217 -0.6721
19587TIP3    H180176   5.123   5.168  12.344  2.4041  0.7434  1.1171
19587TIP3    H280177   5.196   5.068  12.431 -1.0508 -2.1952  0.9092
19588TIP3   OH280178   0.997   5.621  13.096 -0.8899  0.1269 -0.2246
19588TIP3    H180179   1.027   5.614  13.005 -1.1134  0.4502 -0.3263
19588TIP3    H280180   1.045   5.695  13.131 -0.1710 -0.5235  0.1796
19589TIP3   OH280181   0.008   5.606   2.648  0.1136  0.0115 -0.3746
19589TIP3    H180182   0.038   5.686   2.605  0.8259 -0.6012 -1.0531
19589TIP3    H280183  -0.079   5.590   2.613  0.7039 -0.5052 -1.6666
19590TIP3   OH280184   0.890   1.381  13.776  0.0615  0.0141  0.3234
19590TIP3    H180185   0.810   1.341  13.739 -0.1031 -0.2904  0.9970
19590TIP3    H280186   0.918   1.443  13.709  0.5360 -1.4789 -0.9484
19591TIP3   OH280187   0.939   2.542  12.432  0.2109  0.0199  0.1170
19591TIP3    H180188   0.968   2.631  12.414 -0.6235  0.6684  1.7375
19591TIP3    H280189   1.019   2.494  12.450  0.5453  1.0331  1.5032
19592TIP3   OH280190   2.925   0.357  15.157 -0.0952  0.2804 -0.0656
19592TIP3    H180191   2.840   0.352  15.199  0.4692 -0.8304  1.0173
19592TIP3    H280192   2.970   0.429  15.201 -0.0697  0.1193  0.1767
19593TIP3   OH280193   2.652   3.703   2.015  0.1861 -0.7586 -0.5610
19593TIP3    H180194   2.673   3.610   2.013 -0.2309 -0.8543 -2.3164
19593TIP3    H280195   2.689   3.738   1.933 -1.4559  0.1864 -0.9411
19594TIP3   OH280196   6.769   0.813   1.660 -0.7341 -0.1605  0.3238
19594TIP3    H180197   6.854   0.856   1.669 -0.8257  0.3234 -0.8421
19594TIP3    H280198   6.786   0.721   1.675  0.3763 -0.3318 -1.6413
19595TIP3   OH280199   0.188   2.135  11.802 -0.2346 -0.0449  0.6458
19595TIP3    H180200   0.264   2.193  11.814  0.1285 -0.2751 -0.4928
19595TIP3    H280201   0.116   2.195  11.784  0.0672  0.0930 -0.1646
19596TIP3   OH280202   4.017   1.657  16.167  0.2743  0.3777 -0.4061
19596TIP3    H180203   4.091   1.710  16.138 -0.0766  0.8511 -0.4504
19596TIP3    H280204   3.978   1.709  16.237  0.2464 -0.0767 -0.0882
19597TIP3   OH280205   5.237   6.737  16.926 -0.3073  0.4310  0.4730
19597TIP3    H180206   5.314   6.700  16.884  0.1500  1.4134  0.4223
19597TIP3    H280207   5.180   6.764  16.854 -0.8475 -0.5558  0.5093
19598TIP3   OH280208   3.037   3.916  12.008  0.0366 -0.4650  0.0739
19598TIP3    H180209   2.976   3.906  12.081  2.0892  0.8509  2.1129
19598TIP3    H280210   3.033   4.009  11.985  0.3198 -0.6259 -0.6677
19599TIP3   OH280211   5.955   2.682   3.585  0.1009 -0.5487 -0.4698
19599TIP3    H180212   6.000   2.621   3.526 -0.5803 -1.2521 -0.2759
19599TIP3    H280213   5.862   2.660   3.576 -0.0259 -0.6050  0.7898
19600TIP3   OH280214   3.050   2.105  15.629 -0.7264  0.2184  0.1311
19600TIP3    H180215   3.139   2.079  15.606 -1.6825 -3.8724  0.3525
19600TIP3    H280216   3.050   2.111  15.724 -0.5797  0.8094  0.0981
19601TIP3   OH280217   5.800   0.653   5.126 -0.4146 -0.6009 -0.2420
19601TIP3    H180218   5.766   0.731   5.171  0.4673 -1.3317  1.7913
19601TIP3    H280219   5.771   0.580   5.179 -1.3693 -1.7445 -2.2204
19602TIP3   OH280220   1.637   6.616  16.265 -0.1597  0.0114  0.2977
19602TIP3    H180221   1.555   6.611  16.315  0.0648 -3.1764  0.5419
19602TIP3    H280222   1.705   6.628  16.331 -0.1244 -1.3277  0.5352
19603TIP3   OH280223   3.852   1.990  13.018 -0.2363  0.7221  0.2101
19603TIP3    H180224   3.820   2.025  13.101  1.2472  1.2428  0.5972
19603TIP3    H280225   3.922   1.929  13.043  0.8454  1.5564 -0.6566
19604TIP3   OH280226   0.556   0.491   2.884  0.3658 -0.0520 -0.2621
19604TIP3    H180227   0.574   0.465   2.794 -3.1493 -1.1617 -0.8058
19604TIP3    H280228   0.578   0.415   2.937 -1.0146 -0.7824 -0.6942
19605TIP3   OH280229   6.395   0.356  11.035  0.4443  0.2586 -0.2507
19605TIP3    H180230   6.324   0.344  11.099  0.3168 -0.7855 -0.5811
19605TIP3    H280231   6.475   0.350  11.087  0.3408  3.4295  0.4867
19606TIP3   OH280232   1.307   3.790   3.664  0.1084 -0.7644 -0.2318
19606TIP3    H180233   1.289   3.878   3.631  0.2143 -1.4154 -2.1186
19606TIP3    H280234   1.380   3.759   3.612  1.1894 -1.3732  1.5599
19607TIP3   OH280235   1.671   1.448   2.570 -0.0490 -0.4883  0.7785
19607TIP3    H180236   1.622   1.382   2.521 -0.1391 -0.5117  0.8967
19607TIP3    H280237   1.757   1.451   2.528 -0.5205  0.3741 -0.1698
19608TIP3   OH280238   5.412   1.967  17.166  0.0948 -0.7627  0.3069
19608TIP3    H180239   5.422   1.988  17.259  1.1810 -0.1165  0.0587
19608TIP3    H280240   5.326   1.925  17.160 -1.0419  1.2751  1.2524
19609TIP3   OH280241   2.615   3.920   3.746 -0.3612 -0.3722 -0.7053
19609TIP3    H180242   2.526   3.886   3.738  0.1144 -1.4883 -1.4252
19609TIP3    H280243   2.611   4.008   3.709 -1.4954  0.2183  0.7052
19610TIP3   OH280244   2.278   4.065   5.125  0.0728  0.6984  0.9088
19610TIP3    H180245   2.337   4.037   5.195  1.4444 -0.6550 -0.6788
19610TIP3    H280246   2.268   3.988   5.069  0.4417  2.1399 -1.2934
19611TIP3   OH280247   1.330   1.579  13.291 -0.0307 -0.0923 -0.7802
19611TIP3    H180248   1.323   1.484  13.293 -0.7729 -0.0643  2.0429
19611TIP3    H280249   1.250   1.608  13.246 -0.6461 -0.7783 -0.1521
19612TIP3   OH280250   4.377   2.881   5.311  0.6059 -0.5642 -0.4611
19612TIP3    H180251   4.283   2.890   5.297  0.7601 -0.1640 -1.3417
19612TIP3    H280252   4.387   2.799   5.360 -0.1681 -0.8493 -0.7728
19613TIP3   OH280253   4.317   0.103  11.157 -0.5579  0.0967  0.5868
19613TIP3    H180254   4.393   0.076  11.105 -1.7275 -1.3413 -0.4703
19613TIP3    H280255   4.355   0.136  11.238  1.2039 -0.6238  0.1225
19614TIP3   OH280256   2.174   4.759  11.451  0.2550  0.5424 -0.0680
19614TIP3    H180257   2.154   4.852  11.462 -2.7271 -0.1705  1.7617
19614TIP3    H280258   2.115   4.729  11.381 -0.6093 -0.3761  1.0010
19615TIP3   OH280259   1.246   6.634  11.120  0.2033  0.0123 -0.2230
19615TIP3    H180260   1.304   6.559  11.114  0.8001  0.4841 -0.4764
19615TIP3    H280261   1.214   6.648  11.031  1.1027  0.8208 -0.4481
19616TIP3   OH280262   1.213   0.813   0.475 -0.5450 -0.2920 -0.3684
19616TIP3    H180263   1.289   0.764   0.444  0.1551 -2.0870  3.6660
19616TIP3    H280264   1.146   0.747   0.493 -2.2807  1.0380 -1.4828
19617TIP3   OH280265   4.784   3.639   4.783 -0.1272 -0.1854 -0.0052
19617TIP3    H180266   4.830   3.716   4.752  1.2675 -0.4854  1.2348
19617TIP3    H280267   4.803   3.571   4.717 -0.8165  0.3187 -0.7479
19618TIP3   OH280268   4.699   4.167  14.144  0.1233 -0.1765 -0.3496
19618TIP3    H180269   4.636   4.239  14.155 -0.5572 -0.6798 -0.9083
19618TIP3    H280270   4.747   4.189  14.065  3.1514  2.0352  1.8591
19619TIP3   OH280271   6.044   4.021  12.014  0.3568  0.3179  0.2181
19619TIP3    H180272   6.076   3.978  11.934 -0.2034  0.0511  0.1331
19619TIP3    H280273   5.971   4.075  11.984 -0.5892 -0.6398  0.7027
19620TIP3   OH280274   2.008   0.422  10.237 -0.0231 -0.3862  0.8193
19620TIP3    H180275   2.034   0.481  10.307  0.8942  0.6716 -0.3744
19620TIP3    H280276   2.063   0.344  10.249  0.3324 -0.0946  1.0909
19621TIP3   OH280277   1.874   2.520  12.744  0.0061  0.0780 -0.3006
19621TIP3    H180278   1.812   2.594  12.738 -0.3583  0.0053  1.7047
19621TIP3    H280279   1.835   2.452  12.690  0.0291  1.1239 -1.6925
19622TIP3   OH280280   3.717   5.770  11.847 -0.3759 -0.5450 -0.0659
19622TIP3    H180281   3.734   5.681  11.816 -2.8016 -0.7950 -0.8760
19622TIP3    H280282   3.760   5.827  11.783 -0.1167 -1.1193 -0.4036
19623TIP3   OH280283   0.099   3.337  14.537  0.2260 -0.2621  0.2188
19623TIP3    H180284   0.016   3.383  14.529 -1.1342 -2.6190  0.0124
19623TIP3    H280285   0.136   3.339  14.448 -0.2568 -0.3761  0.0138
19624TIP3   OH280286   0.822   2.901   4.174 -0.5507  0.2345 -0.3533
19624TIP3    H180287   0.865   2.918   4.258 -0.1402  0.0377 -0.5269
19624TIP3    H280288   0.892   2.875   4.115 -1.0822 -1.5996 -0.2366
19625TIP3   OH280289   2.511   3.984   5.974  0.0082  0.6733  1.0285
19625TIP3    H180290   2.546   3.917   6.032  0.9915  0.2660  0.0059
19625TIP3    H280291   2.574   4.056   5.980  1.0296 -0.0041 -0.7079
19626TIP3   OH280292   2.175   5.081   0.822  0.1295 -0.1177 -1.2724
19626TIP3    H180293   2.250   5.097   0.879 -0.3589  0.5298 -0.7907
19626TIP3    H280294   2.135   5.001   0.856 -0.4491  0.5363 -0.3614
19627TIP3   OH280295   3.302   2.786   0.633  0.2103 -0.4229  0.2131
19627TIP3    H180296   3.340   2.874   0.633 -0.2849 -0.1996 -0.9686
19627TIP3    H280297   3.255   2.779   0.550 -1.1685 -1.1955  1.0124
19628TIP3   OH280298   6.704   2.018   1.282  0.0401  0.2894  0.4306
19628TIP3    H180299   6.769   1.952   1.307  0.0169  0.9359  2.3691
19628TIP3    H280300   6.756   2.088   1.242  0.2000 -0.3208 -0.4774
19629TIP3   OH280301   3.493   3.567   5.933 -0.7661  0.3783  0.2200
19629TIP3    H180302   3.542   3.644   5.963 -0.6633 -0.4350  2.2864
19629TIP3    H280303   3.413   3.568   5.985 -1.2306 -0.3910 -0.4464
19630TIP3   OH280304   1.971   4.852   3.585 -0.9000  0.0592  0.9887
19630TIP3    H180305   1.888   4.901   3.584 -3.1619 -3.3492 -0.3001
19630TIP3    H280306   1.957   4.783   3.520  3.3412 -0.2599  0.1803
19631TIP3   OH280307   5.639   0.676  12.262  0.0908  0.0231  0.0052
19631TIP3    H180308   5.576   0.611  12.232  1.9938 -1.4269 -1.0756
19631TIP3    H280309   5.588   0.736  12.316 -1.9804 -1.6742  0.0496
19632TIP3   OH280310   0.104   3.842  15.883  0.0125  0.1554  0.0114
19632TIP3    H180311   0.117   3.863  15.976 -1.4608 -0.1133  0.2924
19632TIP3    H280312   0.019   3.800  15.879  1.0296 -1.9349 -1.1670
19633TIP3   OH280313   3.748   2.967   1.484 -0.1814  0.4853 -0.8349
19633TIP3    H180314   3.682   2.989   1.549  0.4177 -0.1103 -0.0025
19633TIP3    H280315   3.743   2.872   1.474  0.2942  0.4740 -1.0328
19634TIP3   OH280316   1.173   0.000  15.781  0.4677 -0.0540  0.0987
19634TIP3    H180317   1.257   0.027  15.819  0.7574 -2.0348  0.9745
19634TIP3    H280318   1.157  -0.087  15.817 -0.0779 -1.3679 -2.9739
19635TIP3   OH280319   2.488   0.702   0.490  0.3557  0.9683 -0.2052
19635TIP3    H180320   2.460   0.631   0.548 -0.0179 -1.9479 -3.5876
19635TIP3    H280321   2.583   0.704   0.498  0.4196 -0.3140 -0.3873
19636TIP3   OH280322   3.737   2.976  11.130  0.0783 -0.0122  0.5101
19636TIP3    H180323   3.668   3.011  11.073  0.3962 -0.0731  0.0883
19636TIP3    H280324   3.793   3.052  11.150  0.3895 -0.1434  0.1358
19637TIP3   OH280325   5.125   3.692   4.666 -0.0670 -0.0440  0.0360
19637TIP3    H180326   5.100   3.686   4.758 -2.0732 -0.2708 -0.4869
19637TIP3    H280327   5.156   3.603   4.643  3.0621  0.6334  1.1123
19638TIP3   OH280328   3.471   0.719  11.294  0.3837  0.0542  0.3301
19638TIP3    H180329   3.535   0.716  11.365 -0.9623 -0.5009  1.5975
19638TIP3    H280330   3.450   0.628  11.276 -0.5617  0.2390  0.4426
19639TIP3   OH280331   5.059   2.217  11.884 -0.3665  0.6262  0.1307
19639TIP3    H180332   5.043   2.133  11.841  2.2774 -0.3420  0.8762
19639TIP3    H280333   5.067   2.279  11.812 -0.1007 -0.1796 -0.5515
19640TIP3   OH280334   0.877   5.616  12.523 -0.3472 -0.4542 -1.0116
19640TIP3    H180335   0.863   5.691  12.465 -0.4939 -0.3928 -0.8975
19640TIP3    H280336   0.791   5.600  12.563  0.2468  1.0165  1.0153
19641TIP3   OH280337   6.033   4.903   2.111 -0.7530 -0.5352  0.1672
19641TIP3    H180338   5.953   4.874   2.068 -0.7717  0.9853 -0.8686
19641TIP3    H280339   6.100   4.842   2.081 -1.3760 -1.4291  0.5435
19642TIP3   OH280340   6.500   2.494  13.166 -0.2453  0.3664 -0.8409
19642TIP3    H180341   6.488   2.588  13.181  0.8610  0.3364  0.4065
19642TIP3    H280342   6.543   2.490  13.080  1.5328  1.1743 -0.0578
19643TIP3   OH280343   1.942   6.238  13.065 -0.3871  0.1707 -0.2280
19643TIP3    H180344   1.872   6.232  13.131  0.4865  0.7041  0.7809
19643TIP3    H280345   1.896   6.259  12.984 -1.2705  2.4269  0.7804
19644TIP3   OH280346   6.556   1.268   2.215  0.1254  0.1410  0.0391
19644TIP3    H180347   6.486   1.202   2.215  0.7805 -0.5892  1.8243
19644TIP3    H280348   6.612   1.244   2.288  0.6873  2.3865  0.4087
19645TIP3   OH280349   3.584   6.707   1.247 -0.2928  0.0559  0.8256
19645TIP3    H180350   3.556   6.659   1.170  1.0902  0.8891 -0.2605
19645TIP3    H280351   3.667   6.666   1.272 -0.7170 -0.1949  1.8747
19646TIP3   OH280352   4.454   5.501   3.310  0.0445 -0.2167 -0.2030
19646TIP3    H180353   4.378   5.558   3.321  0.2808 -0.2478  2.1139
19646TIP3    H280354   4.515   5.529   3.379  2.5941  0.4543 -2.5656
19647TIP3   OH280355   2.621   5.225  11.665  0.2593 -0.1638  0.2735
19647TIP3    H180356   2.623   5.196  11.573  0.2900 -0.8488  0.4877
19647TIP3    H280357   2.594   5.148  11.714  1.7783 -0.2454  1.0237
19648TIP3   OH280358   5.715   6.350   2.483 -0.3991 -0.2512  0.5634
19648TIP3    H180359   5.770   6.403   2.540 -0.3442 -1.0475  1.2642
19648TIP3    H280360   5.676   6.284   2.541 -2.3386  0.4735  0.1527
19649TIP3   OH280361   3.600   1.038  15.520 -1.0019 -0.8972  0.5119
19649TIP3    H180362   3.534   1.089  15.472 -0.2997  0.2069  0.7031
19649TIP3    H280363   3.581   1.055  15.612 -0.7680 -0.9825  0.5763
19650TIP3   OH280364   3.254   1.126   1.713 -0.0644  0.1665 -0.0927
19650TIP3    H180365   3.263   1.096   1.623  0.5160 -0.8962  0.3049
19650TIP3    H280366   3.161   1.112   1.734  0.1305 -1.1238 -0.0120
19651TIP3   OH280367   0.795   0.164   3.469 -0.1715  0.0855 -0.0962
19651TIP3    H180368   0.777   0.154   3.376  1.0995  0.0303 -0.3548
19651TIP3    H280369   0.865   0.230   3.474  0.1351 -0.2832  0.7775
19652TIP3   OH280370   3.654   3.403   1.464 -0.9360 -0.1508  0.6492
19652TIP3    H180371   3.705   3.470   1.510 -0.3050 -0.5796  0.5959
19652TIP3    H280372   3.627   3.343   1.533 -0.7991 -0.2792  0.5932
19653TIP3   OH280373   5.201   6.108   5.308  0.1643 -0.5361  0.0605
19653TIP3    H180374   5.287   6.115   5.349  0.2996  1.2950 -0.4563
19653TIP3    H280375   5.196   6.017   5.277  3.0890 -0.0115 -2.4160
19654TIP3   OH280376   4.855   6.375  11.485 -0.6283 -0.6482 -0.1705
19654TIP3    H180377   4.924   6.436  11.460 -0.4706 -1.4980 -1.9880
19654TIP3    H280378   4.902   6.293  11.502 -1.0387 -0.7929  0.2882
19655TIP3   OH280379   5.327   4.007  15.545 -0.4039 -0.4799  0.0381
19655TIP3    H180380   5.234   4.013  15.524 -0.8188  2.9062  2.0470
19655TIP3    H280381   5.336   3.924  15.592 -2.5858 -0.5120  0.5047
19656TIP3   OH280382   6.522   0.305   4.509 -0.2924  0.5186  0.7994
19656TIP3    H180383   6.491   0.395   4.503  1.8373  1.4476  2.3555
19656TIP3    H280384   6.538   0.291   4.603  1.6805 -0.6116  0.3636
19657TIP3   OH280385   5.291   1.805   3.221 -1.0918  0.5972  0.2385
19657TIP3    H180386   5.270   1.760   3.140  0.2469  1.6170 -0.7215
19657TIP3    H280387   5.327   1.890   3.193  1.8082  0.0116  1.7360
19658TIP3   OH280388   3.805   5.017  13.927 -0.4156  0.6219 -0.3275
19658TIP3    H180389   3.730   4.959  13.920 -0.2150  0.3956 -0.5930
19658TIP3    H280390   3.770   5.097  13.968 -0.3879 -0.2382  1.4631
19659TIP3   OH280391   3.493   5.947  11.058 -0.0481 -0.1554 -0.3944
19659TIP3    H180392   3.441   6.027  11.047  0.0983  0.2214  1.3567
19659TIP3    H280393   3.566   5.958  10.997  0.7487  1.7529  0.8215
19660TIP3   OH280394   6.532   2.054  11.478 -0.1250  0.0112 -0.1311
19660TIP3    H180395   6.562   2.064  11.569 -0.3899 -0.6040  0.0331
19660TIP3    H280396   6.439   2.074  11.481  0.3145  2.4001 -0.7319
19661TIP3   OH280397   1.697   4.354  16.697 -0.2287 -0.0470 -0.5726
19661TIP3    H180398   1.684   4.276  16.751 -1.7448 -0.8819 -2.0302
19661TIP3    H280399   1.765   4.329  16.634  1.4681  0.8904  0.8197
19662TIP3   OH280400   2.983   5.223   4.677  0.1866  0.3706 -0.4156
19662TIP3    H180401   2.985   5.305   4.727 -1.0859  1.4710 -2.0663
19662TIP3    H280402   2.938   5.161   4.735 -2.8207  2.0884 -0.7558
19663TIP3   OH280403   0.151   6.146  14.086  0.7706 -0.3271  0.0359
19663TIP3    H180404   0.202   6.065  14.087  2.6322  0.7345 -1.5227
19663TIP3    H280405   0.181   6.193  14.164  0.4495 -0.6887  0.3811
19664TIP3   OH280406   0.210   5.870   5.221  0.8514  0.1645  0.2578
19664TIP3    H180407   0.250   5.917   5.294 -1.0747 -1.1665  2.3098
19664TIP3    H280408   0.130   5.919   5.203  1.4847  0.6848 -1.2552
19665TIP3   OH280409   2.034   3.175  12.545 -0.1869 -0.0917 -0.9332
19665TIP3    H180410   1.969   3.146  12.610  1.0125 -1.4310 -0.2793
19665TIP3    H280411   2.034   3.270  12.553 -2.2692 -0.0162 -1.1629
19666TIP3   OH280412   5.507   1.865  14.735 -0.4890 -0.1249  0.3470
19666TIP3    H180413   5.515   1.799  14.803 -0.1223  1.6469  2.1077
19666TIP3    H280414   5.427   1.841  14.689 -3.0084  0.7006  3.8756
19667TIP3   OH280415   5.244   0.756   6.036 -0.0700 -0.3261 -0.4056
19667TIP3    H180416   5.218   0.749   6.127  1.9240  2.4711  0.5035
19667TIP3    H280417   5.303   0.681   6.022  1.3544  0.3793  1.3454
19668TIP3   OH280418   0.306   2.890   5.904 -0.1373  0.2938 -0.3584
19668TIP3    H180419   0.284   2.870   5.995  1.5604 -0.3565 -0.0477
19668TIP3    H280420   0.376   2.827   5.883  1.2944  2.0999 -1.2710
19669TIP3   OH280421   1.574   1.577  12.103  0.1227 -0.1092  0.5191
19669TIP3    H180422   1.532   1.516  12.164  0.0500  2.1700  2.9567
19669TIP3    H280423   1.646   1.614  12.154  0.2971  1.6622 -0.9242
19670TIP3   OH280424   4.347   2.565   0.908  0.3229  0.0760  0.1062
19670TIP3    H180425   4.362   2.470   0.908 -0.3540 -0.0484  1.2527
19670TIP3    H280426   4.423   2.601   0.953  0.5218  0.0656 -0.2221
19671TIP3   OH280427   3.632   4.893  12.146  0.0763  0.2108  0.2797
19671TIP3    H180428   3.647   4.851  12.231  1.2110  1.3517  0.6784
19671TIP3    H280429   3.642   4.987  12.164 -0.5158  0.5321 -0.9543
19672TIP3   OH280430   1.958   1.806   4.505  0.3457 -0.3316 -0.0830
19672TIP3    H180431   1.928   1.878   4.450 -1.5501 -0.9152  0.1194
19672TIP3    H280432   2.030   1.767   4.455 -0.3113  0.1083 -1.4287
19673TIP3   OH280433   3.809   1.386   1.274  0.5703 -0.1758 -0.0442
19673TIP3    H180434   3.727   1.368   1.320  0.4610  3.0866  1.3383
19673TIP3    H280435   3.875   1.339   1.324 -0.1710 -0.8893  0.2894
19674TIP3   OH280436   0.795   4.441   4.371  0.1668  0.8448 -0.2099
19674TIP3    H180437   0.712   4.469   4.409 -0.0723  1.4196 -1.1208
19674TIP3    H280438   0.793   4.476   4.282  0.2738 -1.2501 -1.0981
19675TIP3   OH280439   0.670   2.921   6.030 -0.2787  0.3912 -0.2141
19675TIP3    H180440   0.662   2.826   6.015  0.3682  0.2234  0.4224
19675TIP3    H280441   0.762   2.940   6.012  0.2525  0.4018  2.1960
19676TIP3   OH280442   5.027   5.603  11.949 -0.6288  0.0864  0.4261
19676TIP3    H180443   5.118   5.579  11.934 -0.2792  0.8032  1.2730
19676TIP3    H280444   4.984   5.591  11.865  0.2519 -0.2275  0.0103
19677TIP3   OH280445   3.032   2.171   2.986 -0.0428 -0.3300  0.1160
19677TIP3    H180446   3.067   2.235   3.048  0.6603 -0.7817  0.2020
19677TIP3    H280447   3.007   2.222   2.910 -0.7778  0.2163  0.7091
19678TIP3   OH280448   2.038   2.066   1.099 -0.0625 -0.1486 -0.2758
19678TIP3    H180449   1.954   2.062   1.145 -0.3830 -0.3215 -0.8622
19678TIP3    H280450   2.028   2.005   1.026  1.2958 -1.6991  0.7882
19679TIP3   OH280451   2.588   5.526  11.624  0.5808 -0.3029  0.4647
19679TIP3    H180452   2.660   5.535  11.562  0.0939  3.7908  0.2025
19679TIP3    H280453   2.566   5.433  11.622  1.1388 -0.6278 -4.8668
19680TIP3   OH280454   6.216   6.173   3.144  0.2930  0.2891  0.0049
19680TIP3    H180455   6.137   6.222   3.121  0.4851  0.6424  0.1009
19680TIP3    H280456   6.238   6.124   3.065 -0.3974 -0.3195  0.1788
19681TIP3   OH280457   4.798   0.134  17.057 -0.1712 -0.4016 -0.1597
19681TIP3    H180458   4.861   0.147  16.986  0.2029 -1.0464  0.0488
19681TIP3    H280459   4.731   0.077  17.019 -0.6237  0.2495 -0.3680
19682TIP3   OH280460   4.520   2.962   5.101  0.6365 -0.4502 -0.0263
19682TIP3    H180461   4.447   2.965   5.163  1.0480 -0.1826  0.4443
19682TIP3    H280462   4.536   2.869   5.087 -0.4760 -0.5356 -0.9453
19683TIP3   OH280463   1.298   4.142   5.373 -0.3680 -0.8042 -0.5105
19683TIP3    H180464   1.337   4.090   5.443  2.5693 -2.2857 -3.0560
19683TIP3    H280465   1.348   4.223   5.372 -0.9337 -0.4453 -0.4364
19684TIP3   OH280466   5.367   1.262  11.723 -0.0093  0.4707  0.1442
19684TIP3    H180467   5.383   1.248  11.630 -2.7662 -3.2793  0.0075
19684TIP3    H280468   5.350   1.175  11.758 -2.1954  2.0336  3.5038
19685TIP3   OH280469   3.637   4.174  16.358 -0.0082  0.0332 -0.1812
19685TIP3    H180470   3.583   4.149  16.433 -2.1076  1.0809 -1.2589
19685TIP3    H280471   3.631   4.099  16.299  0.9241 -0.4354  0.3080
19686TIP3   OH280472   4.686   2.521  11.854  0.7423  0.5524  0.1122
19686TIP3    H180473   4.609   2.469  11.833  0.0737  0.2475  2.9572
19686TIP3    H280474   4.743   2.510  11.778 -0.8336 -1.4666 -0.8853
19687TIP3   OH280475   5.743   3.352   1.374  0.3932 -0.4970  0.3072
19687TIP3    H180476   5.694   3.372   1.454 -1.3782 -0.0734 -0.8121
19687TIP3    H280477   5.818   3.411   1.377 -0.6423  0.8622  0.7983
19688TIP3   OH280478   2.108   0.054   0.983  0.3300  0.2943  0.3406
19688TIP3    H180479   2.117   0.059   0.888  0.0918 -1.6239  0.1811
19688TIP3    H280480   2.015   0.039   0.998  0.2294  1.4028  0.9479
19689TIP3   OH280481   0.204   6.451  16.509 -0.0355  0.0785 -0.2741
19689TIP3    H180482   0.240   6.374  16.554  0.1440  0.5223  0.3472
19689TIP3    H280483   0.146   6.414  16.442 -1.5700 -0.5967  1.3387
19690TIP3   OH280484   5.040   0.457  11.303  0.1214  0.4785 -0.3899
19690TIP3    H180485   5.099   0.387  11.273  1.4344  1.0399  0.7776
19690TIP3    H280486   4.961   0.410  11.332  0.8625 -0.5144  0.1020
19691TIP3   OH280487   6.457   0.629  16.831 -0.1528  0.5820 -0.2457
19691TIP3    H180488   6.420   0.541  16.841 -3.4081  1.9534  0.9817
19691TIP3    H280489   6.512   0.640  16.908 -0.6118  0.0046  0.1823
19692TIP3   OH280490   6.162   1.478  11.123  0.7428  0.2710 -0.2917
19692TIP3    H180491   6.169   1.397  11.173  0.7317  0.5484  0.1623
19692TIP3    H280492   6.104   1.456  11.050  0.2736  0.0316  0.1475
19693TIP3   OH280493   1.825   3.473   2.586  0.4344 -0.0646 -0.5478
19693TIP3    H180494   1.892   3.443   2.525 -0.3447 -0.4555 -1.2257
19693TIP3    H280495   1.846   3.565   2.602  1.8226 -0.4729  0.1800
19694TIP3   OH280496   4.383   6.117   0.905 -0.2933  0.3976 -0.2374
19694TIP3    H180497   4.457   6.101   0.847  0.5184 -0.8629  1.0600
19694TIP3    H280498   4.311   6.067   0.867  0.4961 -1.2381  0.3182
19695TIP3   OH280499   3.795   2.552  11.818 -0.2891  0.1550  0.0040
19695TIP3    H180500   3.769   2.642  11.839  1.0837  0.3835  0.8947
19695TIP3    H280501   3.818   2.514  11.903 -0.4152 -0.9050 -0.4206
19696TIP3   OH280502   5.660   0.294  13.398  0.2953  0.1644 -0.0466
19696TIP3    H180503   5.646   0.232  13.327 -2.5423 -0.8666  1.2338
19696TIP3    H280504   5.657   0.240  13.477 -1.9317  1.8098  1.0985
19697TIP3   OH280505   0.392   0.505  13.615  0.3648 -0.0474 -0.0967
19697TIP3    H180506   0.314   0.450  13.612  1.0835 -1.0558 -0.8732
19697TIP3    H280507   0.465   0.444  13.619  1.1919  0.8334 -1.0041
19698TIP3   OH280508   6.016   2.816   1.491 -0.4745 -0.0333 -0.0470
19698TIP3    H180509   5.937   2.827   1.544  1.1425 -0.0794  2.5634
19698TIP3    H280510   5.995   2.743   1.433 -2.3320 -0.0819  0.6056
19699TIP3   OH280511   0.305   3.255  11.105 -0.0594  0.1962  0.0161
19699TIP3    H180512   0.227   3.200  11.107 -0.0601  0.2076  0.6423
19699TIP3    H280513   0.273   3.341  11.078 -0.0663 -0.0837 -0.9090
19700TIP3   OH280514   2.782   5.960   2.111  0.0799 -0.6383  0.4879
19700TIP3    H180515   2.844   6.025   2.145  0.6002 -0.8620 -0.0088
19700TIP3    H280516   2.838   5.895   2.068 -0.4953 -0.9460  0.2047
19701TIP3   OH280517   3.263   4.097   4.260  0.0721 -0.1161 -0.3894
19701TIP3    H180518   3.175   4.121   4.231 -0.9394 -0.0632  2.4004
19701TIP3    H280519   3.307   4.181   4.274 -0.1408 -0.0882  0.1321
19702TIP3   OH280520   6.396   6.432   1.232 -0.1188 -0.1029 -0.2477
19702TIP3    H180521   6.320   6.448   1.177 -0.1022 -0.6566 -0.4400
19702TIP3    H280522   6.375   6.474   1.315 -0.2509  0.5232 -0.5907
19703TIP3   OH280523   1.692   0.682   4.531 -0.8630  0.7204  0.2597
19703TIP3    H180524   1.631   0.631   4.478 -1.6785  1.8455  0.0770
19703TIP3    H280525   1.695   0.636   4.615 -0.2852 -0.5468 -0.4238
19704TIP3   OH280526   5.290   1.198   2.055  0.6362 -0.1715 -0.0785
19704TIP3    H180527   5.203   1.231   2.031  0.8976  1.9823  1.5824
19704TIP3    H280528   5.338   1.194   1.972 -0.5103  0.3896 -0.7919
19705TIP3   OH280529   2.754   1.244  13.988 -0.4169  0.0097 -0.1053
19705TIP3    H180530   2.826   1.293  14.026  0.4207 -2.6128  1.9859
19705TIP3    H280531   2.693   1.229  14.061 -0.0006 -3.0175 -0.2324
19706TIP3   OH280532   5.203   5.110   2.040  0.0345 -0.1644  0.3938
19706TIP3    H180533   5.295   5.117   2.062  0.5286 -0.2414 -1.4861
19706TIP3    H280534   5.165   5.195   2.066  1.1123  0.7317 -0.8733
19707TIP3   OH280535   5.391   2.174   4.747  0.0066  0.1625  0.0227
19707TIP3    H180536   5.438   2.203   4.825 -3.6433 -0.9356  2.9202
19707TIP3    H280537   5.331   2.246   4.726 -1.8875 -1.0706  0.8857
19708TIP3   OH280538   3.795   5.195  17.160  0.0759  0.3772 -0.0801
19708TIP3    H180539   3.805   5.240  17.076  1.0374 -3.8062 -2.5096
19708TIP3    H280540   3.883   5.196  17.198  0.2404  0.0349 -0.4442
19709TIP3   OH280541   0.014   4.323   0.630  0.3793 -0.1217  0.1699
19709TIP3    H180542  -0.071   4.303   0.590  0.2332  0.5779  0.1230
19709TIP3    H280543   0.078   4.295   0.565  0.1545  0.5257 -0.3446
19710TIP3   OH280544   4.161   1.122  13.141 -0.1173  0.1636  0.5505
19710TIP3    H180545   4.178   1.072  13.062 -1.4455 -0.4069  0.6036
19710TIP3    H280546   4.179   1.213  13.116 -0.1806 -0.0494 -0.2995
19711TIP3   OH280547   6.404   3.669  10.547  0.1014  0.7581 -0.3426
19711TIP3    H180548   6.462   3.741  10.574  0.9693  0.6549 -1.8677
19711TIP3    H280549   6.316   3.701  10.567  0.4945  2.1244 -0.6933
19712TIP3   OH280550   4.000   2.142   6.501 -0.7676 -0.0543 -0.2599
19712TIP3    H180551   3.984   2.230   6.468 -2.0768  0.3000  1.2385
19712TIP3    H280552   3.913   2.106   6.519 -0.1762 -0.5500  1.8770
19713TIP3   OH280553   4.369   3.998  13.192 -0.5152  0.6017 -0.3564
19713TIP3    H180554   4.274   3.990  13.191 -0.5426  0.3912  1.3665
19713TIP3    H280555   4.388   4.055  13.266  0.7181  0.3095 -0.4217
19714TIP3   OH280556   4.381   1.482  11.804  0.2868 -0.1951 -0.1984
19714TIP3    H180557   4.444   1.444  11.865  0.0139 -1.5640 -0.7321
19714TIP3    H280558   4.297   1.475  11.850  0.0624 -1.3417 -0.7591
19715TIP3   OH280559   5.049   5.081  11.718  0.2708 -0.1574 -0.0629
19715TIP3    H180560   4.974   5.099  11.662  0.0490  0.0437  0.2921
19715TIP3    H280561   5.035   4.992  11.750 -0.2803  0.1936  0.7052
19716TIP3   OH280562   4.763   4.696  10.710 -0.5615  0.2656  0.0187
19716TIP3    H180563   4.713   4.760  10.761 -1.1343  0.0029 -0.2147
19716TIP3    H280564   4.700   4.656  10.651 -0.1409 -0.2861 -0.0724
19717TIP3   OH280565   3.334   0.300   3.306  0.5609 -0.3185 -0.3000
19717TIP3    H180566   3.272   0.231   3.328 -1.3368  0.6217 -2.2604
19717TIP3    H280567   3.319   0.368   3.372 -1.6592  0.5043 -1.5194
19718TIP3   OH280568   2.578   1.547  16.277  0.0304 -0.7590  0.0356
19718TIP3    H180569   2.659   1.566  16.230 -0.0546 -1.4127 -0.3932
19718TIP3    H280570   2.528   1.628  16.272  0.1727 -0.7063 -0.7014
19719TIP3   OH280571   3.081   0.319  12.959  0.1900  0.3261 -0.3715
19719TIP3    H180572   3.134   0.273  13.023 -0.3795 -0.0083 -0.1297
19719TIP3    H280573   3.118   0.294  12.874  0.6613  0.4128 -0.1877
19720TIP3   OH280574   3.095   4.023  16.379  0.5431 -0.1103 -0.3831
19720TIP3    H180575   3.043   3.992  16.305  1.0174 -0.4095 -0.5954
19720TIP3    H280576   3.127   4.109  16.351 -0.3630  0.3723  0.0100
19721TIP3   OH280577   4.006   3.273  13.748 -0.7580  0.3912  0.1356
19721TIP3    H180578   4.039   3.323  13.822 -1.2767  1.0901 -0.0944
19721TIP3    H280579   4.064   3.294  13.676  0.2692 -0.9498  0.5204
19722TIP3   OH280580   0.791   4.064  16.584  0.3193  0.1290  0.0953
19722TIP3    H180581   0.863   4.089  16.642  0.1187 -0.5061  0.6304
19722TIP3    H280582   0.825   3.991  16.533  0.0397 -0.2277  0.4067
19723TIP3   OH280583   5.012   5.449  13.162 -0.4438 -0.3321  0.4965
19723TIP3    H180584   5.010   5.362  13.202  2.0666 -0.1097  1.3120
19723TIP3    H280585   5.007   5.510  13.236 -2.5254  0.3000 -0.0834
19724TIP3   OH280586   4.375   1.749   4.256 -0.4197 -0.1405 -0.2490
19724TIP3    H180587   4.371   1.681   4.323 -1.1737 -0.8992 -1.0363
19724TIP3    H280588   4.285   1.759   4.226 -0.6130  2.4109  0.9866
19725TIP3   OH280589   2.312   4.615  12.320  0.3698 -0.2691  0.0963
19725TIP3    H180590   2.241   4.653  12.371 -1.3442 -0.6992 -1.8352
19725TIP3    H280591   2.321   4.672  12.244  1.0407 -1.0692 -0.4476
19726TIP3   OH280592   3.386   3.599  13.124  0.0528  0.4346  0.0393
19726TIP3    H180593   3.300   3.561  13.143 -0.0100  0.8612  0.6512
19726TIP3    H280594   3.367   3.689  13.099  0.3920  0.9325  1.4533
19727TIP3   OH280595   4.207   5.665   3.294 -0.0991 -0.1708  0.3371
19727TIP3    H180596   4.177   5.755   3.303  1.8873  0.5018  0.7416
19727TIP3    H280597   4.239   5.658   3.205 -0.7384 -0.6517  0.1385
19728TIP3   OH280598   3.294   1.535  14.556 -0.4480  0.9430 -0.5398
19728TIP3    H180599   3.349   1.474  14.508 -0.9436  0.1723 -0.1467
19728TIP3    H280600   3.331   1.536  14.645 -1.3554  0.0353 -0.1378
19729TIP3   OH280601   1.461   4.651   1.810  0.1678  0.0763  0.5690
19729TIP3    H180602   1.518   4.675   1.738 -1.1685 -1.0665 -0.9525
19729TIP3    H280603   1.465   4.555   1.812 -1.7009 -0.0300  0.3897
19730TIP3   OH280604   4.391   4.321   3.564 -0.3302  0.2393 -0.0454
19730TIP3    H180605   4.353   4.281   3.486  0.8924  0.9019 -1.0154
19730TIP3    H280606   4.316   4.356   3.612 -0.9796  1.4767 -1.8753
19731TIP3   OH280607   4.344   0.329  12.987  0.2693 -0.9775 -0.2433
19731TIP3    H180608   4.389   0.410  12.963 -0.0603 -0.8897 -0.5674
19731TIP3    H280609   4.315   0.292  12.904 -0.8236 -0.7010  0.0004
19732TIP3   OH280610   5.333   1.203   4.751 -0.6340  0.5447 -0.1162
19732TIP3    H180611   5.284   1.163   4.823 -2.0115  1.0115 -0.7684
19732TIP3    H280612   5.402   1.254   4.794 -0.3721 -0.5321  0.7994
19733TIP3   OH280613   1.810   0.154  12.534  0.4214  0.1214  0.3185
19733TIP3    H180614   1.753   0.192  12.468  0.6368  0.1437  0.1447
19733TIP3    H280615   1.880   0.218  12.546  1.1397 -0.4934 -0.4451
19734TIP3   OH280616   1.705   5.115   2.569  0.1089 -0.1544 -0.5623
19734TIP3    H180617   1.618   5.139   2.602 -0.0706 -0.0037 -1.1310
19734TIP3    H280618   1.732   5.041   2.622  1.8428  2.7990  3.2108
19735TIP3   OH280619   3.697   5.227  11.373 -0.3488 -0.4589  0.2049
19735TIP3    H180620   3.612   5.263  11.348 -0.1739  0.2051  0.5188
19735TIP3    H280621   3.710   5.153  11.314 -0.9354 -0.2821 -0.1629
19736TIP3   OH280622   5.066   1.408   5.228  0.0531  0.2665 -0.1601
19736TIP3    H180623   5.054   1.461   5.149 -0.0803 -0.5247 -0.6813
19736TIP3    H280624   4.999   1.440   5.289  0.8399  1.6142  0.0533
19737TIP3   OH280625   6.236   5.473  13.095 -0.8755 -0.3037  0.0981
19737TIP3    H180626   6.234   5.457  13.189 -0.8612 -0.8877 -0.0000
19737TIP3    H280627   6.326   5.503  13.078 -0.8216 -0.3875  0.2348
19738TIP3   OH280628   4.712   6.392   4.067 -0.1023  0.3525 -0.1169
19738TIP3    H180629   4.771   6.348   4.006 -0.6210  0.8482 -0.9900
19738TIP3    H280630   4.736   6.485   4.062  1.0254  0.2207  1.7580
19739TIP3   OH280631   3.536   6.017  14.156  0.1688  0.0073 -0.1952
19739TIP3    H180632   3.510   6.054  14.071 -1.1730 -1.4451 -0.4510
19739TIP3    H280633   3.454   5.997  14.200  0.8368  0.8506  1.5422
19740TIP3   OH280634   6.420   4.992   4.466  0.0568  0.2156  0.7558
19740TIP3    H180635   6.442   5.078   4.502 -0.9182  1.4932 -1.4822
19740TIP3    H280636   6.324   4.991   4.465  0.0123  0.4174 -1.9591
19741TIP3   OH280637   1.184   2.011   4.211  0.9971 -0.5496 -0.1406
19741TIP3    H180638   1.157   1.937   4.265  0.4324 -1.0603 -1.0815
19741TIP3    H280639   1.243   1.973   4.147 -0.8186 -0.6332 -1.8850
19742TIP3   OH280640   1.529   5.754   0.336 -0.2838 -0.0312  0.3445
19742TIP3    H180641   1.565   5.720   0.418  0.0527  0.5165  0.4259
19742TIP3    H280642   1.434   5.754   0.350 -0.5398 -3.3683 -0.5812
19743TIP3   OH280643   5.679   0.819  16.624 -0.0416 -0.4892  0.1288
19743TIP3    H180644   5.671   0.736  16.577 -1.1473 -1.6849  2.2650
19743TIP3    H280645   5.589   0.844  16.644  0.3563  0.2076  1.1660
19744TIP3   OH280646   6.122   4.535   4.350 -0.6883  0.3447 -0.1510
19744TIP3    H180647   6.181   4.610   4.344  1.7496 -1.2527  1.5573
19744TIP3    H280648   6.061   4.559   4.420 -0.0899  0.8364  0.2155
19745TIP3   OH280649   0.120   4.834  16.639  0.1323  0.1938 -0.3253
19745TIP3    H180650   0.097   4.765  16.701 -1.2097 -0.3762 -1.4069
19745TIP3    H280651   0.129   4.913  16.693 -1.5561 -0.1649  0.5271
19746TIP3   OH280652   2.528   5.006  15.022  0.2057  0.1712  0.1302
19746TIP3    H180653   2.566   5.052  15.097  1.4385  0.4765 -0.6485
19746TIP3    H280654   2.434   5.019  15.031  0.4842  3.2722 -0.2700
19747TIP3   OH280655   0.116   1.189   4.033  0.0223  0.2429  0.3835
19747TIP3    H180656   0.051   1.119   4.031  1.4793 -1.1562  0.0348
19747TIP3    H280657   0.087   1.250   3.965 -0.4968 -0.7736 -0.3451
19748TIP3   OH280658   2.904   4.858  13.769 -1.1019  0.2868 -0.0145
19748TIP3    H180659   2.946   4.943  13.783 -0.5091  0.2458 -1.3816
19748TIP3    H280660   2.895   4.851  13.673  0.4108 -1.9206 -0.0582
19749TIP3   OH280661   3.676   5.338   5.609  0.1255  0.1144  0.4941
19749TIP3    H180662   3.681   5.428   5.641 -1.1820  0.2932  0.2269
19749TIP3    H280663   3.760   5.300   5.634  1.5438  1.9659 -1.0756
19750TIP3   OH280664   5.928   4.657   2.935  0.4999  0.5497 -0.7547
19750TIP3    H180665   6.016   4.647   2.899  1.4259  2.4613  0.7847
19750TIP3    H280666   5.939   4.719   3.007 -2.3566  2.2592 -1.6163
19751TIP3   OH280667   3.018   3.325  11.199 -0.0686  0.1021  0.0519
19751TIP3    H180668   3.079   3.398  11.215 -1.1105  1.3881 -1.5380
19751TIP3    H280669   2.955   3.360  11.136 -1.3684 -1.7931  0.2275
19752TIP3   OH280670   5.373   2.409  10.883  0.2015  0.0729  0.1168
19752TIP3    H180671   5.287   2.413  10.926 -0.1809 -1.6196 -0.4301
19752TIP3    H280672   5.411   2.495  10.899 -1.6327  0.9060  0.3073
19753TIP3   OH280673   6.532   6.334  14.480 -0.5805  0.1994 -0.0335
19753TIP3    H180674   6.491   6.403  14.532  0.3018  1.0217 -0.3951
19753TIP3    H280675   6.462   6.272  14.462 -1.6220  1.4388 -0.4345
19754TIP3   OH280676   4.410   3.302   3.567 -0.0436 -0.6147  0.4859
19754TIP3    H180677   4.366   3.270   3.646  0.2667 -0.3623  0.7652
19754TIP3    H280678   4.441   3.389   3.591  1.6975 -1.2577  0.7299
19755TIP3   OH280679   5.430   5.539   0.116  0.4397 -0.2082 -0.9438
19755TIP3    H180680   5.486   5.477   0.162 -0.0944 -0.9016 -1.2219
19755TIP3    H280681   5.361   5.562   0.178 -0.0092 -0.7755 -1.2273
19756TIP3   OH280682   5.187   4.709   4.264  0.1478 -0.1799  0.1667
19756TIP3    H180683   5.213   4.626   4.225  0.0589 -0.0263 -0.2212
19756TIP3    H280684   5.156   4.685   4.352 -1.3608 -0.7695 -0.4929
19757TIP3   OH280685   6.491   0.389   1.247 -1.0591  0.1514 -0.2609
19757TIP3    H180686   6.528   0.307   1.279  0.2320  0.5559 -0.6595
19757TIP3    H280687   6.406   0.395   1.290 -1.1059 -1.3082 -0.0990
19758TIP3   OH280688   0.159   2.303   4.837 -0.2307  0.6388 -0.0504
19758TIP3    H180689   0.079   2.315   4.887  0.7366  0.3254  1.6637
19758TIP3    H280690   0.134   2.248   4.763 -1.3532 -0.4999  1.1405
19759TIP3   OH280691   0.925   1.199  14.453  0.0258  0.2939  0.1438
19759TIP3    H180692   0.836   1.188  14.418 -0.0161  1.0464  0.0031
19759TIP3    H280693   0.936   1.124  14.512 -0.3251 -0.3622 -0.6040
19760TIP3   OH280694   2.336   3.797  16.337 -0.3437  0.7541  0.0152
19760TIP3    H180695   2.424   3.820  16.367  0.5276 -1.9930 -0.1521
19760TIP3    H280696   2.332   3.701  16.344 -3.3877  0.7803  0.1387
19761TIP3   OH280697   4.560   1.571  10.908  1.0594 -0.7327  0.0591
19761TIP3    H180698   4.610   1.626  10.847 -0.8236  0.8601 -0.1413
19761TIP3    H280699   4.614   1.568  10.986  2.6815 -1.2941 -1.0266
19762TIP3   OH280700   1.807   0.701   3.217 -0.0808  0.0062  0.4158
19762TIP3    H180701   1.783   0.768   3.281  1.1048 -0.4485  1.3811
19762TIP3    H280702   1.729   0.646   3.209 -0.3545  0.2670  1.2263
19763TIP3   OH280703   5.798   5.547  14.093  0.5198 -0.7113 -0.2164
19763TIP3    H180704   5.759   5.607  14.030  1.7483 -0.9891 -1.2971
19763TIP3    H280705   5.893   5.558  14.080  0.8119 -0.7563  1.6175
19764TIP3   OH280706   5.591   4.925  10.876  0.2541  0.4492  0.0606
19764TIP3    H180707   5.540   4.995  10.916 -1.2206 -1.6164  2.0184
19764TIP3    H280708   5.682   4.952  10.888 -0.2627  2.5977 -0.4540
19765TIP3   OH280709   0.815   5.294   4.113 -0.0582  0.7444 -0.0598
19765TIP3    H180710   0.895   5.283   4.164  0.8527  0.4561 -1.4922
19765TIP3    H280711   0.799   5.209   4.073  0.5674  1.5079 -2.0654
19766TIP3   OH280712   3.695   0.857   3.435  0.4503 -0.6891 -0.3954
19766TIP3    H180713   3.602   0.853   3.457  0.7003 -1.8341  0.5332
19766TIP3    H280714   3.710   0.949   3.411 -0.8488 -0.4352 -0.2895
19767TIP3   OH280715   0.448   2.343  15.697  0.3502  0.1733  0.3199
19767TIP3    H180716   0.373   2.287  15.678 -0.5040  1.1969  0.5644
19767TIP3    H280717   0.454   2.345  15.792  0.7618 -0.0011  0.2986
19768TIP3   OH280718   6.052   5.901  11.787 -0.0780  0.0635  0.0195
19768TIP3    H180719   6.117   5.835  11.762 -0.8052 -1.1686  1.2497
19768TIP3    H280720   6.094   5.985  11.765  0.8485 -0.7738 -1.6398
19769TIP3   OH280721   6.174   5.594   2.838 -0.3898  0.4132 -0.4094
19769TIP3    H180722   6.254   5.546   2.861  0.3737  1.7608 -0.1205
19769TIP3    H280723   6.105   5.529   2.842  0.2883 -0.2519  1.9886
19770TIP3   OH280724   3.255   0.633  16.391  0.5636  0.1107  0.0735
19770TIP3    H180725   3.295   0.717  16.370  1.0421  0.0109  0.5618
19770TIP3    H280726   3.289   0.573  16.324  1.2450  0.0277  0.4831
19771TIP3   OH280727   3.834   2.988   0.772 -0.2237 -0.0671 -0.0840
19771TIP3    H180728   3.788   2.904   0.764  2.0090 -1.2255 -1.6315
19771TIP3    H280729   3.776   3.051   0.729 -1.1418 -1.1173 -0.4373
19772TIP3   OH280730   1.615   3.709   2.781  0.1921 -0.4265 -0.2883
19772TIP3    H180731   1.659   3.627   2.804  2.4896  0.3130 -1.6517
19772TIP3    H280732   1.687   3.772   2.768 -1.3976  1.3736 -0.8647
19773TIP3   OH280733   2.461   5.753  12.995  0.4873  0.5041  0.4950
19773TIP3    H180734   2.412   5.772  13.075  0.5430 -0.4813  0.7785
19773TIP3    H280735   2.503   5.669  13.012  2.4553  1.4068  0.3239
19774TIP3   OH280736   6.247   6.673   1.795 -0.3773 -0.4114  0.1273
19774TIP3    H180737   6.285   6.637   1.875  0.2569  1.9237  0.9508
19774TIP3    H280738   6.160   6.632   1.790 -0.4600 -0.5663  2.0535
19775TIP3   OH280739   6.366   0.552   3.478  0.1607  0.5812 -0.5098
19775TIP3    H180740   6.419   0.553   3.558  0.3724  0.4533 -0.6487
19775TIP3    H280741   6.291   0.497   3.499  0.4526  0.1630 -0.5516
19776TIP3   OH280742   6.520   2.736  14.190  0.0048 -0.0550 -0.1579
19776TIP3    H180743   6.528   2.700  14.278  0.8035  1.1218  0.2755
19776TIP3    H280744   6.489   2.662  14.137 -1.5679 -0.5027  1.2916
19777TIP3   OH280745   4.602   1.717   1.816 -0.0662 -0.4789 -0.5344
19777TIP3    H180746   4.674   1.683   1.870  1.1273 -0.0673 -1.8134
19777TIP3    H280747   4.588   1.806   1.847 -0.5971 -0.8248  0.2553
19778TIP3   OH280748   5.476   0.601  14.395  0.4943 -0.0053 -0.0938
19778TIP3    H180749   5.522   0.553  14.327  1.0045  1.0860 -0.5474
19778TIP3    H280750   5.544   0.653  14.438 -0.0322  0.3082  0.3778
19779TIP3   OH280751   2.096   1.916   3.278  0.2482 -0.3787  0.0804
19779TIP3    H180752   2.094   1.905   3.183  2.4515 -0.1003 -0.0648
19779TIP3    H280753   2.149   1.842   3.309 -0.7787 -0.6931  1.1538
19780TIP3   OH280754   2.230   4.836   0.373  0.2505  0.1496 -0.2723
19780TIP3    H180755   2.309   4.822   0.321  1.7031  0.3881  1.7597
19780TIP3    H280756   2.232   4.765   0.438 -0.6415  0.7621  0.4481
19781TIP3   OH280757   5.247   0.303   5.444 -0.4919 -0.3110 -0.5732
19781TIP3    H180758   5.255   0.250   5.524  0.8051 -1.7291 -1.5727
19781TIP3    H280759   5.197   0.380   5.471  0.7345 -0.2450  1.8601
19782TIP3   OH280760   0.842   4.916   5.587 -0.0519 -0.4001  0.1340
19782TIP3    H180761   0.881   5.001   5.567  0.3502 -0.4783  0.5647
19782TIP3    H280762   0.816   4.923   5.679 -0.6483 -0.5072 -0.0213
19783TIP3   OH280763   0.508   1.885  16.639  0.2814 -0.0187  0.0938
19783TIP3    H180764   0.479   1.964  16.685 -1.0717 -0.8038  0.6453
19783TIP3    H280765   0.570   1.844  16.698  1.6948  1.0411 -0.5719
19784TIP3   OH280766   4.960   1.562   0.149  0.4574 -0.5187 -0.6344
19784TIP3    H180767   4.957   1.493   0.083 -2.2287 -2.2119  1.0639
19784TIP3    H280768   4.919   1.524   0.227 -0.9134  2.8520  0.5281
19785TIP3   OH280769   1.919   3.082  13.071 -0.0166 -0.4613  0.0346
19785TIP3    H180770   1.857   3.114  13.005  2.1682  0.0548 -1.9210
19785TIP3    H280771   1.925   2.988  13.054 -0.5620 -0.5878  0.5174
19786TIP3   OH280772   1.867   3.366  14.638  0.0520 -0.4167  0.0318
19786TIP3    H180773   1.854   3.349  14.544 -1.1003 -1.8359  0.4171
19786TIP3    H280774   1.959   3.392  14.644 -0.0420  0.4456 -1.5846
19787TIP3   OH280775   2.720   3.841   2.568 -0.2374 -0.5585 -0.0110
19787TIP3    H180776   2.680   3.849   2.482 -0.1800 -0.7874 -0.0573
19787TIP3    H280777   2.648   3.813   2.625  0.0194 -1.7299 -0.2381
19788TIP3   OH280778   4.297   3.041   4.922  0.1233  0.7020 -0.1309
19788TIP3    H180779   4.342   2.966   4.961 -0.8459  0.2698  0.2033
19788TIP3    H280780   4.349   3.064   4.845 -0.0655 -0.9125 -0.7803
19789TIP3   OH280781   4.037   0.884   3.484  0.3151 -0.5703 -0.3173
19789TIP3    H180782   4.078   0.954   3.535  1.5588 -1.1871 -0.4432
19789TIP3    H280783   3.974   0.929   3.428 -0.8311  0.1715  1.4556
19790TIP3   OH280784   3.921   0.806   1.149  0.5106  0.1946 -0.1483
19790TIP3    H180785   3.837   0.809   1.193 -0.5589  1.0342 -2.0961
19790TIP3    H280786   3.929   0.716   1.118  0.8155 -0.1429  0.8983
19791TIP3   OH280787   0.685   6.552  14.879  0.5183 -0.1544  0.6002
19791TIP3    H180788   0.598   6.590  14.894  0.5127  0.0826 -0.0137
19791TIP3    H280789   0.721   6.603  14.806  1.6079  0.4558  1.5376
19792TIP3   OH280790   4.212   5.047   2.188 -0.6213  0.0689 -0.5663
19792TIP3    H180791   4.150   5.060   2.259  1.0267  1.6444  0.6894
19792TIP3    H280792   4.285   4.999   2.228 -0.2742 -0.2391 -1.5430
19793TIP3   OH280793   1.210   0.401   2.765 -0.5444  0.5730  0.6519
19793TIP3    H180794   1.260   0.320   2.755 -1.8336 -0.3094  1.0452
19793TIP3    H280795   1.254   0.464   2.707  0.7034 -0.2863  0.6184
19794TIP3   OH280796   6.121   4.973  12.851  0.6904  0.1751  0.4403
19794TIP3    H180797   6.160   5.045  12.901  1.0396  0.3071 -0.0188
19794TIP3    H280798   6.182   4.901  12.860  0.0093 -0.2997  1.4717
19795TIP3   OH280799   0.600   4.011  10.896  0.3502 -0.3885 -0.4133
19795TIP3    H180800   0.594   3.923  10.931  2.0052 -0.4229 -0.1706
19795TIP3    H280801   0.599   3.999  10.801 -1.5077 -0.4819 -0.4196
19796TIP3   OH280802   4.649   4.524   0.372 -0.0057 -0.0601 -0.1615
19796TIP3    H180803   4.726   4.519   0.429  0.8317  0.3901 -1.2112
19796TIP3    H280804   4.602   4.442   0.388 -0.1248  0.3255  1.6077
19797TIP3   OH280805   6.716   3.700   3.121 -0.4012  0.4521  0.3455
19797TIP3    H180806   6.734   3.641   3.194  0.4272 -0.2391 -0.4052
19797TIP3    H280807   6.683   3.780   3.163 -0.4444 -0.1256  1.4391
19798TIP3   OH280808   4.148   0.689  11.722 -0.0896  0.8627  0.5187
19798TIP3    H180809   4.078   0.647  11.673  0.6857 -0.3598  0.4042
19798TIP3    H280810   4.213   0.619  11.735  0.5477  1.6359  1.6770
19799TIP3   OH280811   5.613   3.394   5.616  0.2038  0.5804 -0.7189
19799TIP3    H180812   5.657   3.342   5.684 -1.6802 -1.2581 -0.8400
19799TIP3    H280813   5.643   3.484   5.633  1.9280 -0.2047  0.7993
19800TIP3   OH280814   4.690   0.326  11.159 -0.3572 -0.0170 -0.3464
19800TIP3    H180815   4.707   0.354  11.069  1.0221 -0.3032 -0.2062
19800TIP3    H280816   4.738   0.243  11.167 -0.0364  0.2633  0.7978
19801TIP3   OH280817   3.598   1.822  12.105 -0.1367 -0.5024  0.0343
19801TIP3    H180818   3.544   1.771  12.045 -0.6784  2.2034 -1.9806
19801TIP3    H280819   3.668   1.857  12.051  1.1815 -0.4470  1.6905
19802TIP3   OH280820   3.338   0.878   1.907 -0.3572  0.0968 -0.0131
19802TIP3    H180821   3.307   0.958   1.864  0.2660 -0.0500 -0.7551
19802TIP3    H280822   3.265   0.817   1.899 -0.1583 -0.0206 -1.1458
19803TIP3   OH280823   6.139   4.027   4.662  0.0993 -0.9412  0.1590
19803TIP3    H180824   6.052   4.065   4.650  0.5267 -0.0350 -0.1129
19803TIP3    H280825   6.157   4.038   4.755 -0.0338 -1.0575  0.1998
19804TIP3   OH280826   0.350   5.234  13.254  0.1618 -0.5771  0.2284
19804TIP3    H180827   0.331   5.267  13.342  0.5623 -0.3508  0.2318
19804TIP3    H280828   0.439   5.264  13.236  0.4117 -1.3681  0.0971
19805TIP3   OH280829   2.672   4.352  16.076  0.0887 -0.5158 -0.9484
19805TIP3    H180830   2.644   4.268  16.040  0.0679 -0.6391 -0.6533
19805TIP3    H280831   2.595   4.386  16.121  0.6201 -1.2489  0.5849
19806TIP3   OH280832   0.826   5.367  13.583  0.5149 -0.1883 -0.1742
19806TIP3    H180833   0.770   5.421  13.529 -1.7791 -1.2579  1.0016
19806TIP3    H280834   0.895   5.426  13.613 -0.4721  1.4184 -0.9460
19807TIP3   OH280835   4.942   4.159  11.011 -0.0266  0.8286  0.3415
19807TIP3    H180836   4.960   4.249  11.039 -1.8845  1.2300  0.3845
19807TIP3    H280837   4.943   4.163  10.915 -0.3979  0.9667  0.3416
19808TIP3   OH280838   0.664   0.014  13.142 -0.1785 -0.3711  0.3807
19808TIP3    H180839   0.652   0.017  13.237 -0.0028  0.0294  0.3937
19808TIP3    H280840   0.580   0.041  13.106 -0.1708 -0.2904  0.4239
19809TIP3   OH280841   6.179   5.929  11.432  0.5728  0.2256  0.4906
19809TIP3    H180842   6.124   6.000  11.464  0.5156  0.4928 -0.1750
19809TIP3    H280843   6.230   5.969  11.361 -0.4256 -0.7049 -0.8033
19810TIP3   OH280844   0.874   5.922  15.809 -0.1359  0.2514 -0.6815
19810TIP3    H180845   0.913   5.994  15.760 -1.9668  0.9866 -1.1528
19810TIP3    H280846   0.856   5.855  15.744 -0.5625  0.3248 -0.6396
19811TIP3   OH280847   3.327   1.441   0.134  0.2963 -0.6050 -0.5454
19811TIP3    H180848   3.265   1.512   0.115 -0.7011 -1.2375  0.2931
19811TIP3    H280849   3.401   1.485   0.176 -0.5587 -0.1258  0.4774
19812TIP3   OH280850   2.275   6.548   6.074 -0.3754 -0.4115 -0.4636
19812TIP3    H180851   2.343   6.610   6.101 -0.8032  0.4300 -1.2574
19812TIP3    H280852   2.252   6.500   6.153  0.1228  0.2967  0.1126
19813TIP3   OH280853   2.177   1.813   4.279  0.5571  0.0623 -0.2964
19813TIP3    H180854   2.221   1.730   4.291  1.1412  0.5174  0.8957
19813TIP3    H280855   2.226   1.857   4.210  2.5584  0.8929  1.5381
19814TIP3   OH280856   4.114   6.346  16.723  0.2972  0.7320  0.4590
19814TIP3    H180857   4.085   6.286  16.791  0.0812  0.9029  0.5190
19814TIP3    H280858   4.184   6.396  16.764  0.6047  0.3976  0.3509
19815TIP3   OH280859   6.026   3.501  15.768 -0.6325  0.3826  1.1054
19815TIP3    H180860   6.107   3.533  15.730 -1.0107  0.5392  0.4104
19815TIP3    H280861   6.045   3.411  15.793 -0.4382  0.2063  0.3392
19816TIP3   OH280862   2.515   4.021  14.374 -0.7454 -0.2197  0.6483
19816TIP3    H180863   2.466   3.939  14.382 -1.3869  0.1846  0.8526
19816TIP3    H280864   2.475   4.065  14.299  1.1723 -1.1696 -1.0646
19817TIP3   OH280865   1.357   2.312  14.186  0.1478  0.0590  0.0882
19817TIP3    H180866   1.319   2.249  14.125 -0.3241 -1.9865  2.3795
19817TIP3    H280867   1.401   2.376  14.129 -0.6841 -1.4248 -2.3850
19818TIP3   OH280868   3.724   5.035   3.824  0.3520 -0.1455  0.3419
19818TIP3    H180869   3.717   4.948   3.864  1.4524  0.5504  2.1440
19818TIP3    H280870   3.683   5.094   3.887 -1.3918  0.5739 -1.3565
19819TIP3   OH280871   1.749   3.069   4.570  0.1475  0.7882  0.3394
19819TIP3    H180872   1.826   3.111   4.607  0.7236  1.6334 -1.6609
19819TIP3    H280873   1.778   2.982   4.544  1.1496  1.7806 -2.3045
19820TIP3   OH280874   0.143   6.618  16.820  0.4052 -0.2778  0.8040
19820TIP3    H180875   0.168   6.567  16.742 -1.8928 -0.3275  0.0391
19820TIP3    H280876   0.177   6.566  16.893  2.5032 -0.2978 -0.1101
19821TIP3   OH280877   1.619   5.504   5.816 -0.2833 -0.4277  0.3887
19821TIP3    H180878   1.564   5.467   5.747 -1.8027  1.9983  0.1593
19821TIP3    H280879   1.701   5.526   5.773 -0.1356 -1.5745  0.0634
19822TIP3   OH280880   2.530   0.769   3.852  0.1048 -0.2164 -0.0809
19822TIP3    H180881   2.568   0.818   3.780 -1.0266  1.0653  0.1515
19822TIP3    H280882   2.461   0.716   3.813  2.1769 -2.7777 -0.5524
19823TIP3   OH280883   1.873   4.006   4.646 -0.4519  0.7367 -0.8908
19823TIP3    H180884   1.897   4.097   4.664 -0.1235  0.6485 -0.8763
19823TIP3    H280885   1.954   3.957   4.657 -0.4269  0.5609 -1.7281
19824TIP3   OH280886   6.781   5.672   3.000 -0.6819  1.2624 -0.2650
19824TIP3    H180887   6.719   5.649   3.070 -1.7519  1.1235 -1.2335
19824TIP3    H280888   6.803   5.764   3.017 -0.0778  0.9340  0.8633
19825TIP3   OH280889   3.099   4.998   1.387  0.7226  0.3295 -0.0653
19825TIP3    H180890   3.082   4.974   1.296 -0.5997  2.5592 -0.4776
19825TIP3    H280891   3.135   4.919   1.426 -1.8448 -1.8171 -1.6536
19826TIP3   OH280892   4.340   3.885   3.458  0.0719 -0.2850 -0.2042
19826TIP3    H180893   4.330   3.795   3.426  0.3971 -0.6081  0.5854
19826TIP3    H280894   4.425   3.913   3.425  0.3055 -0.5365  0.1783
19827TIP3   OH280895   1.415   1.226   2.848 -0.4250  0.3037  0.0625
19827TIP3    H180896   1.421   1.249   2.755 -0.6378  0.5272  0.1038
19827TIP3    H280897   1.391   1.133   2.848 -0.4353  0.3057 -0.1069
19828TIP3   OH280898   2.857   4.759   0.716  0.6506 -0.6105 -0.3605
19828TIP3    H180899   2.803   4.780   0.792  0.1828 -0.1764 -0.8136
19828TIP3    H280900   2.810   4.689   0.671  0.6881 -0.5396 -0.5115
19829TIP3   OH280901   0.523   5.835   2.544  0.1846  0.4105 -0.2874
19829TIP3    H180902   0.611   5.809   2.517  0.3033  0.9573 -0.4278
19829TIP3    H280903   0.536   5.884   2.625 -0.0359  0.1055 -0.0622
19830TIP3   OH280904   1.208   4.896  11.567 -0.2181 -0.4012 -0.2859
19830TIP3    H180905   1.176   4.879  11.479  2.6359 -0.5145 -1.4276
19830TIP3    H280906   1.301   4.915  11.555  0.6448 -1.9339  2.8513
19831TIP3   OH280907   0.312   1.231   4.232  0.0887 -0.0576 -0.9506
19831TIP3    H180908   0.284   1.206   4.144 -3.3730  0.4430 -0.1392
19831TIP3    H280909   0.252   1.300   4.258  2.9057  2.0025  0.7491
19832TIP3   OH280910   1.294   4.122  16.468  0.7041  0.0770 -0.5194
19832TIP3    H180911   1.250   4.116  16.383  1.6208 -1.3063 -0.9281
19832TIP3    H280912   1.362   4.188  16.456  0.2940  0.4930 -0.5953
19833TIP3   OH280913   4.280   5.374  11.956 -0.2526  0.4303 -0.3687
19833TIP3    H180914   4.326   5.426  12.022  0.5168 -1.5246  0.7471
19833TIP3    H280915   4.327   5.290  11.955 -2.2991 -0.7867 -0.9654
19834TIP3   OH280916   5.071   2.766  16.931 -0.4562  0.2179  0.3206
19834TIP3    H180917   5.164   2.748  16.940 -0.2964  0.9497  0.2187
19834TIP3    H280918   5.037   2.694  16.879 -0.0329 -0.2828  0.7304
19835TIP3   OH280919   0.454   6.553   4.640  0.3707  0.3516  0.6336
19835TIP3    H180920   0.536   6.581   4.682 -0.4894  2.8503  0.8012
19835TIP3    H280921   0.389   6.557   4.710 -0.2226  0.1471  0.0969
19836TIP3   OH280922   2.209   2.944  13.384 -0.6094 -0.3812  0.8692
19836TIP3    H180923   2.146   2.963  13.454  0.7508  1.3607  1.6969
19836TIP3    H280924   2.280   2.896  13.428 -0.9254 -1.5721  0.1205
19837TIP3   OH280925   4.845   4.703   5.657 -0.2988  0.4506 -0.1882
19837TIP3    H180926   4.919   4.763   5.664 -0.1135  0.1802  0.2144
19837TIP3    H280927   4.779   4.752   5.608 -0.1938  1.0271  0.2339
19838TIP3   OH280928   5.743   5.224  16.280  0.5614  0.2497 -0.1457
19838TIP3    H180929   5.683   5.157  16.247  0.0951  0.9847 -0.7915
19838TIP3    H280930   5.808   5.174  16.330 -0.2032 -0.6139  0.0094
19839TIP3   OH280931   4.450   6.321   4.061  0.4822 -0.5703  0.0728
19839TIP3    H180932   4.482   6.264   3.992  1.6722  2.4136 -2.0716
19839TIP3    H280933   4.529   6.352   4.105  0.0877  1.0459 -0.2890
19840TIP3   OH280934   4.160   0.343   5.531 -0.0836  0.6294 -0.3283
19840TIP3    H180935   4.179   0.383   5.446 -0.1833 -0.7761 -1.0497
19840TIP3    H280936   4.182   0.251   5.519 -0.7001  0.2878  0.9888
19841TIP3   OH280937   5.213   2.431  11.424  0.0377  0.9954  0.3441
19841TIP3    H180938   5.152   2.377  11.372 -1.8886 -0.3051  3.6501
19841TIP3    H280939   5.288   2.374  11.439  1.0845  1.7380 -1.7014
19842TIP3   OH280940   4.075   4.365  11.900  0.4848 -0.3819  0.1807
19842TIP3    H180941   4.091   4.457  11.881 -1.2022  0.1003  0.9843
19842TIP3    H280942   4.006   4.364  11.966  0.2428 -2.2288 -0.0192
19843TIP3   OH280943   3.637   2.210   5.250 -0.1591 -0.7979  0.2094
19843TIP3    H180944   3.653   2.165   5.167 -0.0839 -0.1918 -0.1098
19843TIP3    H280945   3.681   2.156   5.316  0.3387 -0.9287 -0.2274
19844TIP3   OH280946   1.978   5.721   5.194 -0.3403 -0.4146  0.2366
19844TIP3    H180947   1.944   5.701   5.107 -1.8885  2.1465  0.1416
19844TIP3    H280948   2.047   5.786   5.179  0.6868 -1.3219  0.8428
19845TIP3   OH280949   2.320   2.726  12.711  0.0471 -0.5822 -0.4059
19845TIP3    H180950   2.381   2.795  12.739 -1.2747  0.0706  0.9761
19845TIP3    H280951   2.342   2.711  12.619  0.4446  1.6393 -0.7348
19846TIP3   OH280952   1.883   1.236   4.246 -0.3122 -1.0736 -0.0490
19846TIP3    H180953   1.857   1.328   4.250  0.6912 -0.7663 -0.1579
19846TIP3    H280954   1.907   1.214   4.335 -0.7217 -1.2874  0.0097
19847TIP3   OH280955   3.769   0.540   2.092  0.3232 -0.3271 -0.6988
19847TIP3    H180956   3.702   0.608   2.094  0.2897 -0.3722 -0.2281
19847TIP3    H280957   3.826   0.565   2.020  1.6043  1.4471  0.8224
19848TIP3   OH280958   0.668   5.580  14.408  0.4734 -0.2359  0.5707
19848TIP3    H180959   0.619   5.501  14.432  1.3314 -0.7177  0.7770
19848TIP3    H280960   0.669   5.580  14.312 -1.5084  0.7821  0.5080
19849TIP3   OH280961   5.464   3.201   5.519  0.0352 -0.1514  0.1651
19849TIP3    H180962   5.503   3.274   5.567  2.0179 -0.5593 -0.7428
19849TIP3    H280963   5.536   3.164   5.469 -1.3352 -1.5978 -0.8212
19850TIP3   OH280964   4.964   6.257  13.398 -0.5876  0.2768 -0.0219
19850TIP3    H180965   4.982   6.187  13.461 -2.0410 -0.5256 -0.4400
19850TIP3    H280966   5.042   6.313  13.400 -0.1928 -0.2773  1.7506
19851TIP3   OH280967   3.886   1.440   0.742 -0.3088 -0.0100  0.2598
19851TIP3    H180968   3.880   1.529   0.707 -0.7132 -1.3965 -3.6268
19851TIP3    H280969   3.796   1.409   0.746 -0.0513 -0.9465 -0.6392
19852TIP3   OH280970   3.568   3.365  11.467  0.3971  0.0764 -0.2195
19852TIP3    H180971   3.550   3.329  11.381 -0.4669  0.3916 -0.1881
19852TIP3    H280972   3.505   3.437  11.476  1.6976  1.2496 -0.0723
19853TIP3   OH280973   4.281   1.349  14.200 -0.2660  0.2401 -0.1519
19853TIP3    H180974   4.200   1.399  14.205  0.3760  1.4758 -1.5031
19853TIP3    H280975   4.311   1.360  14.110  1.6162  0.1645  0.4135
19854TIP3   OH280976   4.452   0.096   3.152  0.2339 -0.7517 -0.0169
19854TIP3    H180977   4.443   0.165   3.086  1.3829  0.8327  1.4030
19854TIP3    H280978   4.378   0.108   3.210 -1.0196 -2.4179 -1.1588
19855TIP3   OH280979   4.077   2.650  11.571 -0.6038 -0.3493  0.5925
19855TIP3    H180980   4.023   2.663  11.649  0.3821 -1.9909  1.5919
19855TIP3    H280981   4.117   2.736  11.555 -1.8303  0.3405  1.0855
19856TIP3   OH280982   1.824   1.952   5.037  0.1217 -0.3033  0.4698
19856TIP3    H180983   1.869   2.036   5.046  0.8895 -0.7496  0.8636
19856TIP3    H280984   1.736   1.969   5.072  0.0909  0.4775  0.0328
19857TIP3   OH280985   1.631   4.768   4.305  1.0733  0.2338  0.5641
19857TIP3    H180986   1.638   4.831   4.377 -1.1386  0.4275  0.6855
19857TIP3    H280987   1.555   4.713   4.329  1.0313 -0.4541 -1.0549
19858TIP3   OH280988   4.390   5.653  14.800 -0.0559  0.2689 -0.3127
19858TIP3    H180989   4.313   5.664  14.856 -0.1279  0.9137 -0.5286
19858TIP3    H280990   4.398   5.737  14.754  0.7260  0.1765 -0.3535
19859TIP3   OH280991   2.956   0.583  16.145  0.2853  0.4715  0.1200
19859TIP3    H180992   2.870   0.623  16.133 -0.4287 -0.7827  0.8183
19859TIP3    H280993   2.957   0.556  16.237  0.6831 -1.1506 -0.3269
19860TIP3   OH280994   6.439   5.219  14.483  0.0823 -0.3429  0.2159
19860TIP3    H180995   6.386   5.298  14.472 -0.3475 -0.3289  1.9719
19860TIP3    H280996   6.479   5.204  14.398 -0.5161  1.2769 -0.3884
19861TIP3   OH280997   0.416   0.163  13.072 -0.3030  0.3906 -0.2448
19861TIP3    H180998   0.374   0.141  12.989 -0.2952  1.5638 -0.5870
19861TIP3    H280999   0.355   0.130  13.139 -1.3629  1.2746 -0.7318
19862TIP3   OH281000   1.754   6.520  11.094 -0.2716 -0.1933  0.1371
19862TIP3    H181001   1.766   6.425  11.100  0.7988 -0.0381  0.6629
19862TIP3    H281002   1.800   6.555  11.170  0.0379  0.8053 -0.4934
19863TIP3   OH281003   2.263   0.936  12.407  0.1269 -0.0377 -0.8365
19863TIP3    H181004   2.218   0.853  12.398  1.8896 -1.4708  2.0772
19863TIP3    H281005   2.332   0.934  12.341 -0.3058 -0.5059 -1.2794
19864TIP3   OH281006   0.527   2.312  14.632 -0.2711  0.2174 -0.6564
19864TIP3    H181007   0.537   2.258  14.710 -0.0170 -1.3368 -1.7232
19864TIP3    H281008   0.566   2.396  14.656  0.6131 -0.5133  0.5851
19865TIP3   OH281009   3.256   4.156   3.111  0.1565  1.0397 -0.1463
19865TIP3    H181010   3.224   4.170   3.200  0.8200  1.1851  0.0731
19865TIP3    H281011   3.258   4.243   3.072 -0.9295  0.8855 -0.5920
19866TIP3   OH281012   0.186   5.093   2.940 -0.1139 -0.0314 -0.4434
19866TIP3    H181013   0.237   5.029   2.890  1.6095  0.0606  1.0645
19866TIP3    H281014   0.162   5.047   3.020 -0.2531  0.7017 -0.0553
19867TIP3   OH281015   5.456   2.305   0.654 -0.2400 -0.4793  0.0060
19867TIP3    H181016   5.410   2.356   0.721 -1.2288 -1.7233  0.3151
19867TIP3    H281017   5.459   2.216   0.690  0.7601 -0.8125 -0.8533
19868TIP3   OH281018   1.646   5.378  14.480  0.3293  0.3381  0.2691
19868TIP3    H181019   1.641   5.398  14.386  0.9626  0.5388  0.2798
19868TIP3    H281020   1.599   5.295  14.489 -0.0007  0.4745 -0.1777
19869TIP3   OH281021   6.590   4.592  17.095 -0.5552  0.0624  0.3991
19869TIP3    H181022   6.525   4.522  17.099 -0.2325 -0.2002  1.2842
19869TIP3    H281023   6.542   4.671  17.120 -0.5850 -0.0925  0.8309
19870TIP3   OH281024   2.723   0.733   1.166  0.5383  0.5813 -0.3708
19870TIP3    H181025   2.804   0.725   1.116  0.4846  0.9088 -0.5153
19870TIP3    H281026   2.743   0.796   1.234  0.5670  0.2440 -0.0659
19871TIP3   OH281027   5.802   0.290  12.165 -0.4797 -0.2047  0.0100
19871TIP3    H181028   5.845   0.367  12.204  0.4057 -0.7603  0.1596
19871TIP3    H281029   5.807   0.306  12.070 -2.8302  1.2528  0.0577
19872TIP3   OH281030   1.849   4.918  15.968  0.3084 -0.0513 -0.1977
19872TIP3    H181031   1.792   4.991  15.989  1.9535  0.6373  2.2006
19872TIP3    H281032   1.912   4.953  15.904 -0.7480 -0.3065 -1.4264
19873TIP3   OH281033   4.353   1.969  13.692  0.8565  0.8541 -0.0132
19873TIP3    H181034   4.377   1.993  13.781  0.2865  0.5694  0.2261
19873TIP3    H281035   4.435   1.945  13.650  1.1185  0.9304  0.4569
19874TIP3   OH281036   2.483   6.295   5.576  0.0664 -0.5049  0.1442
19874TIP3    H181037   2.430   6.372   5.600  0.0076 -0.1744 -0.9671
19874TIP3    H281038   2.562   6.332   5.538 -0.5983 -0.9566 -1.7708
19875TIP3   OH281039   3.788   2.922   0.077  0.2449  0.3603 -0.1632
19875TIP3    H181040   3.728   2.876   0.135 -1.7572  1.9870 -0.8417
19875TIP3    H281041   3.732   2.966   0.013  2.2375  0.7813 -1.7392
19876TIP3   OH281042   0.481   4.778   4.707 -0.2009 -0.0189  0.1077
19876TIP3    H181043   0.469   4.793   4.613 -0.2611 -0.5880  0.0220
19876TIP3    H281044   0.394   4.788   4.744 -0.0193  1.1548  0.2423
19877TIP3   OH281045   6.192   3.909   3.958  0.1175  0.0510  0.4214
19877TIP3    H181046   6.105   3.873   3.974 -0.3751  0.5895 -0.8629
19877TIP3    H281047   6.179   4.004   3.958  0.6884  0.1366  0.1909
19878TIP3   OH281048   4.506   2.484   0.047 -0.3490  0.0106  0.3998
19878TIP3    H181049   4.412   2.476   0.063 -0.5733 -2.2760 -1.3683
19878TIP3    H281050   4.534   2.559   0.099 -2.7393 -0.5313  2.6792
19879TIP3   OH281051   0.782   0.665   5.062  0.0597  0.2640 -0.3668
19879TIP3    H181052   0.843   0.649   4.989  1.8231 -3.0208  1.5997
19879TIP3    H281053   0.727   0.587   5.065 -2.7471  2.0750 -0.5060
19880TIP3   OH281054   3.827   5.008   4.888 -0.2670  0.0491  0.0933
19880TIP3    H181055   3.878   5.015   4.969  0.0351  0.5012 -0.1268
19880TIP3    H281056   3.738   5.030   4.914  0.1685  2.1319 -0.0434
19881TIP3   OH281057   0.846   0.923   3.861  0.4735  0.3886  0.3054
19881TIP3    H181058   0.817   0.969   3.782  0.8211  0.8401  0.4354
19881TIP3    H281059   0.849   0.831   3.836  0.4882  0.5201 -0.1804
19882TIP3   OH281060   6.048   6.274  10.850  0.3101  0.4948  0.1727
19882TIP3    H181061   6.124   6.228  10.886 -0.6392 -1.1753  0.1577
19882TIP3    H281062   6.024   6.222  10.773 -1.4066  0.4248  0.7275
19883TIP3   OH281063   2.627   2.263  15.127 -0.1119  0.2701  0.3055
19883TIP3    H181064   2.665   2.327  15.187 -1.4348  0.3660  1.0748
19883TIP3    H281065   2.636   2.302  15.041 -2.5330  2.4216  0.9078
19884TIP3   OH281066   6.431   3.375  12.018 -0.2514 -0.1333  0.1925
19884TIP3    H181067   6.395   3.454  12.058 -0.0114  0.4368 -0.6897
19884TIP3    H281068   6.526   3.382  12.034 -0.1470  0.1335 -0.5258
19885TIP3   OH281069   4.898   0.635  11.817 -0.1656  0.1884  0.0243
19885TIP3    H181070   4.919   0.542  11.806  0.3937  0.5592 -2.7599
19885TIP3    H281071   4.868   0.663  11.731 -2.6072  2.0989  1.3699
19886TIP3   OH281072   4.517   0.848  12.763 -0.5747 -0.6838 -0.3630
19886TIP3    H181073   4.438   0.881  12.721  0.3123  0.5272 -1.1337
19886TIP3    H281074   4.492   0.762  12.797 -2.0114 -0.6238 -1.2067
19887TIP3   OH281075   6.078   2.465   1.742 -0.5166 -0.6502  0.4465
19887TIP3    H181076   6.161   2.491   1.701 -0.0313  0.3170  1.9517
19887TIP3    H281077   6.067   2.374   1.716  0.6016 -0.5708 -0.4442
19888TIP3   OH281078   0.841   6.474  11.252 -0.0539  0.5655 -0.4040
19888TIP3    H181079   0.877   6.523  11.179 -0.2716 -0.1621 -1.0132
19888TIP3    H281080   0.917   6.437  11.297  0.0397  0.2727 -0.8012
19889TIP3   OH281081   4.989   1.367  11.661  0.0914  0.3135  0.5912
19889TIP3    H181082   4.980   1.299  11.728  0.1503  0.0920  0.3765
19889TIP3    H281083   5.030   1.440  11.707 -2.1732  1.1179  1.4410
19890TIP3   OH281084   4.519   3.199   2.977 -0.4149  0.5118 -0.1790
19890TIP3    H181085   4.429   3.232   2.975 -0.2679  1.0972  1.3627
19890TIP3    H281086   4.510   3.105   2.991 -0.7867  0.6328  0.4159
19891TIP3   OH281087   0.360   0.534   0.570 -0.0731 -0.1002 -0.5351
19891TIP3    H181088   0.328   0.560   0.657  2.6980 -2.0762  1.2533
19891TIP3    H281089   0.284   0.542   0.513 -2.3399  0.2342  2.2955
19892TIP3   OH281090   0.185   3.644   5.149 -0.2697 -0.8140 -0.1068
19892TIP3    H181091   0.145   3.565   5.185 -1.9491  0.0772  0.0501
19892TIP3    H281092   0.248   3.672   5.216 -2.0150 -0.2248  1.3715
19893TIP3   OH281093   2.063   5.269   3.616 -0.2887  0.0260  0.3456
19893TIP3    H181094   2.110   5.240   3.537  0.4536 -0.2894  0.8943
19893TIP3    H281095   2.019   5.349   3.589 -0.1350 -0.1378 -0.4280
19894TIP3   OH281096   5.699   6.571   5.218 -0.0595  1.1489  0.0104
19894TIP3    H181097   5.633   6.502   5.206 -0.1588  1.3492 -0.6375
19894TIP3    H281098   5.656   6.650   5.185  0.5838  1.2411 -0.6114
19895TIP3   OH281099   5.338   5.051  11.660  0.6363 -0.5641 -0.1565
19895TIP3    H181100   5.351   4.975  11.604  0.5850 -0.3471 -0.4661
19895TIP3    H281101   5.247   5.046  11.687  0.7265 -0.8028  0.1083
19896TIP3   OH281102   3.954   1.834  17.155  0.5993  0.2174 -0.1233
19896TIP3    H181103   3.917   1.750  17.127  0.7848 -0.9330  2.7375
19896TIP3    H281104   3.882   1.878  17.200  0.0235  2.4279 -2.9368
19897TIP3   OH281105   3.472   4.620   6.461  0.2572  0.7441 -0.1120
19897TIP3    H181106   3.383   4.606   6.491  0.8361 -0.7031  1.0357
19897TIP3    H281107   3.485   4.554   6.393  0.6008  0.6201  0.0688
19898TIP3   OH281108   6.010   5.438  11.927 -0.2669 -0.1866 -0.0096
19898TIP3    H181109   6.083   5.481  11.881 -0.0383 -1.4339 -0.8729
19898TIP3    H281110   6.015   5.472  12.016  1.1610  0.0281 -0.1468
19899TIP3   OH281111   1.379   5.499  12.471  0.4072  0.1024  0.1557
19899TIP3    H181112   1.425   5.581  12.456  0.8849 -0.2634 -0.4186
19899TIP3    H281113   1.287   5.525  12.486  0.1498  0.6073 -2.0221
19900TIP3   OH281114   4.431   3.588  14.695 -0.2317  0.8266  0.3896
19900TIP3    H181115   4.438   3.624  14.784 -0.9853  0.8776  0.4291
19900TIP3    H281116   4.340   3.602  14.670 -0.8535 -1.8445  0.7802
19901TIP3   OH281117   4.997   3.421   1.215 -0.1487 -0.8507  0.0890
19901TIP3    H181118   5.073   3.364   1.209 -0.5701 -1.3602 -0.5623
19901TIP3    H281119   5.033   3.509   1.207  0.5660 -0.9616  1.6152
19902TIP3   OH281120   2.244   2.797   2.673 -0.1777  0.3895  0.0063
19902TIP3    H181121   2.306   2.739   2.716 -0.7796 -0.1317  0.1949
19902TIP3    H281122   2.219   2.751   2.593 -0.2455  0.6401 -0.1184
19903TIP3   OH281123   1.757   3.583  12.268 -0.2621 -0.0668  0.4700
19903TIP3    H181124   1.837   3.568  12.217 -1.2939  0.7815 -1.4909
19903TIP3    H281125   1.715   3.497  12.273 -0.1368 -0.1580 -0.0729
19904TIP3   OH281126   2.875   6.465   3.160 -0.2350 -0.2478  0.5376
19904TIP3    H181127   2.816   6.464   3.084  0.1078  1.5281  0.2106
19904TIP3    H281128   2.911   6.376   3.163 -1.1648 -0.6963 -0.6476
19905TIP3   OH281129   3.006   0.429   3.531 -0.1097 -0.6437  0.5906
19905TIP3    H181130   2.997   0.376   3.452 -1.8303  0.5212 -0.0718
19905TIP3    H281131   2.941   0.393   3.591 -0.8584  0.2693  0.3589
19906TIP3   OH281132   0.422   4.834  13.243  0.4534  0.0986  0.4362
19906TIP3    H181133   0.472   4.752  13.244  0.9679  0.4097  0.6670
19906TIP3    H281134   0.485   4.900  13.215  0.6534  0.7749  2.2863
19907TIP3   OH281135   2.109   3.181  12.282 -0.3021 -0.7585  0.0848
19907TIP3    H181136   2.079   3.199  12.371 -0.0542 -0.1333  0.0471
19907TIP3    H281137   2.189   3.131  12.293  0.6173  0.6850  0.2619
19908TIP3   OH281138   1.606   4.114  15.807 -0.1889 -0.6169 -0.7326
19908TIP3    H181139   1.520   4.155  15.805  0.7212  1.4268 -0.3578
19908TIP3    H281140   1.652   4.150  15.731  1.0695  0.0865  0.3165
19909TIP3   OH281141   6.393   4.213   4.952 -0.1862 -0.0683  0.5701
19909TIP3    H181142   6.405   4.245   4.863 -0.3998 -1.8181 -0.1239
19909TIP3    H281143   6.481   4.214   4.991 -0.0762  0.5777  0.3171
19910TIP3   OH281144   6.084   5.412  12.694 -0.5486 -0.4069  0.0609
19910TIP3    H181145   6.049   5.423  12.606 -1.6250  0.1625  0.5453
19910TIP3    H281146   6.137   5.332  12.689 -2.9069 -2.0560 -0.4285
19911TIP3   OH281147   2.932   5.673  13.650  0.0692 -0.2239 -0.1537
19911TIP3    H181148   2.894   5.754  13.617 -0.3898  0.2096  1.3951
19911TIP3    H281149   3.018   5.668  13.607  0.3677  1.3965  0.1875
19912TIP3   OH281150   3.155   4.969  16.659 -0.1291  0.8138  0.5411
19912TIP3    H181151   3.205   4.971  16.740 -1.3379  0.1374  1.3212
19912TIP3    H281152   3.152   4.877  16.634  1.1395  1.1017 -0.8922
19913TIP3   OH281153   6.324   5.343  10.995  0.0237 -0.2527 -0.0677
19913TIP3    H181154   6.269   5.397  11.052 -0.8586 -0.4218 -0.7422
19913TIP3    H281155   6.402   5.396  10.981 -0.1614  0.1910  0.5205
19914TIP3   OH281156   2.491   3.232   0.091  0.0928 -0.5286 -0.1568
19914TIP3    H181157   2.513   3.276   0.173  0.6853 -0.7487 -0.1927
19914TIP3    H281158   2.535   3.283   0.024 -1.5254  0.4809 -0.5090
19915TIP3   OH281159   2.239   1.373  13.281  0.2499 -0.2895 -0.0385
19915TIP3    H181160   2.162   1.408  13.235 -1.4949 -1.1282  2.0474
19915TIP3    H281161   2.313   1.422  13.245 -1.3468  1.1790 -1.5300
19916TIP3   OH281162   2.558   4.679  12.433  0.4054 -0.5336 -0.1632
19916TIP3    H181163   2.607   4.712  12.357  0.0082  0.6473  0.0641
19916TIP3    H281164   2.474   4.651  12.397  0.7357 -1.2856 -0.3572
19917TIP3   OH281165   1.955   1.145  16.547  0.5926  0.0365 -0.3456
19917TIP3    H181166   2.002   1.071  16.510 -0.5207 -0.9945  0.2302
19917TIP3    H281167   1.896   1.174  16.477  0.9774  0.3458 -0.5477
19918TIP3   OH281168   3.853   1.384   2.492 -0.2072  0.0107 -0.7234
19918TIP3    H181169   3.907   1.335   2.554 -1.4311  0.3471  0.6750
19918TIP3    H281170   3.916   1.427   2.435  1.0389  0.5558  0.9602
19919TIP3   OH281171   3.523   1.900   4.133  0.4345  0.3555 -0.7765
19919TIP3    H181172   3.438   1.940   4.120  0.6439  0.9481 -0.3530
19919TIP3    H281173   3.548   1.924   4.222  2.0935  2.2227 -1.6539
19920TIP3   OH281174   0.260   1.853  12.769  0.3194 -0.7130  0.0073
19920TIP3    H181175   0.212   1.796  12.829  0.2134 -0.8186 -0.1755
19920TIP3    H281176   0.334   1.886  12.820  0.2076 -0.7704  0.2068
19921TIP3   OH281177   5.813   2.545  13.313  0.4870 -0.8492 -0.1333
19921TIP3    H181178   5.729   2.581  13.286 -0.7432 -1.5947  2.4711
19921TIP3    H281179   5.841   2.491  13.238 -1.3245 -0.5676 -1.0471
19922TIP3   OH281180   4.679   5.961   4.767  0.8396  0.2931  0.0249
19922TIP3    H181181   4.688   5.972   4.672 -0.5511  1.4874 -0.0072
19922TIP3    H281182   4.712   6.044   4.803 -0.0764  0.4616  0.4883
19923TIP3   OH281183   0.181   2.819  14.871 -0.1181 -0.3814 -0.3203
19923TIP3    H181184   0.137   2.743  14.909  1.5391 -1.9531 -1.3839
19923TIP3    H281185   0.120   2.852  14.805 -0.2090 -1.7916 -0.9579
19924TIP3   OH281186   4.789   5.847  14.048  0.4736  0.0100 -0.0968
19924TIP3    H181187   4.767   5.861  14.140 -1.2908 -0.6333 -0.3847
19924TIP3    H281188   4.830   5.761  14.045  0.8342  0.1737  0.1295
19925TIP3   OH281189   4.037   1.677  14.568 -0.6322  0.0114  0.3802
19925TIP3    H181190   4.000   1.654  14.653 -0.4655 -0.0344  0.4398
19925TIP3    H281191   4.098   1.607  14.548 -1.2326 -0.3828 -0.1292
19926TIP3   OH281192   0.797   0.614  14.866 -0.3042 -0.2464 -0.3196
19926TIP3    H181193   0.843   0.685  14.911 -3.6675  2.1734 -0.3307
19926TIP3    H281194   0.851   0.594  14.790  2.5906 -0.3869  1.6355
19927TIP3   OH281195   3.607   0.291   0.761 -0.3639  0.1093  0.7636
19927TIP3    H181196   3.596   0.381   0.792 -0.2734 -0.2319  1.8013
19927TIP3    H281197   3.670   0.298   0.689  0.4368  0.7544  1.5041
19928TIP3   OH281198   4.733   1.944  15.294  0.8853 -0.3217  0.5528
19928TIP3    H181199   4.783   1.904  15.222  0.3944  1.7582 -1.0264
19928TIP3    H281200   4.645   1.907  15.286  0.6982  0.2846 -0.2577
19929TIP3   OH281201   4.214   1.428   5.406  0.0156 -0.4158 -0.1706
19929TIP3    H181202   4.268   1.502   5.435 -0.0250 -0.4731  0.0602
19929TIP3    H281203   4.141   1.427   5.468  0.3418 -1.0298  0.2126
19930TIP3   OH281204   0.196   4.885  13.628 -0.2138 -0.0064 -0.0385
19930TIP3    H181205   0.274   4.923  13.588  0.5200 -2.2476 -0.9183
19930TIP3    H281206   0.176   4.809  13.572 -1.5807 -0.8681  1.5574
19931TIP3   OH281207   4.075   3.173   2.714  0.2799 -0.6864  0.1171
19931TIP3    H181208   4.052   3.081   2.728 -1.2108 -0.4478 -0.5820
19931TIP3    H281209   4.097   3.206   2.801 -0.5149 -1.3618  0.5860
19932TIP3   OH281210   0.468   1.413   3.927 -0.1559 -0.0500  0.0158
19932TIP3    H181211   0.489   1.498   3.964 -0.3143 -0.2097  0.4844
19932TIP3    H281212   0.398   1.431   3.863 -0.8318  0.0577  0.7664
19933TIP3   OH281213   4.474   5.986   4.215  0.2665 -0.1994 -0.0879
19933TIP3    H181214   4.567   6.010   4.223  0.4289 -0.2689 -1.4761
19933TIP3    H281215   4.464   5.909   4.271  0.9777 -0.0276  0.2919
19934TIP3   OH281216   5.443   3.527  16.989  0.4979  0.0570 -0.0277
19934TIP3    H181217   5.503   3.540  17.062 -2.5208  0.8957  2.5074
19934TIP3    H281218   5.442   3.432  16.976 -0.4799 -0.3320  2.5269
19935TIP3   OH281219   4.706   6.653   2.718 -0.0216  0.4702  0.0491
19935TIP3    H181220   4.685   6.571   2.763  0.8219 -0.1774 -0.6958
19935TIP3    H281221   4.719   6.717   2.788 -1.3324  0.1414  0.6195
19936TIP3   OH281222   0.485   1.067  16.649  0.4799 -0.1089 -0.0326
19936TIP3    H181223   0.500   0.994  16.589  1.0298  0.3577 -0.4734
19936TIP3    H281224   0.407   1.042  16.699  0.1463 -0.6034 -0.7885
19937TIP3   OH281225   4.436   2.352   1.506 -0.4759  0.4670  0.1766
19937TIP3    H181226   4.414   2.432   1.459 -0.8548  1.1818  1.5379
19937TIP3    H281227   4.352   2.308   1.518 -0.4189  0.4276  0.4352
19938TIP3   OH281228   2.620   4.021   0.561 -0.4311  0.3496 -0.1518
19938TIP3    H181229   2.674   3.953   0.602 -0.4482  0.6827  0.4278
19938TIP3    H281230   2.530   3.989   0.569 -0.3160 -0.3098 -1.3135
19939TIP3   OH281231   3.016   4.476  13.645 -0.3178 -0.3401 -0.0358
19939TIP3    H181232   3.018   4.401  13.585  1.3264 -0.6068  0.2979
19939TIP3    H281233   3.033   4.439  13.731 -1.3767  0.2071  0.4314
19940TIP3   OH281234   1.364   4.786  12.356 -0.4371  0.3383 -0.0181
19940TIP3    H181235   1.364   4.803  12.262 -1.8591  0.2606 -0.0486
19940TIP3    H281236   1.322   4.863  12.395  0.8624  0.7396  0.6477
19941TIP3   OH281237   1.736   4.765   3.042  0.1916  0.0847  0.5041
19941TIP3    H181238   1.831   4.751   3.038  0.0399 -1.1669  0.9783
19941TIP3    H281239   1.702   4.686   3.083 -1.0580  0.5711  0.4331
19942TIP3   OH281240   3.694   5.682   1.594 -0.2697  0.3230 -0.1960
19942TIP3    H181241   3.747   5.606   1.571 -1.6914 -1.0076  0.7500
19942TIP3    H281242   3.741   5.756   1.556  0.9390 -1.0537 -1.5121
19943TIP3   OH281243   4.512   1.435  15.218  0.1177  0.0383  0.9380
19943TIP3    H181244   4.576   1.505  15.207  1.1560 -0.6337  2.4814
19943TIP3    H281245   4.472   1.453  15.303 -1.4489  0.1768  0.2081
19944TIP3   OH281246   2.718   3.277   3.110  0.2606 -0.4159  0.3321
19944TIP3    H181247   2.813   3.280   3.100  0.1228 -0.0345 -1.3002
19944TIP3    H281248   2.686   3.337   3.042 -1.2531 -3.2792 -1.6895
19945TIP3   OH281249   3.992   5.762  12.523 -0.4335 -0.1651  0.0422
19945TIP3    H181250   4.064   5.712  12.484  0.1582  0.6878  0.0303
19945TIP3    H281251   3.960   5.706  12.594  1.0232 -0.0512  0.8227
19946TIP3   OH281252   6.225   1.363   0.010  0.2782  0.3151 -0.0645
19946TIP3    H181253   6.304   1.382   0.061  1.2857 -2.7207 -0.2396
19946TIP3    H281254   6.256   1.350  -0.079 -1.1531  3.3195 -1.1353
19947TIP3   OH281255   1.706   5.115  11.705  0.0880 -0.0353 -0.3700
19947TIP3    H181256   1.691   5.171  11.781 -0.3593  0.1953 -0.6222
19947TIP3    H281257   1.712   5.176  11.631 -0.6059 -0.3267 -0.6776
19948TIP3   OH281258   0.543   0.438  15.548 -0.1419 -0.3016 -0.1302
19948TIP3    H181259   0.466   0.404  15.502 -0.6696 -1.3284  1.4378
19948TIP3    H281260   0.508   0.474  15.630  0.9585  0.0471  0.1973
19949TIP3   OH281261   3.921   0.220   3.160  0.1000  0.0754  0.4008
19949TIP3    H181262   3.970   0.181   3.088 -0.2719  1.0046 -0.3828
19949TIP3    H281263   3.832   0.229   3.126 -0.2681 -0.1989  1.2667
19950TIP3   OH281264   4.147   3.699   0.218  0.1574 -0.3657 -0.9584
19950TIP3    H181265   4.209   3.680   0.289 -1.5036 -2.1222  0.1321
19950TIP3    H281266   4.197   3.686   0.138  1.5750 -0.2907 -0.1243
19951TIP3   OH281267   6.063   5.741  11.187 -1.1246  0.0377 -0.4954
19951TIP3    H181268   6.026   5.811  11.241 -0.6391 -0.6900  0.8143
19951TIP3    H281269   6.075   5.782  11.101  3.2432  3.0893  1.1640
19952TIP3   OH281270   4.992   6.247   1.530  0.0356  0.3567  0.4300
19952TIP3    H181271   4.952   6.161   1.540 -2.0158  1.3868  1.9952
19952TIP3    H281272   4.925   6.308   1.562  1.5767  2.5052 -0.2110
19953TIP3   OH281273   2.030   1.259  15.946 -0.2850  0.1615 -0.2488
19953TIP3    H181274   1.993   1.179  15.910  0.5585 -0.0650 -0.6255
19953TIP3    H281275   1.971   1.328  15.916 -1.3549 -0.3607  0.5724
19954TIP3   OH281276   1.779   1.599  15.155 -0.3609 -0.2488  0.1150
19954TIP3    H181277   1.752   1.618  15.245 -1.6590  0.4813 -0.4044
19954TIP3    H281278   1.800   1.685  15.119 -1.5125 -0.3266 -0.7868
19955TIP3   OH281279   1.148   3.904  13.011 -0.0211  0.0825  0.2637
19955TIP3    H181280   1.117   3.994  13.009 -0.3463  0.0162  1.5220
19955TIP3    H281281   1.160   3.884  13.104 -0.3679 -1.3085  0.0417
19956TIP3   OH281282   5.630   2.220  12.188  0.6319  0.0146  0.4483
19956TIP3    H181283   5.610   2.192  12.099  1.0147  0.7603  0.1153
19956TIP3    H281284   5.702   2.282  12.178  0.3856  0.4450  1.2401
19957TIP3   OH281285   3.267   3.768   3.018  0.3811  0.2056  0.4482
19957TIP3    H181286   3.222   3.786   2.936  0.3452 -0.5532  0.2900
19957TIP3    H281287   3.214   3.811   3.085  0.3094  0.6738  0.0997
19958TIP3   OH281288   0.637   2.810   4.454 -0.0822  0.1687 -0.7784
19958TIP3    H181289   0.671   2.829   4.542 -3.0073 -0.4838  0.6163
19958TIP3    H281290   0.615   2.717   4.457  0.9549 -0.1686 -2.6876
19959TIP3   OH281291   2.548   5.076   0.670 -1.0691  0.4226 -0.2279
19959TIP3    H181292   2.569   4.990   0.634 -1.6364  0.5385 -0.8707
19959TIP3    H281293   2.603   5.137   0.621 -0.3994  0.3980  0.4811
19960TIP3   OH281294   5.848   1.822  17.065 -0.4220 -0.2476 -0.2184
19960TIP3    H181295   5.925   1.782  17.024 -0.9713  0.3417 -1.9177
19960TIP3    H281296   5.835   1.773  17.146 -0.1166 -2.4551 -1.4289
19961TIP3   OH281297   5.027   2.078  15.362 -0.3377 -0.2566  0.0869
19961TIP3    H181298   4.946   2.103  15.318 -0.1559 -0.0247 -0.1222
19961TIP3    H281299   5.033   2.137  15.436 -0.5121 -0.4735  0.2744
19962LIG      S81300   3.733   3.469  17.049  0.0478  0.0315  0.0296
19962LIG     N181301   3.262   3.284  16.785  0.1362 -0.5911 -0.4233
19962LIG     N281302   3.472   3.330  16.976 -0.4188 -0.0776 -0.0042
19962LIG     C181303   3.377   3.244  16.705 -0.7522  0.5537 -0.4691
19962LIG     C281304   3.507   3.328  16.732  0.4413 -0.2070  0.6149
19962LIG     C381305   3.556   3.360  16.864 -0.7238 -0.2840 -0.6980
19962LIG     C481306   3.138   3.191  16.791 -0.3743  0.1487 -0.6316
19962LIG     C581307   3.229   3.427  16.751  0.5334  0.0601  0.2249
19962LIG     C681308   3.423   3.096  16.743 -0.0193 -0.4855 -0.2997
19962LIG     C781309   3.681   3.421  16.886 -0.0164 -0.5395  0.0760
19962LIG     C881310   3.593   3.351  16.620  0.0470 -0.1179 -0.3022
19962LIG     C981311   3.526   3.290  17.099 -0.4542  0.0515 -0.4424
19962LIG    C1081312   3.054   3.187  16.663 -0.6972 -0.0147 -1.0744
19962LIG    C1181313   3.218   3.462  16.607 -0.6374 -0.0641  0.3927
19962LIG    C1281314   3.755   3.453  16.769 -0.3847  0.7697 -0.2390
19962LIG    C1381315   3.711   3.429  16.639  0.0906 -0.2107  0.1247
19962LIG    C1481316   3.651   3.347  17.148  1.1922 -0.2766  1.2958
19962LIG    C1581317   3.457   3.199  17.175  0.3182  0.2165  0.0139
19962LIG    C1681318   3.702   3.301  17.266  0.4414  0.4799 -0.3080
19962LIG    C1781319   3.514   3.160  17.300 -0.1993  0.1724  0.9704
19962LIG    C1881320   3.630   3.218  17.346  0.2623 -0.6204 -0.6981
19962LIG     H181321   3.345   3.236  16.599  1.1381  3.6920 -1.3999
19962LIG     H281322   3.071   3.238  16.866 -1.0953 -2.8564  0.7709
19962LIG     H381323   3.166   3.090  16.830 -0.5230  0.0076 -0.8849
19962LIG     H481324   3.288   3.501  16.810 -0.8240  0.1946  1.4569
19962LIG     H581325   3.131   3.438  16.801  1.8755  4.8111  2.4601
19962LIG     H681326   3.445   3.094  16.852 -4.1161  0.2523  0.7013
19962LIG     H781327   3.522   3.074  16.699  0.4175 -2.3819  1.4557
19962LIG     H881328   3.347   3.026  16.702  0.7272 -1.2662 -0.3712
19962LIG     H981329   3.560   3.313  16.524 -0.2751 -1.7780  0.4375
19962LIG    H1081330   3.379   3.300  16.948 -0.7551  1.1036 -0.2368
19962LIG    H1181331   2.999   3.091  16.656  0.2863 -0.8945  1.6571
19962LIG    H1281332   3.123   3.190  16.576  0.4828 -0.1388 -0.1706
19962LIG    H1381333   2.978   3.267  16.664  0.5802  1.2421 -1.0374
19962LIG    H1481334   3.159   3.556  16.602 -0.6202 -0.0433  0.5855
19962LIG    H1581335   3.161   3.387  16.547  1.3011 -1.2123 -0.1044
19962LIG    H1681336   3.322   3.475  16.570 -0.2724 -2.8754  0.1789
19962LIG    H1781337   3.850   3.503  16.780  0.1671 -0.1992 -0.4447
19962LIG    H1881338   3.769   3.453  16.552 -1.3499  1.3936 -0.4328
19962LIG    H1981339   3.362   3.161  17.138 -0.2793  2.0702 -0.4702
19962LIG    H2081340   3.788   3.352  17.305 -0.1883 -1.1304  3.6847
19962LIG    H2181341   3.455   3.103  17.369 -2.7280  2.7078  1.0797
19962LIG    H2281342   3.657   3.194  17.447 -0.3165  1.2991 -0.0308
   6.79114   6.79114  17.20391
